(written by ASE)

47 atoms
2 atom types

0.0      8.3203390680104548  xlo xhi
0.0      7.8444909018059308  ylo yhi
0.0      27.221250000000001  zlo zhi
     2.7734463575387642                       0                       0  xy xz yz

Masses

     1      1.0079999997406976 # H
     2      183.83999995270821 # W

Atoms # atomic

     1   1      1.6965824268856897    0.077151286031041599      17.981110328499557
     2   1      2.4147992506854319     0.13417262331678859      17.807922104000443
     3   2                       0                       0                       0
     4   2     0.92448211825510584      2.6148302979871469                       0
     5   2      1.8489642392836583      5.2296606038187843                       0
     6   2       2.773446353230038                       0                       0
     7   2      3.6979284714851439      2.6148302979871469                       0
     8   2      4.6224105925136962      5.2296606038187843                       0
     9   2       5.546892714780415  4.4408920985006262e-16                       0
    10   2      6.4713748330355214      2.6148302979871469                       0
    11   2      7.3958569540640733      5.2296606038187852                       0
    12   2      1.8489642412894647      1.3074151529158189      2.1752773087500001
    13   2      2.7734463595445704      3.9222454509029658      2.1752773087500001
    14   2      3.6979284777996764      6.5370757488901123      2.1752773087500001
    15   2      4.6224105945195024      1.3074151529158191      2.1752773087500001
    16   2      5.5468927127746088      3.9222454509029658      2.1752773087500001
    17   2      6.4713748310297134      6.5370757488901123      2.1752773087500001
    18   2      7.3958569477495413      1.3074151529158189      2.1752773087500001
    19   2      8.3203390660046459      3.9222454509029649      2.1752773087500001
    20   2      9.2448211842597523      6.5370757488901132      2.1752773087500001
    21   2                       0                       0      4.4472717187499997
    22   2     0.92448211825510584      2.6148302979871469      4.4472717187499997
    23   2      1.8489642392836583      5.2296606038187843      4.4472717187499997
    24   2       2.773446353230038                       0      4.4472717187499997
    25   2      3.6979284714851439      2.6148302979871469      4.4472717187499997
    26   2      4.6224105925136962      5.2296606038187843      4.4472717187499997
    27   2       5.546892714780415  4.4408920985006262e-16      4.4472717187499997
    28   2      6.4713748330355214      2.6148302979871469      4.4472717187499997
    29   2      7.3958569540640733      5.2296606038187852      4.4472717187499997
    30   2      1.8489642412894647      1.3074151529158189      6.7192389075000003
    31   2      2.7734463595445704      3.9222454509029658      6.7192389075000003
    32   2      3.6979284777996764      6.5370757488901123      6.7192389075000003
    33   2      4.6224105945195024      1.3074151529158191      6.7192389075000003
    34   2      5.5468927127746088      3.9222454509029658      6.7192389075000003
    35   2      6.4713748310297134      6.5370757488901123      6.7192389075000003
    36   2      7.3958569477495413      1.3074151529158189      6.7192389075000003
    37   2      8.3203390660046459      3.9222454509029649      6.7192389075000003
    38   2      9.2448211842597523      6.5370757488901132      6.7192389075000003
    39   2                       0                       0      8.8945162162500004
    40   2     0.92448211825510584      2.6148302979871469      8.8945162162500004
    41   2      1.8489642392836583      5.2296606038187843      8.8945162162500004
    42   2       2.773446353230038                       0      8.8945162162500004
    43   2      3.6979284714851439      2.6148302979871469      8.8945162162500004
    44   2      4.6224105925136962      5.2296606038187843      8.8945162162500004
    45   2       5.546892714780415  4.4408920985006262e-16      8.8945162162500004
    46   2      6.4713748330355214      2.6148302979871469      8.8945162162500004
    47   2      7.3958569540640733      5.2296606038187852      8.8945162162500004
