       N       E                     dE             d eps       ncg     rms          rms(c)
RMM:   1     0.220146774629E+04    0.22015E+04   -0.52441E+04  2132   0.654E+02
RMM:   2     0.705153887228E+03   -0.14963E+04   -0.16266E+04  2132   0.177E+02
RMM:   3     0.137661481431E+03   -0.56749E+03   -0.65708E+03  2132   0.117E+02
RMM:   4    -0.159477741991E+03   -0.29714E+03   -0.27852E+03  2132   0.936E+01
RMM:   5    -0.287380032892E+03   -0.12790E+03   -0.11421E+03  2132   0.595E+01
RMM:   6    -0.349708451866E+03   -0.62328E+02   -0.55136E+02  2132   0.423E+01
RMM:   7    -0.382610307929E+03   -0.32902E+02   -0.30419E+02  2132   0.293E+01
RMM:   8    -0.404108605028E+03   -0.21498E+02   -0.18464E+02  2132   0.233E+01
RMM:   9    -0.435947781256E+03   -0.31839E+02   -0.30751E+02  6104   0.173E+01
RMM:  10    -0.441294618509E+03   -0.53468E+01   -0.63740E+01  6397   0.540E+00
RMM:  11    -0.442483865202E+03   -0.11892E+01   -0.11074E+01  6222   0.173E+00
RMM:  12    -0.442862540089E+03   -0.37867E+00   -0.26155E+00  6371   0.602E-01    0.134E+02
RMM:  13    -0.425564715503E+03    0.17298E+02   -0.80985E+01  4680   0.119E+01    0.712E+01
RMM:  14    -0.499114662329E+03   -0.73550E+02   -0.53865E+02  5424   0.232E+01    0.306E+01
RMM:  15    -0.414736081807E+03    0.84379E+02   -0.19622E+02  5051   0.163E+01    0.633E+00
RMM:  16    -0.414054879020E+03    0.68120E+00   -0.39261E+01  6072   0.606E+00    0.428E+00
RMM:  17    -0.413221399555E+03    0.83348E+00   -0.23727E+00  5350   0.183E+00    0.245E+00
RMM:  18    -0.413167334460E+03    0.54065E-01   -0.87908E-01  5968   0.966E-01    0.160E+00
RMM:  19    -0.413169535227E+03   -0.22008E-02   -0.27531E-01  5707   0.561E-01    0.851E-01
RMM:  20    -0.413185629782E+03   -0.16095E-01   -0.21706E-01  5395   0.509E-01    0.551E-01
RMM:  21    -0.413168826740E+03    0.16803E-01   -0.33423E-02  5008   0.233E-01    0.251E-01
RMM:  22    -0.413166962475E+03    0.18643E-02   -0.14118E-02  6105   0.102E-01    0.145E-01
RMM:  23    -0.413165192572E+03    0.17699E-02   -0.58324E-03  5848   0.724E-02    0.839E-02
RMM:  24    -0.413163544164E+03    0.16484E-02   -0.14824E-03  5221   0.399E-02    0.382E-02
RMM:  25    -0.413163088688E+03    0.45548E-03   -0.80362E-04  5727   0.255E-02    0.303E-02
RMM:  26    -0.413163185257E+03   -0.96569E-04   -0.60483E-04  5826   0.259E-02    0.299E-02
RMM:  27    -0.413163590952E+03   -0.40569E-03   -0.18647E-04  4526   0.200E-02    0.172E-02
RMM:  28    -0.413164042840E+03   -0.45189E-03   -0.18527E-04  5196   0.198E-02    0.912E-03
RMM:  29    -0.413164384846E+03   -0.34201E-03   -0.96329E-05  4345   0.145E-02    0.388E-03
RMM:  30    -0.413164588444E+03   -0.20360E-03   -0.77233E-05  4278   0.985E-03    0.342E-03
RMM:  31    -0.413164683592E+03   -0.95148E-04   -0.46423E-05  3115   0.603E-03    0.267E-03
RMM:  32    -0.413164699704E+03   -0.16112E-04   -0.18248E-05  2940   0.279E-03    0.138E-03
RMM:  33    -0.413164705281E+03   -0.55770E-05   -0.78262E-06  2745   0.197E-03    0.452E-04
RMM:  34    -0.413164705227E+03    0.54446E-07   -0.37553E-06  2579   0.145E-03
    1 T=    61. E= -.41286688E+03 F= -.41316471E+03 E0= -.41314221E+03  EK= 0.29783E+00 SP= 0.00E+00 SK= 0.00E+00
       N       E                     dE             d eps       ncg     rms          rms(c)
RMM:   1    -0.413174287715E+03   -0.95824E-02   -0.61850E+00  3981   0.486E-01    0.910E-01
RMM:   2    -0.413171628743E+03    0.26590E-02   -0.80256E-02  3943   0.732E-02    0.664E-01
RMM:   3    -0.413167988284E+03    0.36405E-02   -0.52795E-02  5086   0.791E-02    0.320E-01
RMM:   4    -0.413186105389E+03   -0.18117E-01   -0.29013E-02  5167   0.145E-01    0.622E-01
RMM:   5    -0.413164290231E+03    0.21815E-01   -0.11216E-02  4767   0.106E-01    0.468E-02
RMM:   6    -0.413164418255E+03   -0.12802E-03   -0.18450E-03  5659   0.421E-02    0.294E-02
RMM:   7    -0.413164432074E+03   -0.13818E-04   -0.32298E-04  5751   0.162E-02    0.194E-02
RMM:   8    -0.413164432266E+03   -0.19210E-06   -0.40855E-05  4890   0.718E-03    0.668E-03
RMM:   9    -0.413164435644E+03   -0.33783E-05   -0.81797E-06  3190   0.304E-03    0.436E-03
RMM:  10    -0.413164441228E+03   -0.55843E-05   -0.18142E-06  2562   0.194E-03    0.269E-03
RMM:  11    -0.413164445361E+03   -0.41324E-05   -0.99832E-07  2483   0.142E-03    0.130E-03
RMM:  12    -0.413164450962E+03   -0.56016E-05   -0.99074E-07  2492   0.133E-03    0.649E-04
RMM:  13    -0.413164453741E+03   -0.27788E-05   -0.51692E-07  2033   0.987E-04    0.402E-04
RMM:  14    -0.413164454327E+03   -0.58557E-06   -0.28763E-07  1504   0.753E-04
    2 T=    61. E= -.41286665E+03 F= -.41316445E+03 E0= -.41314195E+03  EK= 0.29781E+00 SP= 0.00E+00 SK= 0.00E+00
       N       E                     dE             d eps       ncg     rms          rms(c)
RMM:   1    -0.413175412138E+03   -0.10958E-01   -0.61335E+00  4188   0.486E-01    0.926E-01
RMM:   2    -0.413171833038E+03    0.35791E-02   -0.80628E-02  3948   0.718E-02    0.664E-01
RMM:   3    -0.413169124929E+03    0.27081E-02   -0.49306E-02  5115   0.805E-02    0.311E-01
RMM:   4    -0.413186382713E+03   -0.17258E-01   -0.29990E-02  5130   0.148E-01    0.616E-01
RMM:   5    -0.413164870258E+03    0.21512E-01   -0.10291E-02  4714   0.103E-01    0.462E-02
RMM:   6    -0.413164986733E+03   -0.11647E-03   -0.17783E-03  5643   0.414E-02    0.313E-02
RMM:   7    -0.413164988513E+03   -0.17805E-05   -0.31818E-04  5635   0.168E-02    0.211E-02
RMM:   8    -0.413164980321E+03    0.81920E-05   -0.44053E-05  5043   0.765E-03    0.796E-03
RMM:   9    -0.413164979103E+03    0.12182E-05   -0.81661E-06  3243   0.328E-03    0.471E-03
RMM:  10    -0.413164979195E+03   -0.92179E-07   -0.15606E-06  2534   0.201E-03
    3 T=    61. E= -.41286692E+03 F= -.41316498E+03 E0= -.41314248E+03  EK= 0.29806E+00 SP= 0.00E+00 SK= 0.00E+00
       N       E                     dE             d eps       ncg     rms          rms(c)
RMM:   1    -0.413174694902E+03   -0.97158E-02   -0.60972E+00  4215   0.491E-01    0.912E-01
RMM:   2    -0.413171529023E+03    0.31659E-02   -0.80105E-02  4096   0.709E-02    0.657E-01
RMM:   3    -0.413172514930E+03   -0.98591E-03   -0.51824E-02  5160   0.975E-02    0.403E-01
RMM:   4    -0.413179949734E+03   -0.74348E-02   -0.28802E-02  5085   0.148E-01    0.530E-01
RMM:   5    -0.413164699786E+03    0.15250E-01   -0.74864E-03  4615   0.882E-02    0.454E-02
RMM:   6    -0.413164744327E+03   -0.44541E-04   -0.12032E-03  5438   0.339E-02    0.292E-02
RMM:   7    -0.413164742866E+03    0.14612E-05   -0.22750E-04  5575   0.143E-02    0.186E-02
RMM:   8    -0.413164740915E+03    0.19506E-05   -0.33450E-05  4832   0.685E-03    0.631E-03
RMM:   9    -0.413164741137E+03   -0.22159E-06   -0.47846E-06  2846   0.268E-03
    4 T=    61. E= -.41286664E+03 F= -.41316474E+03 E0= -.41314225E+03  EK= 0.29810E+00 SP= 0.00E+00 SK= 0.00E+00
       N       E                     dE             d eps       ncg     rms          rms(c)
RMM:   1    -0.413174640825E+03   -0.98999E-02   -0.61864E+00  4242   0.500E-01    0.908E-01
RMM:   2    -0.413171863918E+03    0.27769E-02   -0.80471E-02  4088   0.701E-02    0.663E-01
RMM:   3    -0.413173095432E+03   -0.12315E-02   -0.55314E-02  5157   0.979E-02    0.426E-01
RMM:   4    -0.413179882896E+03   -0.67875E-02   -0.28621E-02  5080   0.148E-01    0.534E-01
RMM:   5    -0.413164836547E+03    0.15046E-01   -0.80268E-03  4606   0.893E-02    0.449E-02
RMM:   6    -0.413164887827E+03   -0.51280E-04   -0.11786E-03  5458   0.333E-02    0.281E-02
RMM:   7    -0.413164898418E+03   -0.10590E-04   -0.22234E-04  5546   0.143E-02    0.177E-02
RMM:   8    -0.413164901055E+03   -0.26370E-05   -0.31339E-05  4708   0.670E-03    0.575E-03
RMM:   9    -0.413164904074E+03   -0.30191E-05   -0.45457E-06  2842   0.258E-03    0.347E-03
RMM:  10    -0.413164909085E+03   -0.50116E-05   -0.12227E-06  2528   0.171E-03    0.210E-03
RMM:  11    -0.413164912678E+03   -0.35929E-05   -0.73968E-07  2368   0.127E-03    0.100E-03
RMM:  12    -0.413164917179E+03   -0.45013E-05   -0.80230E-07  2424   0.119E-03    0.515E-04
RMM:  13    -0.413164919585E+03   -0.24053E-05   -0.45630E-07  1832   0.909E-04    0.316E-04
RMM:  14    -0.413164920435E+03   -0.85053E-06   -0.24894E-07  1391   0.750E-04
    5 T=    61. E= -.41286668E+03 F= -.41316492E+03 E0= -.41314244E+03  EK= 0.29824E+00 SP= 0.00E+00 SK= 0.00E+00
       N       E                     dE             d eps       ncg     rms          rms(c)
RMM:   1    -0.413175660186E+03   -0.10741E-01   -0.61528E+00  4246   0.500E-01    0.923E-01
RMM:   2    -0.413172228186E+03    0.34320E-02   -0.80411E-02  4019   0.700E-02    0.664E-01
RMM:   3    -0.413169937310E+03    0.22909E-02   -0.50243E-02  5118   0.797E-02    0.328E-01
RMM:   4    -0.413185948268E+03   -0.16011E-01   -0.29716E-02  5112   0.148E-01    0.606E-01
RMM:   5    -0.413165288439E+03    0.20660E-01   -0.10000E-02  4697   0.101E-01    0.457E-02
RMM:   6    -0.413165402854E+03   -0.11442E-03   -0.16637E-03  5610   0.401E-02    0.308E-02
RMM:   7    -0.413165403950E+03   -0.10957E-05   -0.29631E-04  5617   0.163E-02    0.207E-02
RMM:   8    -0.413165397954E+03    0.59957E-05   -0.41089E-05  4970   0.763E-03    0.760E-03
RMM:   9    -0.413165397240E+03    0.71401E-06   -0.73864E-06  3138   0.321E-03
    6 T=    61. E= -.41286694E+03 F= -.41316540E+03 E0= -.41314293E+03  EK= 0.29845E+00 SP= 0.00E+00 SK= 0.00E+00
       N       E                     dE             d eps       ncg     rms          rms(c)
RMM:   1    -0.413175243202E+03   -0.98452E-02   -0.61100E+00  4267   0.503E-01    0.917E-01
RMM:   2    -0.413171944961E+03    0.32982E-02   -0.80197E-02  4227   0.709E-02    0.659E-01
RMM:   3    -0.413175596638E+03   -0.36517E-02   -0.52806E-02  5166   0.107E-01    0.452E-01
RMM:   4    -0.413177617390E+03   -0.20208E-02   -0.28646E-02  5056   0.149E-01    0.482E-01
RMM:   5    -0.413165204871E+03    0.12413E-01   -0.61149E-03  4556   0.813E-02    0.453E-02
RMM:   6    -0.413165212947E+03   -0.80765E-05   -0.94545E-04  5325   0.300E-02    0.291E-02
RMM:   7    -0.413165214543E+03   -0.15954E-05   -0.18973E-04  5449   0.134E-02    0.175E-02
RMM:   8    -0.413165209949E+03    0.45934E-05   -0.29054E-05  4682   0.667E-03    0.559E-03
RMM:   9    -0.413165208942E+03    0.10074E-05   -0.38271E-06  2726   0.247E-03    0.304E-03
RMM:  10    -0.413165208555E+03    0.38720E-06   -0.11098E-06  2495   0.163E-03
    7 T=    61. E= -.41286674E+03 F= -.41316521E+03 E0= -.41314276E+03  EK= 0.29847E+00 SP= 0.00E+00 SK= 0.00E+00
       N       E                     dE             d eps       ncg     rms          rms(c)
RMM:   1    -0.413175472831E+03   -0.10264E-01   -0.61754E+00  4273   0.512E-01    0.906E-01
RMM:   2    -0.413172871390E+03    0.26014E-02   -0.80266E-02  4077   0.718E-02    0.661E-01
RMM:   3    -0.413170858322E+03    0.20131E-02   -0.52978E-02  5077   0.862E-02    0.356E-01
RMM:   4    -0.413185405061E+03   -0.14547E-01   -0.29045E-02  5093   0.147E-01    0.599E-01
RMM:   5    -0.413165642122E+03    0.19763E-01   -0.10032E-02  4685   0.999E-02    0.445E-02
RMM:   6    -0.413165755592E+03   -0.11347E-03   -0.16157E-03  5616   0.391E-02    0.298E-02
RMM:   7    -0.413165747249E+03    0.83429E-05   -0.29031E-04  5578   0.162E-02    0.200E-02
RMM:   8    -0.413165745876E+03    0.13733E-05   -0.39034E-05  4873   0.750E-03    0.727E-03
RMM:   9    -0.413165747260E+03   -0.13845E-05   -0.70799E-06  3107   0.315E-03    0.445E-03
RMM:  10    -0.413165750507E+03   -0.32470E-05   -0.13984E-06  2530   0.191E-03    0.269E-03
RMM:  11    -0.413165752772E+03   -0.22642E-05   -0.82305E-07  2476   0.139E-03    0.134E-03
RMM:  12    -0.413165755810E+03   -0.30379E-05   -0.98623E-07  2492   0.138E-03    0.697E-04
RMM:  13    -0.413165756789E+03   -0.97954E-06   -0.45656E-07  2044   0.100E-03
    8 T=    61. E= -.41286697E+03 F= -.41316576E+03 E0= -.41314333E+03  EK= 0.29879E+00 SP= 0.00E+00 SK= 0.00E+00
       N       E                     dE             d eps       ncg     rms          rms(c)
RMM:   1    -0.413176022806E+03   -0.10267E-01   -0.61794E+00  4284   0.513E-01    0.920E-01
RMM:   2    -0.413173015134E+03    0.30077E-02   -0.80566E-02  4174   0.741E-02    0.665E-01
RMM:   3    -0.413170123200E+03    0.28919E-02   -0.50997E-02  5061   0.823E-02    0.324E-01
RMM:   4    -0.413187221513E+03   -0.17098E-01   -0.29370E-02  5094   0.147E-01    0.617E-01
RMM:   5    -0.413165813308E+03    0.21408E-01   -0.10513E-02  4700   0.103E-01    0.446E-02
RMM:   6    -0.413165946102E+03   -0.13279E-03   -0.17612E-03  5639   0.408E-02    0.311E-02
RMM:   7    -0.413165941060E+03    0.50423E-05   -0.30847E-04  5579   0.168E-02    0.209E-02
RMM:   8    -0.413165936123E+03    0.49372E-05   -0.41751E-05  4915   0.773E-03    0.792E-03
RMM:   9    -0.413165935674E+03    0.44846E-06   -0.81078E-06  3215   0.331E-03
    9 T=    61. E= -.41286687E+03 F= -.41316594E+03 E0= -.41314353E+03  EK= 0.29907E+00 SP= 0.00E+00 SK= 0.00E+00
       N       E                     dE             d eps       ncg     rms          rms(c)
RMM:   1    -0.413176246384E+03   -0.10310E-01   -0.61393E+00  4296   0.516E-01    0.924E-01
RMM:   2    -0.413172781688E+03    0.34647E-02   -0.80912E-02  4289   0.737E-02    0.661E-01
RMM:   3    -0.413177925617E+03   -0.51439E-02   -0.53594E-02  5163   0.114E-01    0.478E-01
RMM:   4    -0.413177298722E+03    0.62689E-03   -0.28819E-02  5033   0.150E-01    0.461E-01
RMM:   5    -0.413166012737E+03    0.11286E-01   -0.55272E-03  4526   0.776E-02    0.451E-02
RMM:   6    -0.413166006007E+03    0.67307E-05   -0.83645E-04  5283   0.283E-02    0.292E-02
RMM:   7    -0.413165996801E+03    0.92055E-05   -0.17710E-04  5336   0.133E-02    0.171E-02
RMM:   8    -0.413165993003E+03    0.37983E-05   -0.27841E-05  4629   0.651E-03    0.532E-03
RMM:   9    -0.413165991206E+03    0.17974E-05   -0.35527E-06  2681   0.238E-03    0.286E-03
RMM:  10    -0.413165989458E+03    0.17474E-05   -0.10579E-06  2476   0.157E-03    0.166E-03
RMM:  11    -0.413165987633E+03    0.18247E-05   -0.65524E-07  2204   0.117E-03    0.783E-04
RMM:  12    -0.413165984872E+03    0.27611E-05   -0.61950E-07  2259   0.107E-03    0.446E-04
RMM:  13    -0.413165982477E+03    0.23950E-05   -0.32581E-07  1601   0.825E-04    0.284E-04
RMM:  14    -0.413165980085E+03    0.23919E-05   -0.24175E-07  1404   0.743E-04    0.175E-04
RMM:  15    -0.413165976448E+03    0.36378E-05   -0.32963E-07  1718   0.792E-04    0.295E-04
RMM:  16    -0.413165972298E+03    0.41499E-05   -0.30451E-07  1386   0.712E-04    0.143E-04
RMM:  17    -0.413165971640E+03    0.65730E-06   -0.76373E-08   883   0.540E-04
   10 T=    61. E= -.41286660E+03 F= -.41316597E+03 E0= -.41314359E+03  EK= 0.29938E+00 SP= 0.00E+00 SK= 0.00E+00
       N       E                     dE             d eps       ncg     rms          rms(c)
RMM:   1    -0.413176492510E+03   -0.10520E-01   -0.61713E+00  4289   0.525E-01    0.906E-01
RMM:   2    -0.413173768052E+03    0.27245E-02   -0.80329E-02  4209   0.736E-02    0.660E-01
RMM:   3    -0.413171249994E+03    0.25181E-02   -0.51886E-02  5064   0.830E-02    0.339E-01
RMM:   4    -0.413187472539E+03   -0.16223E-01   -0.29283E-02  5083   0.147E-01    0.611E-01
RMM:   5    -0.413166652672E+03    0.20820E-01   -0.10440E-02  4697   0.102E-01    0.445E-02
RMM:   6    -0.413166772811E+03   -0.12014E-03   -0.16892E-03  5612   0.399E-02    0.305E-02
RMM:   7    -0.413166771103E+03    0.17082E-05   -0.29756E-04  5542   0.164E-02    0.203E-02
RMM:   8    -0.413166768949E+03    0.21543E-05   -0.39944E-05  4928   0.742E-03    0.748E-03
RMM:   9    -0.413166770064E+03   -0.11152E-05   -0.74484E-06  3147   0.319E-03    0.455E-03
RMM:  10    -0.413166772783E+03   -0.27188E-05   -0.13968E-06  2516   0.193E-03    0.274E-03
RMM:  11    -0.413166774407E+03   -0.16240E-05   -0.75514E-07  2463   0.137E-03    0.140E-03
RMM:  12    -0.413166776441E+03   -0.20345E-05   -0.87106E-07  2483   0.136E-03    0.755E-04
RMM:  13    -0.413166776834E+03   -0.39301E-06   -0.35707E-07  2028   0.978E-04
   11 T=    61. E= -.41286685E+03 F= -.41316678E+03 E0= -.41314442E+03  EK= 0.29993E+00 SP= 0.00E+00 SK= 0.00E+00
       N       E                     dE             d eps       ncg     rms          rms(c)
RMM:   1    -0.413176740538E+03   -0.99641E-02   -0.62219E+00  4294   0.528E-01    0.917E-01
RMM:   2    -0.413173700901E+03    0.30396E-02   -0.80907E-02  4223   0.731E-02    0.667E-01
RMM:   3    -0.413171096877E+03    0.26040E-02   -0.52064E-02  5067   0.807E-02    0.334E-01
RMM:   4    -0.413187961383E+03   -0.16865E-01   -0.29584E-02  5082   0.147E-01    0.617E-01
RMM:   5    -0.413166613914E+03    0.21347E-01   -0.10607E-02  4697   0.103E-01    0.445E-02
RMM:   6    -0.413166752843E+03   -0.13893E-03   -0.17574E-03  5649   0.404E-02    0.308E-02
RMM:   7    -0.413166747524E+03    0.53195E-05   -0.30656E-04  5551   0.169E-02    0.207E-02
RMM:   8    -0.413166743626E+03    0.38973E-05   -0.41534E-05  4906   0.766E-03    0.783E-03
RMM:   9    -0.413166743820E+03   -0.19330E-06   -0.80058E-06  3204   0.331E-03
   12 T=    61. E= -.41286656E+03 F= -.41316674E+03 E0= -.41314441E+03  EK= 0.30019E+00 SP= 0.00E+00 SK= 0.00E+00
       N       E                     dE             d eps       ncg     rms          rms(c)
RMM:   1    -0.413177688896E+03   -0.10945E-01   -0.61780E+00  4294   0.529E-01    0.928E-01
RMM:   2    -0.413174034874E+03    0.36540E-02   -0.81271E-02  4360   0.703E-02    0.664E-01
RMM:   3    -0.413179735735E+03   -0.57009E-02   -0.53820E-02  5175   0.114E-01    0.487E-01
RMM:   4    -0.413178313992E+03    0.14217E-02   -0.29168E-02  5027   0.151E-01    0.455E-01
RMM:   5    -0.413167322436E+03    0.10992E-01   -0.53669E-03  4507   0.777E-02    0.451E-02
RMM:   6    -0.413167315247E+03    0.71881E-05   -0.80658E-04  5259   0.280E-02    0.293E-02
RMM:   7    -0.413167307730E+03    0.75179E-05   -0.17180E-04  5297   0.134E-02    0.170E-02
RMM:   8    -0.413167304741E+03    0.29889E-05   -0.27316E-05  4613   0.653E-03    0.524E-03
RMM:   9    -0.413167302526E+03    0.22145E-05   -0.35055E-06  2679   0.239E-03    0.280E-03
RMM:  10    -0.413167300145E+03    0.23815E-05   -0.10353E-06  2468   0.156E-03    0.164E-03
RMM:  11    -0.413167297545E+03    0.25993E-05   -0.65114E-07  2157   0.116E-03    0.768E-04
RMM:  12    -0.413167293783E+03    0.37625E-05   -0.58025E-07  2207   0.105E-03    0.443E-04
RMM:  13    -0.413167291064E+03    0.27189E-05   -0.26605E-07  1513   0.793E-04    0.302E-04
RMM:  14    -0.413167287739E+03    0.33246E-05   -0.21609E-07  1337   0.736E-04    0.167E-04
RMM:  15    -0.413167283100E+03    0.46397E-05   -0.27178E-07  1657   0.770E-04    0.288E-04
RMM:  16    -0.413167278260E+03    0.48394E-05   -0.22036E-07  1284   0.681E-04    0.139E-04
RMM:  17    -0.413167277264E+03    0.99636E-06   -0.72479E-08   858   0.543E-04
   13 T=    61. E= -.41286669E+03 F= -.41316728E+03 E0= -.41314498E+03  EK= 0.30059E+00 SP= 0.00E+00 SK= 0.00E+00
       N       E                     dE             d eps       ncg     rms          rms(c)
RMM:   1    -0.413177763735E+03   -0.10485E-01   -0.61723E+00  4293   0.537E-01    0.908E-01
RMM:   2    -0.413174894293E+03    0.28694E-02   -0.80543E-02  4233   0.725E-02    0.660E-01
RMM:   3    -0.413172691418E+03    0.22029E-02   -0.50905E-02  5091   0.810E-02    0.338E-01
RMM:   4    -0.413188648584E+03   -0.15957E-01   -0.29927E-02  5084   0.148E-01    0.609E-01
RMM:   5    -0.413167885468E+03    0.20763E-01   -0.10202E-02  4683   0.101E-01    0.451E-02
RMM:   6    -0.413168010656E+03   -0.12519E-03   -0.17053E-03  5612   0.397E-02    0.308E-02
RMM:   7    -0.413168013832E+03   -0.31764E-05   -0.29739E-04  5518   0.164E-02    0.206E-02
RMM:   8    -0.413168008319E+03    0.55133E-05   -0.39937E-05  4932   0.754E-03    0.758E-03
RMM:   9    -0.413168007755E+03    0.56434E-06   -0.75099E-06  3139   0.324E-03
   14 T=    61. E= -.41286693E+03 F= -.41316801E+03 E0= -.41314574E+03  EK= 0.30108E+00 SP= 0.00E+00 SK= 0.00E+00
       N       E                     dE             d eps       ncg     rms          rms(c)
RMM:   1    -0.413177882779E+03   -0.98745E-02   -0.62622E+00  4296   0.542E-01    0.915E-01
RMM:   2    -0.413175209529E+03    0.26732E-02   -0.81349E-02  4313   0.736E-02    0.667E-01
RMM:   3    -0.413180842339E+03   -0.56328E-02   -0.57847E-02  5147   0.117E-01    0.507E-01
RMM:   4    -0.413179257954E+03    0.15844E-02   -0.29188E-02  5023   0.151E-01    0.472E-01
RMM:   5    -0.413168028727E+03    0.11229E-01   -0.63773E-03  4498   0.790E-02    0.437E-02
RMM:   6    -0.413168047442E+03   -0.18714E-04   -0.84544E-04  5279   0.279E-02    0.280E-02
RMM:   7    -0.413168046273E+03    0.11687E-05   -0.17633E-04  5217   0.133E-02    0.163E-02
RMM:   8    -0.413168047792E+03   -0.15193E-05   -0.26037E-05  4446   0.641E-03    0.482E-03
RMM:   9    -0.413168048767E+03   -0.97528E-06   -0.31812E-06  2664   0.234E-03
   15 T=    61. E= -.41286660E+03 F= -.41316805E+03 E0= -.41314582E+03  EK= 0.30145E+00 SP= 0.00E+00 SK= 0.00E+00
       N       E                     dE             d eps       ncg     rms          rms(c)
RMM:   1    -0.413179423572E+03   -0.11376E-01   -0.62192E+00  4296   0.541E-01    0.930E-01
RMM:   2    -0.413176000871E+03    0.34227E-02   -0.81682E-02  4259   0.755E-02    0.666E-01
RMM:   3    -0.413175761452E+03    0.23942E-03   -0.50327E-02  5094   0.946E-02    0.373E-01
RMM:   4    -0.413186449871E+03   -0.10688E-01   -0.29707E-02  5060   0.149E-01    0.559E-01
RMM:   5    -0.413169077834E+03    0.17372E-01   -0.80860E-03  4649   0.929E-02    0.455E-02
RMM:   6    -0.413169148682E+03   -0.70848E-04   -0.13787E-03  5560   0.359E-02    0.307E-02
RMM:   7    -0.413169136339E+03    0.12343E-04   -0.25628E-04  5509   0.158E-02    0.197E-02
RMM:   8    -0.413169126707E+03    0.96317E-05   -0.36034E-05  4823   0.735E-03    0.679E-03
RMM:   9    -0.413169123530E+03    0.31768E-05   -0.61155E-06  2976   0.291E-03    0.386E-03
RMM:  10    -0.413169120456E+03    0.30747E-05   -0.13509E-06  2514   0.188E-03    0.234E-03
RMM:  11    -0.413169117750E+03    0.27060E-05   -0.74058E-07  2414   0.134E-03    0.118E-03
RMM:  12    -0.413169112769E+03    0.49807E-05   -0.82570E-07  2470   0.130E-03    0.630E-04
RMM:  13    -0.413169108642E+03    0.41268E-05   -0.40090E-07  1937   0.959E-04    0.417E-04
RMM:  14    -0.413169106935E+03    0.17068E-05   -0.17070E-07  1363   0.722E-04    0.233E-04
RMM:  15    -0.413169100354E+03    0.65812E-05   -0.30795E-07  1852   0.842E-04    0.440E-04
RMM:  16    -0.413169095062E+03    0.52925E-05   -0.18941E-07  1245   0.664E-04    0.289E-04
RMM:  17    -0.413169094004E+03    0.10581E-05   -0.70098E-08   882   0.550E-04    0.215E-04
RMM:  18    -0.413169091956E+03    0.20476E-05   -0.63600E-08   951   0.573E-04    0.765E-05
RMM:  19    -0.413169090622E+03    0.13345E-05   -0.46363E-08   944   0.575E-04    0.721E-05
RMM:  20    -0.413169090636E+03   -0.14566E-07   -0.14287E-08   642   0.525E-04
   16 T=    62. E= -.41286689E+03 F= -.41316909E+03 E0= -.41314689E+03  EK= 0.30220E+00 SP= 0.00E+00 SK= 0.00E+00
       N       E                     dE             d eps       ncg     rms          rms(c)
RMM:   1    -0.413179444657E+03   -0.10354E-01   -0.61968E+00  4296   0.547E-01    0.913E-01
RMM:   2    -0.413176564273E+03    0.28804E-02   -0.81257E-02  4247   0.753E-02    0.661E-01
RMM:   3    -0.413174167296E+03    0.23970E-02   -0.50037E-02  5051   0.848E-02    0.329E-01
RMM:   4    -0.413190703673E+03   -0.16536E-01   -0.30199E-02  5070   0.149E-01    0.614E-01
RMM:   5    -0.413169430737E+03    0.21273E-01   -0.10270E-02  4693   0.102E-01    0.452E-02
RMM:   6    -0.413169552095E+03   -0.12136E-03   -0.17326E-03  5636   0.402E-02    0.314E-02
RMM:   7    -0.413169546001E+03    0.60938E-05   -0.30327E-04  5512   0.170E-02    0.209E-02
RMM:   8    -0.413169537839E+03    0.81623E-05   -0.42015E-05  4919   0.798E-03    0.778E-03
RMM:   9    -0.413169536204E+03    0.16353E-05   -0.83701E-06  3189   0.336E-03    0.467E-03
RMM:  10    -0.413169535910E+03    0.29377E-06   -0.14899E-06  2520   0.201E-03
   17 T=    62. E= -.41286673E+03 F= -.41316954E+03 E0= -.41314738E+03  EK= 0.30280E+00 SP= 0.00E+00 SK= 0.00E+00
       N       E                     dE             d eps       ncg     rms          rms(c)
RMM:   1    -0.413179812049E+03   -0.10276E-01   -0.63056E+00  4300   0.556E-01    0.914E-01
RMM:   2    -0.413177286507E+03    0.25255E-02   -0.82040E-02  4284   0.760E-02    0.668E-01
RMM:   3    -0.413178785503E+03   -0.14990E-02   -0.55600E-02  5104   0.104E-01    0.437E-01
RMM:   4    -0.413184981002E+03   -0.61955E-02   -0.29248E-02  5044   0.149E-01    0.533E-01
RMM:   5    -0.413169955088E+03    0.15026E-01   -0.78724E-03  4583   0.883E-02    0.445E-02
RMM:   6    -0.413170011863E+03   -0.56775E-04   -0.12065E-03  5446   0.327E-02    0.287E-02
RMM:   7    -0.413170006982E+03    0.48805E-05   -0.22189E-04  5411   0.145E-02    0.180E-02
RMM:   8    -0.413170006202E+03    0.78030E-06   -0.30982E-05  4678   0.685E-03    0.584E-03
RMM:   9    -0.413170006611E+03   -0.40871E-06   -0.46446E-06  2821   0.265E-03
   18 T=    62. E= -.41286659E+03 F= -.41317001E+03 E0= -.41314789E+03  EK= 0.30341E+00 SP= 0.00E+00 SK= 0.00E+00
       N       E                     dE             d eps       ncg     rms          rms(c)
RMM:   1    -0.413181532341E+03   -0.11526E-01   -0.62718E+00  4296   0.555E-01    0.930E-01
RMM:   2    -0.413178168094E+03    0.33642E-02   -0.82383E-02  4283   0.766E-02    0.669E-01
RMM:   3    -0.413179488774E+03   -0.13207E-02   -0.51728E-02  5131   0.995E-02    0.409E-01
RMM:   4    -0.413186729603E+03   -0.72408E-02   -0.29826E-02  5050   0.150E-01    0.532E-01
RMM:   5    -0.413171222216E+03    0.15507E-01   -0.72669E-03  4603   0.884E-02    0.458E-02
RMM:   6    -0.413171277696E+03   -0.55481E-04   -0.12345E-03  5465   0.334E-02    0.300E-02
RMM:   7    -0.413171270145E+03    0.75518E-05   -0.22944E-04  5465   0.149E-02    0.189E-02
RMM:   8    -0.413171265974E+03    0.41707E-05   -0.33121E-05  4748   0.734E-03    0.629E-03
RMM:   9    -0.413171262956E+03    0.30183E-05   -0.52908E-06  2865   0.280E-03    0.352E-03
RMM:  10    -0.413171260068E+03    0.28880E-05   -0.12835E-06  2516   0.180E-03    0.213E-03
RMM:  11    -0.413171257345E+03    0.27227E-05   -0.70460E-07  2364   0.129E-03    0.106E-03
RMM:  12    -0.413171252450E+03    0.48946E-05   -0.74098E-07  2413   0.122E-03    0.575E-04
RMM:  13    -0.413171248476E+03    0.39738E-05   -0.34594E-07  1802   0.897E-04    0.365E-04
RMM:  14    -0.413171246133E+03    0.23438E-05   -0.16574E-07  1301   0.709E-04    0.201E-04
RMM:  15    -0.413171239559E+03    0.65734E-05   -0.25925E-07  1680   0.793E-04    0.360E-04
RMM:  16    -0.413171233567E+03    0.59923E-05   -0.18394E-07  1229   0.670E-04    0.228E-04
RMM:  17    -0.413171232455E+03    0.11119E-05   -0.64807E-08   903   0.563E-04    0.161E-04
RMM:  18    -0.413171230030E+03    0.24252E-05   -0.57638E-08   999   0.581E-04    0.542E-05
RMM:  19    -0.413171229069E+03    0.96111E-06   -0.33814E-08   853   0.549E-04
   19 T=    62. E= -.41286695E+03 F= -.41317123E+03 E0= -.41314915E+03  EK= 0.30428E+00 SP= 0.00E+00 SK= 0.00E+00
       N       E                     dE             d eps       ncg     rms          rms(c)
RMM:   1    -0.413181704287E+03   -0.10474E-01   -0.62437E+00  4295   0.560E-01    0.920E-01
RMM:   2    -0.413178481384E+03    0.32229E-02   -0.81876E-02  4261   0.750E-02    0.663E-01
RMM:   3    -0.413176238035E+03    0.22433E-02   -0.49179E-02  5092   0.805E-02    0.323E-01
RMM:   4    -0.413193166480E+03   -0.16928E-01   -0.30881E-02  5081   0.150E-01    0.617E-01
RMM:   5    -0.413171541428E+03    0.21625E-01   -0.10270E-02  4698   0.103E-01    0.457E-02
RMM:   6    -0.413171667451E+03   -0.12602E-03   -0.17562E-03  5639   0.404E-02    0.319E-02
RMM:   7    -0.413171663154E+03    0.42973E-05   -0.30874E-04  5525   0.171E-02    0.214E-02
RMM:   8    -0.413171658949E+03    0.42051E-05   -0.43582E-05  4940   0.823E-03    0.810E-03
RMM:   9    -0.413171656514E+03    0.24353E-05   -0.88979E-06  3237   0.350E-03    0.476E-03
RMM:  10    -0.413171655033E+03    0.14804E-05   -0.15896E-06  2535   0.206E-03    0.287E-03
RMM:  11    -0.413171653455E+03    0.15783E-05   -0.83170E-07  2485   0.143E-03    0.151E-03
RMM:  12    -0.413171650173E+03    0.32816E-05   -0.99161E-07  2497   0.147E-03    0.806E-04
RMM:  13    -0.413171647565E+03    0.26087E-05   -0.41847E-07  2125   0.104E-03    0.535E-04
RMM:  14    -0.413171646941E+03    0.62323E-06   -0.18324E-07  1528   0.747E-04
   20 T=    62. E= -.41286675E+03 F= -.41317165E+03 E0= -.41314961E+03  EK= 0.30490E+00 SP= 0.00E+00 SK= 0.00E+00
       N       E                     dE             d eps       ncg     rms          rms(c)
RMM:   1    -0.413183219189E+03   -0.11572E-01   -0.63461E+00  4297   0.582E-01    0.912E-01
RMM:   2    -0.413179898000E+03    0.33212E-02   -0.85994E-02  4260   0.768E-02    0.669E-01
RMM:   3    -0.413176895671E+03    0.30023E-02   -0.51663E-02  5073   0.783E-02    0.327E-01
RMM:   4    -0.413196502277E+03   -0.19607E-01   -0.31757E-02  5088   0.152E-01    0.649E-01
RMM:   5    -0.413172661745E+03    0.23841E-01   -0.11782E-02  4717   0.109E-01    0.455E-02
RMM:   6    -0.413172810226E+03   -0.14848E-03   -0.19469E-03  5677   0.425E-02    0.310E-02
RMM:   7    -0.413172812754E+03   -0.25283E-05   -0.32865E-04  5566   0.174E-02    0.210E-02
RMM:   8    -0.413172809303E+03    0.34511E-05   -0.47210E-05  4985   0.828E-03    0.824E-03
RMM:   9    -0.413172808451E+03    0.85207E-06   -0.94816E-06  3378   0.367E-03
   21 T=    62. E= -.41286700E+03 F= -.41317281E+03 E0= -.41315082E+03  EK= 0.30581E+00 SP= 0.00E+00 SK= 0.00E+00
       N       E                     dE             d eps       ncg     rms          rms(c)
RMM:   1    -0.413184073416E+03   -0.11264E-01   -0.63369E+00  4302   0.571E-01    0.929E-01
RMM:   2    -0.413180899268E+03    0.31741E-02   -0.82867E-02  4347   0.763E-02    0.671E-01
RMM:   3    -0.413187272115E+03   -0.63728E-02   -0.55867E-02  5149   0.119E-01    0.506E-01
RMM:   4    -0.413185143963E+03    0.21282E-02   -0.30092E-02  5022   0.153E-01    0.463E-01
RMM:   5    -0.413173887210E+03    0.11257E-01   -0.56929E-03  4485   0.788E-02    0.444E-02
RMM:   6    -0.413173905528E+03   -0.18318E-04   -0.84126E-04  5310   0.281E-02    0.292E-02
RMM:   7    -0.413173912149E+03   -0.66210E-05   -0.18076E-04  5199   0.138E-02    0.171E-02
RMM:   8    -0.413173909830E+03    0.23196E-05   -0.27674E-05  4505   0.706E-03    0.513E-03
RMM:   9    -0.413173907889E+03    0.19404E-05   -0.37847E-06  2707   0.249E-03    0.287E-03
RMM:  10    -0.413173905693E+03    0.21958E-05   -0.10212E-06  2474   0.158E-03    0.165E-03
RMM:  11    -0.413173903402E+03    0.22913E-05   -0.59021E-07  2093   0.113E-03    0.783E-04
RMM:  12    -0.413173899308E+03    0.40940E-05   -0.59170E-07  2244   0.107E-03    0.468E-04
RMM:  13    -0.413173895515E+03    0.37931E-05   -0.28056E-07  1506   0.794E-04    0.287E-04
RMM:  14    -0.413173892160E+03    0.33552E-05   -0.16676E-07  1195   0.685E-04    0.166E-04
RMM:  15    -0.413173886782E+03    0.53779E-05   -0.18152E-07  1275   0.706E-04    0.251E-04
RMM:  16    -0.413173880496E+03    0.62856E-05   -0.16915E-07  1204   0.670E-04    0.145E-04
RMM:  17    -0.413173879510E+03    0.98633E-06   -0.55276E-08   814   0.557E-04
   22 T=    62. E= -.41286708E+03 F= -.41317388E+03 E0= -.41315194E+03  EK= 0.30680E+00 SP= 0.00E+00 SK= 0.00E+00
       N       E                     dE             d eps       ncg     rms          rms(c)
RMM:   1    -0.413184837084E+03   -0.10957E-01   -0.63120E+00  4289   0.573E-01    0.929E-01
RMM:   2    -0.413181567806E+03    0.32693E-02   -0.83086E-02  4264   0.772E-02    0.667E-01
RMM:   3    -0.413178496178E+03    0.30716E-02   -0.48355E-02  5030   0.815E-02    0.300E-01
RMM:   4    -0.413197967713E+03   -0.19472E-01   -0.31304E-02  5087   0.151E-01    0.640E-01
RMM:   5    -0.413174499674E+03    0.23468E-01   -0.11063E-02  4714   0.107E-01    0.460E-02
RMM:   6    -0.413174632395E+03   -0.13272E-03   -0.19321E-03  5680   0.425E-02    0.326E-02
RMM:   7    -0.413174621031E+03    0.11363E-04   -0.33472E-04  5538   0.178E-02    0.221E-02
RMM:   8    -0.413174614044E+03    0.69879E-05   -0.47959E-05  5028   0.830E-03    0.883E-03
RMM:   9    -0.413174610656E+03    0.33871E-05   -0.97082E-06  3376   0.361E-03    0.525E-03
RMM:  10    -0.413174608093E+03    0.25636E-05   -0.16617E-06  2532   0.212E-03    0.314E-03
RMM:  11    -0.413174605697E+03    0.23955E-05   -0.90907E-07  2501   0.150E-03    0.166E-03
RMM:  12    -0.413174601040E+03    0.46571E-05   -0.11717E-06  2515   0.158E-03    0.876E-04
RMM:  13    -0.413174597743E+03    0.32976E-05   -0.46290E-07  2202   0.109E-03    0.604E-04
RMM:  14    -0.413174597254E+03    0.48907E-06   -0.19144E-07  1586   0.761E-04
   23 T=    63. E= -.41286682E+03 F= -.41317460E+03 E0= -.41315270E+03  EK= 0.30777E+00 SP= 0.00E+00 SK= 0.00E+00
       N       E                     dE             d eps       ncg     rms          rms(c)
RMM:   1    -0.413185966679E+03   -0.11369E-01   -0.63804E+00  4293   0.581E-01    0.916E-01
RMM:   2    -0.413183516477E+03    0.24502E-02   -0.83356E-02  4279   0.799E-02    0.669E-01
RMM:   3    -0.413180024848E+03    0.34916E-02   -0.51643E-02  5001   0.830E-02    0.315E-01
RMM:   4    -0.413199651443E+03   -0.19627E-01   -0.30060E-02  5088   0.148E-01    0.644E-01
RMM:   5    -0.413176095176E+03    0.23556E-01   -0.11677E-02  4732   0.109E-01    0.449E-02
RMM:   6    -0.413176224557E+03   -0.12938E-03   -0.19768E-03  5719   0.426E-02    0.312E-02
RMM:   7    -0.413176220736E+03    0.38213E-05   -0.33714E-04  5542   0.179E-02    0.215E-02
RMM:   8    -0.413176217337E+03    0.33991E-05   -0.49414E-05  4896   0.867E-03    0.875E-03
RMM:   9    -0.413176216200E+03    0.11370E-05   -0.10834E-05  3437   0.379E-03    0.545E-03
RMM:  10    -0.413176216408E+03   -0.20811E-06   -0.16982E-06  2538   0.214E-03
   24 T=    63. E= -.41286706E+03 F= -.41317622E+03 E0= -.41315437E+03  EK= 0.30916E+00 SP= 0.00E+00 SK= 0.00E+00
       N       E                     dE             d eps       ncg     rms          rms(c)
RMM:   1    -0.413187400987E+03   -0.11185E-01   -0.64317E+00  4301   0.587E-01    0.929E-01
RMM:   2    -0.413184571239E+03    0.28297E-02   -0.84135E-02  4313   0.811E-02    0.675E-01
RMM:   3    -0.413185577497E+03   -0.10063E-02   -0.53654E-02  5088   0.105E-01    0.416E-01
RMM:   4    -0.413193665980E+03   -0.80885E-02   -0.30036E-02  5046   0.151E-01    0.550E-01
RMM:   5    -0.413177224140E+03    0.16442E-01   -0.78705E-03  4616   0.909E-02    0.453E-02
RMM:   6    -0.413177288361E+03   -0.64221E-04   -0.13222E-03  5564   0.343E-02    0.299E-02
RMM:   7    -0.413177282312E+03    0.60488E-05   -0.24235E-04  5437   0.151E-02    0.193E-02
RMM:   8    -0.413177275875E+03    0.64370E-05   -0.34568E-05  4782   0.720E-03    0.647E-03
RMM:   9    -0.413177273852E+03    0.20230E-05   -0.56291E-06  2915   0.285E-03    0.364E-03
RMM:  10    -0.413177272295E+03    0.15567E-05   -0.12057E-06  2506   0.178E-03    0.220E-03
RMM:  11    -0.413177270546E+03    0.17492E-05   -0.66236E-07  2360   0.127E-03    0.111E-03
RMM:  12    -0.413177267095E+03    0.34507E-05   -0.70639E-07  2420   0.120E-03    0.596E-04
RMM:  13    -0.413177264613E+03    0.24824E-05   -0.29870E-07  1822   0.880E-04    0.407E-04
RMM:  14    -0.413177262391E+03    0.22223E-05   -0.15534E-07  1314   0.702E-04    0.219E-04
RMM:  15    -0.413177257495E+03    0.48952E-05   -0.16943E-07  1435   0.726E-04    0.267E-04
RMM:  16    -0.413177251225E+03    0.62702E-05   -0.15855E-07  1183   0.665E-04    0.190E-04
RMM:  17    -0.413177249490E+03    0.17353E-05   -0.61004E-08   933   0.577E-04    0.132E-04
RMM:  18    -0.413177246610E+03    0.28796E-05   -0.50408E-08   967   0.582E-04    0.463E-05
RMM:  19    -0.413177245621E+03    0.98895E-06   -0.25743E-08   803   0.551E-04
   25 T=    63. E= -.41286682E+03 F= -.41317725E+03 E0= -.41315545E+03  EK= 0.31043E+00 SP= 0.00E+00 SK= 0.00E+00
       N       E                     dE             d eps       ncg     rms          rms(c)
RMM:   1    -0.413189145784E+03   -0.11899E-01   -0.64085E+00  4287   0.588E-01    0.939E-01
RMM:   2    -0.413185615776E+03    0.35300E-02   -0.84650E-02  4281   0.798E-02    0.673E-01
RMM:   3    -0.413182217797E+03    0.33980E-02   -0.48109E-02  5006   0.839E-02    0.289E-01
RMM:   4    -0.413203226188E+03   -0.21008E-01   -0.31796E-02  5086   0.152E-01    0.655E-01
RMM:   5    -0.413178530333E+03    0.24696E-01   -0.11617E-02  4727   0.110E-01    0.464E-02
RMM:   6    -0.413178666468E+03   -0.13614E-03   -0.20532E-03  5723   0.437E-02    0.330E-02
RMM:   7    -0.413178658553E+03    0.79148E-05   -0.34681E-04  5543   0.182E-02    0.226E-02
RMM:   8    -0.413178650749E+03    0.78045E-05   -0.50751E-05  4995   0.865E-03    0.938E-03
RMM:   9    -0.413178646470E+03    0.42792E-05   -0.10633E-05  3490   0.384E-03    0.562E-03
RMM:  10    -0.413178643174E+03    0.32954E-05   -0.18105E-06  2548   0.221E-03    0.334E-03
RMM:  11    -0.413178640299E+03    0.28756E-05   -0.96309E-07  2498   0.155E-03    0.179E-03
RMM:  12    -0.413178634870E+03    0.54283E-05   -0.12940E-06  2524   0.166E-03    0.935E-04
RMM:  13    -0.413178631304E+03    0.35662E-05   -0.49909E-07  2255   0.113E-03    0.664E-04
RMM:  14    -0.413178630792E+03    0.51165E-06   -0.20342E-07  1641   0.778E-04
   26 T=    63. E= -.41286684E+03 F= -.41317863E+03 E0= -.41315688E+03  EK= 0.31179E+00 SP= 0.00E+00 SK= 0.00E+00
       N       E                     dE             d eps       ncg     rms          rms(c)
RMM:   1    -0.413191062130E+03   -0.12431E-01   -0.64484E+00  4293   0.607E-01    0.920E-01
RMM:   2    -0.413187657813E+03    0.34043E-02   -0.84475E-02  4275   0.830E-02    0.671E-01
RMM:   3    -0.413183716570E+03    0.39412E-02   -0.50379E-02  4993   0.800E-02    0.296E-01
RMM:   4    -0.413204873953E+03   -0.21157E-01   -0.30213E-02  5099   0.149E-01    0.655E-01
RMM:   5    -0.413180301713E+03    0.24572E-01   -0.11962E-02  4742   0.110E-01    0.452E-02
RMM:   6    -0.413180450063E+03   -0.14835E-03   -0.20577E-03  5769   0.435E-02    0.314E-02
RMM:   7    -0.413180448590E+03    0.14734E-05   -0.33521E-04  5562   0.181E-02    0.218E-02
RMM:   8    -0.413180442571E+03    0.60188E-05   -0.51891E-05  4909   0.863E-03    0.940E-03
RMM:   9    -0.413180441056E+03    0.15153E-05   -0.10724E-05  3513   0.392E-03    0.585E-03
RMM:  10    -0.413180440028E+03    0.10282E-05   -0.18463E-06  2550   0.222E-03    0.348E-03
RMM:  11    -0.413180438466E+03    0.15615E-05   -0.10661E-06  2500   0.164E-03    0.178E-03
RMM:  12    -0.413180435451E+03    0.30149E-05   -0.12565E-06  2508   0.166E-03    0.100E-03
RMM:  13    -0.413180433467E+03    0.19841E-05   -0.41142E-07  2219   0.110E-03    0.624E-04
RMM:  14    -0.413180432789E+03    0.67788E-06   -0.18386E-07  1567   0.761E-04
   27 T=    64. E= -.41286712E+03 F= -.41318043E+03 E0= -.41315873E+03  EK= 0.31331E+00 SP= 0.00E+00 SK= 0.00E+00
       N       E                     dE             d eps       ncg     rms          rms(c)
RMM:   1    -0.413192346993E+03   -0.11914E-01   -0.65451E+00  4292   0.614E-01    0.929E-01
RMM:   2    -0.413188920899E+03    0.34261E-02   -0.89172E-02  4277   0.863E-02    0.680E-01
RMM:   3    -0.413184518281E+03    0.44026E-02   -0.50772E-02  5007   0.756E-02    0.290E-01
RMM:   4    -0.413207225293E+03   -0.22707E-01   -0.30974E-02  5110   0.150E-01    0.669E-01
RMM:   5    -0.413181446226E+03    0.25779E-01   -0.12574E-02  4746   0.113E-01    0.455E-02
RMM:   6    -0.413181595956E+03   -0.14973E-03   -0.21834E-03  5793   0.447E-02    0.315E-02
RMM:   7    -0.413181597025E+03   -0.10694E-05   -0.34256E-04  5561   0.182E-02    0.218E-02
RMM:   8    -0.413181591928E+03    0.50967E-05   -0.53546E-05  4926   0.876E-03    0.964E-03
RMM:   9    -0.413181589766E+03    0.21624E-05   -0.10915E-05  3575   0.400E-03    0.607E-03
RMM:  10    -0.413181589378E+03    0.38783E-06   -0.19818E-06  2567   0.226E-03
   28 T=    64. E= -.41286687E+03 F= -.41318159E+03 E0= -.41315994E+03  EK= 0.31472E+00 SP= 0.00E+00 SK= 0.00E+00
       N       E                     dE             d eps       ncg     rms          rms(c)
RMM:   1    -0.413194295640E+03   -0.12706E-01   -0.65167E+00  4295   0.608E-01    0.946E-01
RMM:   2    -0.413190858252E+03    0.34374E-02   -0.86411E-02  4321   0.857E-02    0.679E-01
RMM:   3    -0.413191784053E+03   -0.92580E-03   -0.51113E-02  5110   0.102E-01    0.401E-01
RMM:   4    -0.413200771073E+03   -0.89870E-02   -0.31467E-02  5041   0.154E-01    0.554E-01
RMM:   5    -0.413183615001E+03    0.17156E-01   -0.76465E-03  4626   0.928E-02    0.464E-02
RMM:   6    -0.413183668427E+03   -0.53426E-04   -0.14025E-03  5595   0.357E-02    0.314E-02
RMM:   7    -0.413183664815E+03    0.36121E-05   -0.25722E-04  5391   0.163E-02    0.203E-02
RMM:   8    -0.413183662602E+03    0.22134E-05   -0.37937E-05  4804   0.805E-03    0.714E-03
RMM:   9    -0.413183658606E+03    0.39956E-05   -0.70022E-06  3022   0.321E-03    0.388E-03
RMM:  10    -0.413183654003E+03    0.46033E-05   -0.14583E-06  2532   0.195E-03    0.236E-03
RMM:  11    -0.413183649742E+03    0.42605E-05   -0.78771E-07  2435   0.138E-03    0.121E-03
RMM:  12    -0.413183642520E+03    0.72227E-05   -0.82241E-07  2458   0.130E-03    0.613E-04
RMM:  13    -0.413183638442E+03    0.40772E-05   -0.35817E-07  1927   0.934E-04    0.433E-04
RMM:  14    -0.413183635239E+03    0.32039E-05   -0.18198E-07  1403   0.728E-04    0.247E-04
RMM:  15    -0.413183627904E+03    0.73349E-05   -0.19347E-07  1531   0.743E-04    0.294E-04
RMM:  16    -0.413183619953E+03    0.79504E-05   -0.14418E-07  1181   0.659E-04    0.201E-04
RMM:  17    -0.413183617183E+03    0.27702E-05   -0.71125E-08   997   0.589E-04    0.141E-04
RMM:  18    -0.413183613790E+03    0.33934E-05   -0.60303E-08  1108   0.601E-04    0.518E-05
RMM:  19    -0.413183612846E+03    0.94394E-06   -0.28453E-08   821   0.545E-04
   29 T=    64. E= -.41286708E+03 F= -.41318361E+03 E0= -.41316201E+03  EK= 0.31653E+00 SP= 0.00E+00 SK= 0.00E+00
       N       E                     dE             d eps       ncg     rms          rms(c)
RMM:   1    -0.413195560221E+03   -0.11946E-01   -0.65245E+00  4295   0.619E-01    0.928E-01
RMM:   2    -0.413192963968E+03    0.25963E-02   -0.86207E-02  4265   0.905E-02    0.675E-01
RMM:   3    -0.413188634703E+03    0.43293E-02   -0.49560E-02  4992   0.794E-02    0.285E-01
RMM:   4    -0.413211043315E+03   -0.22409E-01   -0.31323E-02  5096   0.151E-01    0.667E-01
RMM:   5    -0.413185374874E+03    0.25668E-01   -0.12462E-02  4740   0.113E-01    0.457E-02
RMM:   6    -0.413185527663E+03   -0.15279E-03   -0.21910E-03  5808   0.446E-02    0.320E-02
RMM:   7    -0.413185538048E+03   -0.10385E-04   -0.33893E-04  5548   0.183E-02    0.222E-02
RMM:   8    -0.413185535757E+03    0.22913E-05   -0.55878E-05  4905   0.913E-03    0.100E-02
RMM:   9    -0.413185532949E+03    0.28080E-05   -0.12115E-05  3594   0.416E-03    0.621E-03
RMM:  10    -0.413185531567E+03    0.13823E-05   -0.21095E-06  2580   0.237E-03    0.366E-03
RMM:  11    -0.413185529845E+03    0.17221E-05   -0.11468E-06  2504   0.171E-03    0.187E-03
RMM:  12    -0.413185526804E+03    0.30404E-05   -0.13564E-06  2523   0.174E-03    0.103E-03
RMM:  13    -0.413185524943E+03    0.18613E-05   -0.44001E-07  2261   0.114E-03    0.655E-04
RMM:  14    -0.413185524232E+03    0.71052E-06   -0.19983E-07  1644   0.783E-04
   30 T=    65. E= -.41286713E+03 F= -.41318552E+03 E0= -.41316398E+03  EK= 0.31839E+00 SP= 0.00E+00 SK= 0.00E+00
       N       E                     dE             d eps       ncg     rms          rms(c)
RMM:   1    -0.413197550046E+03   -0.12025E-01   -0.66592E+00  4299   0.632E-01    0.933E-01
RMM:   2    -0.413195070435E+03    0.24796E-02   -0.89713E-02  4267   0.959E-02    0.685E-01
RMM:   3    -0.413189916116E+03    0.51543E-02   -0.52036E-02  4926   0.823E-02    0.287E-01
RMM:   4    -0.413212100543E+03   -0.22184E-01   -0.29261E-02  5115   0.146E-01    0.661E-01
RMM:   5    -0.413186951277E+03    0.25149E-01   -0.12407E-02  4766   0.111E-01    0.447E-02
RMM:   6    -0.413187107326E+03   -0.15605E-03   -0.21244E-03  5828   0.438E-02    0.307E-02
RMM:   7    -0.413187117782E+03   -0.10456E-04   -0.31678E-04  5581   0.177E-02    0.209E-02
RMM:   8    -0.413187115806E+03    0.19756E-05   -0.56903E-05  4915   0.870E-03    0.980E-03
RMM:   9    -0.413187113821E+03    0.19858E-05   -0.11290E-05  3665   0.408E-03    0.625E-03
RMM:  10    -0.413187113664E+03    0.15688E-06   -0.19922E-06  2562   0.232E-03
   31 T=    65. E= -.41286689E+03 F= -.41318711E+03 E0= -.41316561E+03  EK= 0.32023E+00 SP= 0.00E+00 SK= 0.00E+00
       N       E                     dE             d eps       ncg     rms          rms(c)
RMM:   1    -0.413202467410E+03   -0.15354E-01   -0.66622E+00  4298   0.664E-01    0.950E-01
RMM:   2    -0.413197353406E+03    0.51140E-02   -0.94723E-02  4293   0.104E-01    0.686E-01
RMM:   3    -0.413195992051E+03    0.13614E-02   -0.49282E-02  5043   0.104E-01    0.356E-01
RMM:   4    -0.413212325498E+03   -0.16333E-01   -0.35006E-02  5055   0.161E-01    0.631E-01
RMM:   5    -0.413189565763E+03    0.22760E-01   -0.10082E-02  4677   0.105E-01    0.483E-02
RMM:   6    -0.413189675831E+03   -0.11007E-03   -0.18804E-03  5679   0.412E-02    0.325E-02
RMM:   7    -0.413189682217E+03   -0.63854E-05   -0.31668E-04  5519   0.175E-02    0.219E-02
RMM:   8    -0.413189679536E+03    0.26807E-05   -0.47576E-05  4980   0.841E-03    0.842E-03
RMM:   9    -0.413189674756E+03    0.47797E-05   -0.92031E-06  3225   0.362E-03    0.458E-03
RMM:  10    -0.413189670240E+03    0.45167E-05   -0.17366E-06  2553   0.214E-03    0.283E-03
RMM:  11    -0.413189665848E+03    0.43919E-05   -0.89676E-07  2485   0.151E-03    0.148E-03
RMM:  12    -0.413189658449E+03    0.73984E-05   -0.90777E-07  2478   0.143E-03    0.693E-04
RMM:  13    -0.413189654724E+03    0.37251E-05   -0.38998E-07  2096   0.102E-03    0.504E-04
RMM:  14    -0.413189652110E+03    0.26148E-05   -0.19401E-07  1583   0.767E-04    0.306E-04
RMM:  15    -0.413189644770E+03    0.73397E-05   -0.18674E-07  1647   0.764E-04    0.321E-04
RMM:  16    -0.413189637914E+03    0.68561E-05   -0.12066E-07  1216   0.645E-04    0.259E-04
RMM:  17    -0.413189633012E+03    0.49021E-05   -0.81244E-08  1064   0.605E-04    0.175E-04
RMM:  18    -0.413189629715E+03    0.32965E-05   -0.63187E-08  1124   0.602E-04    0.495E-05
RMM:  19    -0.413189628184E+03    0.15313E-05   -0.34806E-08   927   0.560E-04    0.612E-05
RMM:  20    -0.413189627955E+03    0.22915E-06   -0.15658E-08   716   0.523E-04
   32 T=    66. E= -.41286716E+03 F= -.41318963E+03 E0= -.41316818E+03  EK= 0.32247E+00 SP= 0.00E+00 SK= 0.00E+00
       N       E                     dE             d eps       ncg     rms          rms(c)
RMM:   1    -0.413202197351E+03   -0.12569E-01   -0.66441E+00  4301   0.662E-01    0.940E-01
RMM:   2    -0.413199038366E+03    0.31590E-02   -0.90360E-02  4266   0.102E-01    0.681E-01
RMM:   3    -0.413193541153E+03    0.54972E-02   -0.48397E-02  4813   0.850E-02    0.241E-01
RMM:   4    -0.413215630273E+03   -0.22089E-01   -0.26743E-02  5118   0.140E-01    0.648E-01
RMM:   5    -0.413191260167E+03    0.24370E-01   -0.11907E-02  4771   0.109E-01    0.444E-02
RMM:   6    -0.413191422169E+03   -0.16200E-03   -0.20839E-03  5819   0.431E-02    0.309E-02
RMM:   7    -0.413191444275E+03   -0.22106E-04   -0.26361E-04  5568   0.171E-02    0.187E-02
RMM:   8    -0.413191444768E+03   -0.49362E-06   -0.58446E-05  4965   0.842E-03    0.105E-02
RMM:   9    -0.413191439919E+03    0.48494E-05   -0.12351E-05  3877   0.421E-03    0.677E-03
RMM:  10    -0.413191437869E+03    0.20503E-05   -0.21922E-06  2589   0.248E-03    0.396E-03
RMM:  11    -0.413191435211E+03    0.26576E-05   -0.14040E-06  2522   0.188E-03    0.204E-03
RMM:  12    -0.413191430868E+03    0.43427E-05   -0.14508E-06  2517   0.186E-03    0.116E-03
RMM:  13    -0.413191428815E+03    0.20530E-05   -0.45352E-07  2292   0.118E-03    0.709E-04
RMM:  14    -0.413191427912E+03    0.90308E-06   -0.20712E-07  1726   0.797E-04
   33 T=    66. E= -.41286688E+03 F= -.41319143E+03 E0= -.41317003E+03  EK= 0.32455E+00 SP= 0.00E+00 SK= 0.00E+00
       N       E                     dE             d eps       ncg     rms          rms(c)
RMM:   1    -0.413205084191E+03   -0.13655E-01   -0.67894E+00  4307   0.675E-01    0.937E-01
RMM:   2    -0.413201489021E+03    0.35952E-02   -0.95203E-02  4263   0.106E-01    0.690E-01
RMM:   3    -0.413195534857E+03    0.59542E-02   -0.50958E-02  4655   0.841E-02    0.246E-01
RMM:   4    -0.413209183074E+03   -0.13648E-01   -0.16977E-02  5123   0.112E-01    0.520E-01
RMM:   5    -0.413193675865E+03    0.15507E-01   -0.76722E-03  4792   0.866E-02    0.400E-02
RMM:   6    -0.413193778050E+03   -0.10218E-03   -0.13482E-03  5816   0.345E-02    0.270E-02
RMM:   7    -0.413193793960E+03   -0.15911E-04   -0.15428E-04  5414   0.141E-02    0.140E-02
RMM:   8    -0.413193790663E+03    0.32972E-05   -0.28316E-05  4545   0.575E-03    0.744E-03
RMM:   9    -0.413193792109E+03   -0.14457E-05   -0.85513E-06  3506   0.338E-03    0.575E-03
RMM:  10    -0.413193790668E+03    0.14408E-05   -0.14706E-06  2519   0.216E-03    0.327E-03
RMM:  11    -0.413193789471E+03    0.11971E-05   -0.14118E-06  2514   0.180E-03    0.163E-03
RMM:  12    -0.413193787258E+03    0.22131E-05   -0.10789E-06  2451   0.157E-03    0.113E-03
RMM:  13    -0.413193786008E+03    0.12498E-05   -0.31132E-07  2101   0.987E-04    0.587E-04
RMM:  14    -0.413193784933E+03    0.10748E-05   -0.14314E-07  1385   0.706E-04    0.395E-04
RMM:  15    -0.413193779781E+03    0.51521E-05   -0.24568E-07  2132   0.843E-04    0.576E-04
RMM:  16    -0.413193777717E+03    0.20640E-05   -0.67290E-08  1030   0.584E-04    0.414E-04
RMM:  17    -0.413193773732E+03    0.39854E-05   -0.61124E-08   905   0.573E-04    0.254E-04
RMM:  18    -0.413193770292E+03    0.34402E-05   -0.57174E-08  1069   0.601E-04    0.494E-05
RMM:  19    -0.413193768263E+03    0.20288E-05   -0.34582E-08   997   0.575E-04    0.145E-04
RMM:  20    -0.413193767779E+03    0.48413E-06   -0.14296E-08   726   0.522E-04
   34 T=    67. E= -.41286693E+03 F= -.41319377E+03 E0= -.41317241E+03  EK= 0.32683E+00 SP= 0.00E+00 SK= 0.00E+00
       N       E                     dE             d eps       ncg     rms          rms(c)
RMM:   1    -0.413207781959E+03   -0.14014E-01   -0.67932E+00  4303   0.686E-01    0.959E-01
RMM:   2    -0.413203711470E+03    0.40705E-02   -0.92039E-02  4266   0.116E-01    0.692E-01
RMM:   3    -0.413197911075E+03    0.58004E-02   -0.48821E-02  4586   0.897E-02    0.215E-01
RMM:   4    -0.413210128411E+03   -0.12217E-01   -0.14671E-02  5126   0.105E-01    0.489E-01
RMM:   5    -0.413196426497E+03    0.13702E-01   -0.67768E-03  4794   0.811E-02    0.402E-02
RMM:   6    -0.413196514500E+03   -0.88003E-04   -0.12534E-03  5802   0.330E-02    0.283E-02
RMM:   7    -0.413196535017E+03   -0.20517E-04   -0.21516E-04  5401   0.158E-02    0.185E-02
RMM:   8    -0.413196521710E+03    0.13307E-04   -0.35124E-05  4722   0.703E-03    0.840E-03
RMM:   9    -0.413196520886E+03    0.82474E-06   -0.76239E-06  3260   0.347E-03
   35 T=    67. E= -.41286725E+03 F= -.41319652E+03 E0= -.41317521E+03  EK= 0.32927E+00 SP= 0.00E+00 SK= 0.00E+00
       N       E                     dE             d eps       ncg     rms          rms(c)
RMM:   1    -0.413209424663E+03   -0.12903E-01   -0.67863E+00  4304   0.708E-01    0.956E-01
RMM:   2    -0.413205727034E+03    0.36976E-02   -0.92902E-02  4283   0.119E-01    0.689E-01
RMM:   3    -0.413202747733E+03    0.29793E-02   -0.49560E-02  4935   0.110E-01    0.302E-01
RMM:   4    -0.413225283600E+03   -0.22536E-01   -0.34541E-02  5084   0.159E-01    0.681E-01
RMM:   5    -0.413198452388E+03    0.26831E-01   -0.12484E-02  4733   0.114E-01    0.476E-02
RMM:   6    -0.413198597102E+03   -0.14471E-03   -0.23104E-03  5796   0.447E-02    0.330E-02
RMM:   7    -0.413198607258E+03   -0.10156E-04   -0.30550E-04  5571   0.177E-02    0.214E-02
RMM:   8    -0.413198604933E+03    0.23254E-05   -0.69448E-05  5029   0.930E-03    0.112E-02
RMM:   9    -0.413198597660E+03    0.72723E-05   -0.12929E-05  3846   0.448E-03    0.605E-03
RMM:  10    -0.413198592413E+03    0.52475E-05   -0.24755E-06  2648   0.254E-03    0.357E-03
RMM:  11    -0.413198587898E+03    0.45146E-05   -0.11275E-06  2508   0.172E-03    0.198E-03
RMM:  12    -0.413198578765E+03    0.91333E-05   -0.13862E-06  2506   0.184E-03    0.108E-03
RMM:  13    -0.413198573804E+03    0.49613E-05   -0.51478E-07  2321   0.123E-03    0.754E-04
RMM:  14    -0.413198572256E+03    0.15483E-05   -0.22723E-07  1806   0.832E-04    0.466E-04
RMM:  15    -0.413198565938E+03    0.63172E-05   -0.18246E-07  1764   0.785E-04    0.341E-04
RMM:  16    -0.413198557675E+03    0.82636E-05   -0.15951E-07  1672   0.726E-04    0.519E-04
RMM:  17    -0.413198552716E+03    0.49585E-05   -0.74371E-08  1041   0.581E-04    0.437E-04
RMM:  18    -0.413198547698E+03    0.50180E-05   -0.64277E-08  1044   0.587E-04    0.153E-04
RMM:  19    -0.413198545224E+03    0.24743E-05   -0.59046E-08  1258   0.619E-04    0.209E-04
RMM:  20    -0.413198545155E+03    0.69493E-07   -0.18038E-08   713   0.511E-04
   36 T=    68. E= -.41286695E+03 F= -.41319855E+03 E0= -.41317728E+03  EK= 0.33160E+00 SP= 0.00E+00 SK= 0.00E+00
       N       E                     dE             d eps       ncg     rms          rms(c)
RMM:   1    -0.413212368251E+03   -0.13823E-01   -0.69061E+00  4311   0.728E-01    0.946E-01
RMM:   2    -0.413209223258E+03    0.31450E-02   -0.96279E-02  4257   0.123E-01    0.695E-01
RMM:   3    -0.413202961649E+03    0.62616E-02   -0.51580E-02  4343   0.961E-02    0.227E-01
RMM:   4    -0.413202244479E+03    0.71717E-03   -0.27385E-03  4957   0.377E-02    0.106E-01
RMM:   5    -0.413201708178E+03    0.53630E-03   -0.36238E-04  4720   0.192E-02    0.377E-02
RMM:   6    -0.413201740556E+03   -0.32378E-04   -0.36132E-04  5272   0.184E-02    0.307E-02
RMM:   7    -0.413201741597E+03   -0.10413E-05   -0.16214E-04  4792   0.142E-02    0.202E-02
RMM:   8    -0.413201733812E+03    0.77849E-05   -0.30291E-05  4433   0.540E-03    0.543E-03
RMM:   9    -0.413201734619E+03   -0.80664E-06   -0.61168E-06  2487   0.231E-03
   37 T=    68. E= -.41286730E+03 F= -.41320173E+03 E0= -.41318052E+03  EK= 0.33443E+00 SP= 0.00E+00 SK= 0.00E+00
       N       E                     dE             d eps       ncg     rms          rms(c)
RMM:   1    -0.413215904187E+03   -0.14170E-01   -0.69731E+00  4309   0.752E-01    0.964E-01
RMM:   2    -0.413212133118E+03    0.37711E-02   -0.96657E-02  4260   0.117E-01    0.701E-01
RMM:   3    -0.413205494885E+03    0.66382E-02   -0.50102E-02  4378   0.877E-02    0.209E-01
RMM:   4    -0.413204384992E+03    0.11099E-02   -0.18925E-03  4587   0.291E-02    0.423E-02
RMM:   5    -0.413204496630E+03   -0.11164E-03   -0.32352E-04  5008   0.155E-02    0.561E-02
RMM:   6    -0.413204426295E+03    0.70335E-04   -0.24593E-04  5173   0.149E-02    0.378E-02
RMM:   7    -0.413204404216E+03    0.22079E-04   -0.18841E-04  4897   0.152E-02    0.232E-02
RMM:   8    -0.413204392144E+03    0.12072E-04   -0.31057E-05  4436   0.572E-03    0.754E-03
RMM:   9    -0.413204391525E+03    0.61903E-06   -0.12510E-05  2450   0.246E-03    0.392E-03
RMM:  10    -0.413204386363E+03    0.51617E-05   -0.16636E-06  2339   0.154E-03    0.155E-03
RMM:  11    -0.413204382390E+03    0.39727E-05   -0.60636E-07  1647   0.907E-04    0.521E-04
RMM:  12    -0.413204378266E+03    0.41240E-05   -0.17451E-07  1226   0.701E-04    0.350E-04
RMM:  13    -0.413204372264E+03    0.60025E-05   -0.15534E-07  1216   0.679E-04    0.278E-04
RMM:  14    -0.413204365240E+03    0.70239E-05   -0.13365E-07  1097   0.636E-04    0.173E-04
RMM:  15    -0.413204357890E+03    0.73503E-05   -0.85181E-08   992   0.605E-04    0.117E-04
RMM:  16    -0.413204352888E+03    0.50014E-05   -0.53289E-08   959   0.575E-04    0.714E-05
RMM:  17    -0.413204351684E+03    0.12039E-05   -0.16811E-08   602   0.490E-04    0.499E-05
RMM:  18    -0.413204349460E+03    0.22240E-05   -0.18514E-08   709   0.513E-04    0.219E-05
RMM:  19    -0.413204349064E+03    0.39671E-06   -0.48862E-09   476   0.461E-04
   38 T=    69. E= -.41286713E+03 F= -.41320435E+03 E0= -.41318317E+03  EK= 0.33722E+00 SP= 0.00E+00 SK= 0.00E+00
       N       E                     dE             d eps       ncg     rms          rms(c)
RMM:   1    -0.413219355911E+03   -0.15006E-01   -0.69776E+00  4306   0.795E-01    0.973E-01
RMM:   2    -0.413214737886E+03    0.46180E-02   -0.97595E-02  4255   0.114E-01    0.699E-01
RMM:   3    -0.413208397288E+03    0.63406E-02   -0.47901E-02  4660   0.828E-02    0.196E-01
RMM:   4    -0.413222449738E+03   -0.14052E-01   -0.16498E-02  5132   0.110E-01    0.520E-01
RMM:   5    -0.413207105622E+03    0.15344E-01   -0.76248E-03  4795   0.865E-02    0.429E-02
RMM:   6    -0.413207129080E+03   -0.23458E-04   -0.13569E-03  5741   0.361E-02    0.318E-02
RMM:   7    -0.413207149331E+03   -0.20251E-04   -0.29791E-04  5438   0.173E-02    0.212E-02
RMM:   8    -0.413207136527E+03    0.12805E-04   -0.45968E-05  5038   0.782E-03    0.950E-03
RMM:   9    -0.413207135094E+03    0.14326E-05   -0.89224E-06  3236   0.357E-03    0.504E-03
RMM:  10    -0.413207131960E+03    0.31345E-05   -0.16851E-06  2531   0.215E-03    0.274E-03
RMM:  11    -0.413207128030E+03    0.39296E-05   -0.10804E-06  2493   0.164E-03    0.137E-03
RMM:  12    -0.413207123287E+03    0.47428E-05   -0.72233E-07  2409   0.135E-03    0.844E-04
RMM:  13    -0.413207120648E+03    0.26395E-05   -0.28961E-07  2019   0.934E-04    0.441E-04
RMM:  14    -0.413207118332E+03    0.23157E-05   -0.14868E-07  1368   0.718E-04    0.243E-04
RMM:  15    -0.413207112604E+03    0.57278E-05   -0.11956E-07  1314   0.701E-04    0.159E-04
RMM:  16    -0.413207108325E+03    0.42793E-05   -0.74960E-08  1072   0.636E-04    0.140E-04
RMM:  17    -0.413207103870E+03    0.44554E-05   -0.61150E-08  1101   0.621E-04    0.104E-04
RMM:  18    -0.413207099313E+03    0.45566E-05   -0.54189E-08  1176   0.614E-04    0.471E-05
RMM:  19    -0.413207098240E+03    0.10727E-05   -0.23994E-08   804   0.541E-04    0.231E-05
RMM:  20    -0.413207097699E+03    0.54161E-06   -0.16403E-08   731   0.528E-04
   39 T=    69. E= -.41286698E+03 F= -.41320710E+03 E0= -.41318596E+03  EK= 0.34012E+00 SP= 0.00E+00 SK= 0.00E+00
       N       E                     dE             d eps       ncg     rms          rms(c)
RMM:   1    -0.413222530713E+03   -0.15432E-01   -0.70616E+00  4306   0.821E-01    0.957E-01
RMM:   2    -0.413218415315E+03    0.41154E-02   -0.99764E-02  4255   0.114E-01    0.701E-01
RMM:   3    -0.413212321923E+03    0.60934E-02   -0.50805E-02  4759   0.882E-02    0.238E-01
RMM:   4    -0.413233209898E+03   -0.20888E-01   -0.25068E-02  5115   0.135E-01    0.630E-01
RMM:   5    -0.413210376496E+03    0.22833E-01   -0.11149E-02  4790   0.105E-01    0.453E-02
RMM:   6    -0.413210420095E+03   -0.43599E-04   -0.19363E-03  5783   0.418E-02    0.307E-02
RMM:   7    -0.413210447478E+03   -0.27382E-04   -0.31343E-04  5580   0.171E-02    0.205E-02
RMM:   8    -0.413210438174E+03    0.93034E-05   -0.58373E-05  5064   0.825E-03    0.102E-02
RMM:   9    -0.413210438850E+03   -0.67529E-06   -0.12004E-05  3817   0.422E-03    0.580E-03
RMM:  10    -0.413210438117E+03    0.73294E-06   -0.21279E-06  2595   0.232E-03
   40 T=    70. E= -.41286726E+03 F= -.41321044E+03 E0= -.41318933E+03  EK= 0.34318E+00 SP= 0.00E+00 SK= 0.00E+00
       N       E                     dE             d eps       ncg     rms          rms(c)
RMM:   1    -0.413225375748E+03   -0.14937E-01   -0.71761E+00  4315   0.851E-01    0.969E-01
RMM:   2    -0.413220954700E+03    0.44210E-02   -0.10513E-01  4270   0.117E-01    0.711E-01
RMM:   3    -0.413218214932E+03    0.27398E-02   -0.52657E-02  5025   0.105E-01    0.338E-01
RMM:   4    -0.413241877951E+03   -0.23663E-01   -0.40317E-02  5068   0.172E-01    0.713E-01
RMM:   5    -0.413212697056E+03    0.29181E-01   -0.13163E-02  4715   0.119E-01    0.503E-02
RMM:   6    -0.413212757196E+03   -0.60139E-04   -0.23711E-03  5760   0.457E-02    0.317E-02
RMM:   7    -0.413212772036E+03   -0.14840E-04   -0.32403E-04  5586   0.176E-02    0.213E-02
RMM:   8    -0.413212773663E+03   -0.16269E-05   -0.80763E-05  5108   0.951E-03    0.115E-02
RMM:   9    -0.413212768393E+03    0.52701E-05   -0.14125E-05  3987   0.473E-03    0.551E-03
RMM:  10    -0.413212765653E+03    0.27395E-05   -0.27074E-06  2682   0.247E-03    0.316E-03
RMM:  11    -0.413212763104E+03    0.25496E-05   -0.11386E-06  2508   0.169E-03    0.176E-03
RMM:  12    -0.413212757161E+03    0.59427E-05   -0.12588E-06  2507   0.167E-03    0.947E-04
RMM:  13    -0.413212752866E+03    0.42950E-05   -0.48696E-07  2277   0.115E-03    0.591E-04
RMM:  14    -0.413212751408E+03    0.14582E-05   -0.21453E-07  1681   0.795E-04    0.340E-04
RMM:  15    -0.413212744733E+03    0.66744E-05   -0.18776E-07  1567   0.772E-04    0.304E-04
RMM:  16    -0.413212739297E+03    0.54363E-05   -0.12222E-07  1321   0.677E-04    0.318E-04
RMM:  17    -0.413212735725E+03    0.35718E-05   -0.71683E-08  1066   0.599E-04    0.217E-04
RMM:  18    -0.413212730905E+03    0.48205E-05   -0.71080E-08  1265   0.622E-04    0.113E-04
RMM:  19    -0.413212729285E+03    0.16199E-05   -0.37362E-08   938   0.554E-04    0.449E-05
RMM:  20    -0.413212728214E+03    0.10708E-05   -0.25211E-08   868   0.541E-04    0.628E-05
RMM:  21    -0.413212727871E+03    0.34289E-06   -0.13800E-08   718   0.513E-04
   41 T=    70. E= -.41286698E+03 F= -.41321273E+03 E0= -.41319166E+03  EK= 0.34575E+00 SP= 0.00E+00 SK= 0.00E+00
       N       E                     dE             d eps       ncg     rms          rms(c)
RMM:   1    -0.413230033795E+03   -0.17306E-01   -0.71755E+00  4315   0.923E-01    0.986E-01
RMM:   2    -0.413223407151E+03    0.66266E-02   -0.10568E-01  4291   0.124E-01    0.709E-01
RMM:   3    -0.413218059913E+03    0.53472E-02   -0.47413E-02  4939   0.885E-02    0.236E-01
RMM:   4    -0.413248536021E+03   -0.30476E-01   -0.38366E-02  5110   0.166E-01    0.753E-01
RMM:   5    -0.413215423317E+03    0.33113E-01   -0.15607E-02  4776   0.126E-01    0.508E-02
RMM:   6    -0.413215501725E+03   -0.78408E-04   -0.26639E-03  5785   0.484E-02    0.321E-02
RMM:   7    -0.413215527356E+03   -0.25632E-04   -0.32190E-04  5688   0.169E-02    0.187E-02
RMM:   8    -0.413215524903E+03    0.24530E-05   -0.46478E-05  4873   0.715E-03    0.916E-03
RMM:   9    -0.413215525937E+03   -0.10340E-05   -0.19033E-05  4394   0.462E-03    0.689E-03
RMM:  10    -0.413215520776E+03    0.51617E-05   -0.33262E-06  2732   0.277E-03    0.369E-03
RMM:  11    -0.413215518016E+03    0.27595E-05   -0.13781E-06  2496   0.190E-03    0.218E-03
RMM:  12    -0.413215511218E+03    0.67981E-05   -0.14496E-06  2493   0.192E-03    0.117E-03
RMM:  13    -0.413215507528E+03    0.36905E-05   -0.52576E-07  2368   0.129E-03    0.755E-04
RMM:  14    -0.413215506504E+03    0.10237E-05   -0.22098E-07  1831   0.845E-04    0.445E-04
RMM:  15    -0.413215502197E+03    0.43071E-05   -0.13077E-07  1547   0.734E-04    0.223E-04
RMM:  16    -0.413215497162E+03    0.50352E-05   -0.91887E-08  1375   0.666E-04    0.342E-04
RMM:  17    -0.413215494788E+03    0.23737E-05   -0.43310E-08   927   0.565E-04    0.272E-04
RMM:  18    -0.413215488226E+03    0.65623E-05   -0.60647E-08  1219   0.619E-04    0.153E-04
RMM:  19    -0.413215486568E+03    0.16575E-05   -0.30041E-08   918   0.548E-04    0.583E-05
RMM:  20    -0.413215485141E+03    0.14275E-05   -0.23690E-08   907   0.545E-04    0.615E-05
RMM:  21    -0.413215484887E+03    0.25375E-06   -0.10747E-08   688   0.510E-04
   42 T=    71. E= -.41286710E+03 F= -.41321548E+03 E0= -.41319444E+03  EK= 0.34838E+00 SP= 0.00E+00 SK= 0.00E+00
       N       E                     dE             d eps       ncg     rms          rms(c)
RMM:   1    -0.413232430800E+03   -0.16946E-01   -0.72070E+00  4315   0.965E-01    0.968E-01
RMM:   2    -0.413225993762E+03    0.64370E-02   -0.10574E-01  4360   0.122E-01    0.707E-01
RMM:   3    -0.413221082861E+03    0.49109E-02   -0.49688E-02  4968   0.936E-02    0.270E-01
RMM:   4    -0.413250806820E+03   -0.29724E-01   -0.39885E-02  5100   0.170E-01    0.754E-01
RMM:   5    -0.413217735630E+03    0.33071E-01   -0.15444E-02  4773   0.126E-01    0.510E-02
RMM:   6    -0.413217810067E+03   -0.74436E-04   -0.26504E-03  5771   0.481E-02    0.312E-02
RMM:   7    -0.413217837265E+03   -0.27198E-04   -0.30573E-04  5688   0.166E-02    0.179E-02
RMM:   8    -0.413217836171E+03    0.10940E-05   -0.40212E-05  4723   0.661E-03    0.796E-03
RMM:   9    -0.413217837602E+03   -0.14306E-05   -0.13672E-05  3983   0.400E-03    0.577E-03
RMM:  10    -0.413217834301E+03    0.33001E-05   -0.29811E-06  2719   0.249E-03    0.337E-03
RMM:  11    -0.413217832410E+03    0.18918E-05   -0.12138E-06  2496   0.177E-03    0.195E-03
RMM:  12    -0.413217827520E+03    0.48900E-05   -0.12707E-06  2502   0.174E-03    0.102E-03
RMM:  13    -0.413217825027E+03    0.24928E-05   -0.42069E-07  2317   0.115E-03    0.645E-04
RMM:  14    -0.413217824063E+03    0.96344E-06   -0.18025E-07  1601   0.770E-04
   43 T=    71. E= -.41286718E+03 F= -.41321782E+03 E0= -.41319681E+03  EK= 0.35065E+00 SP= 0.00E+00 SK= 0.00E+00
       N       E                     dE             d eps       ncg     rms          rms(c)
RMM:   1    -0.413236149049E+03   -0.18324E-01   -0.73560E+00  4315   0.104E+00    0.970E-01
RMM:   2    -0.413227622560E+03    0.85265E-02   -0.11460E-01  4380   0.133E-01    0.717E-01
RMM:   3    -0.413223004437E+03    0.46181E-02   -0.49500E-02  4983   0.975E-02    0.288E-01
RMM:   4    -0.413254993327E+03   -0.31989E-01   -0.44753E-02  5094   0.180E-01    0.785E-01
RMM:   5    -0.413218996422E+03    0.35997E-01   -0.16450E-02  4761   0.131E-01    0.528E-02
RMM:   6    -0.413219071608E+03   -0.75185E-04   -0.28522E-03  5773   0.499E-02    0.309E-02
RMM:   7    -0.413219095860E+03   -0.24252E-04   -0.34137E-04  5729   0.172E-02    0.190E-02
RMM:   8    -0.413219103308E+03   -0.74482E-05   -0.78303E-05  5141   0.888E-03    0.116E-02
RMM:   9    -0.413219096141E+03    0.71667E-05   -0.20032E-05  4445   0.515E-03    0.588E-03
RMM:  10    -0.413219094786E+03    0.13546E-05   -0.33660E-06  2695   0.275E-03    0.353E-03
RMM:  11    -0.413219093138E+03    0.16485E-05   -0.13670E-06  2513   0.187E-03    0.201E-03
RMM:  12    -0.413219088793E+03    0.43448E-05   -0.12673E-06  2516   0.173E-03    0.101E-03
RMM:  13    -0.413219085051E+03    0.37418E-05   -0.56217E-07  2333   0.120E-03    0.582E-04
RMM:  14    -0.413219083441E+03    0.16102E-05   -0.23095E-07  1720   0.815E-04    0.314E-04
RMM:  15    -0.413219078531E+03    0.49104E-05   -0.17329E-07  1392   0.745E-04    0.207E-04
RMM:  16    -0.413219074643E+03    0.38875E-05   -0.11674E-07  1285   0.679E-04    0.206E-04
RMM:  17    -0.413219071169E+03    0.34743E-05   -0.85100E-08  1206   0.638E-04    0.164E-04
RMM:  18    -0.413219067600E+03    0.35686E-05   -0.69979E-08  1241   0.618E-04    0.936E-05
RMM:  19    -0.413219064824E+03    0.27758E-05   -0.46649E-08  1083   0.578E-04    0.428E-05
RMM:  20    -0.413219064284E+03    0.54028E-06   -0.24308E-08   801   0.518E-04
   44 T=    72. E= -.41286691E+03 F= -.41321906E+03 E0= -.41319808E+03  EK= 0.35216E+00 SP= 0.00E+00 SK= 0.00E+00
       N       E                     dE             d eps       ncg     rms          rms(c)
RMM:   1    -0.413238557459E+03   -0.19493E-01   -0.73130E+00  4315   0.110E+00    0.990E-01
RMM:   2    -0.413228883708E+03    0.96738E-02   -0.11268E-01  4401   0.138E-01    0.717E-01
RMM:   3    -0.413225574153E+03    0.33096E-02   -0.48066E-02  5023   0.104E-01    0.310E-01
RMM:   4    -0.413252913194E+03   -0.27339E-01   -0.43870E-02  5083   0.180E-01    0.745E-01
RMM:   5    -0.413220496360E+03    0.32417E-01   -0.14140E-02  4732   0.124E-01    0.528E-02
RMM:   6    -0.413220537982E+03   -0.41622E-04   -0.24841E-03  5758   0.472E-02    0.312E-02
RMM:   7    -0.413220550596E+03   -0.12614E-04   -0.29240E-04  5710   0.166E-02    0.188E-02
RMM:   8    -0.413220557370E+03   -0.67745E-05   -0.80090E-05  5138   0.910E-03    0.117E-02
RMM:   9    -0.413220548453E+03    0.89175E-05   -0.19023E-05  4409   0.521E-03    0.540E-03
RMM:  10    -0.413220545292E+03    0.31602E-05   -0.31666E-06  2703   0.269E-03    0.325E-03
RMM:  11    -0.413220542327E+03    0.29655E-05   -0.12043E-06  2495   0.182E-03    0.182E-03
RMM:  12    -0.413220536018E+03    0.63084E-05   -0.92949E-07  2480   0.157E-03    0.893E-04
RMM:  13    -0.413220531214E+03    0.48041E-05   -0.40809E-07  2226   0.108E-03    0.477E-04
RMM:  14    -0.413220529209E+03    0.20054E-05   -0.19410E-07  1566   0.771E-04    0.254E-04
RMM:  15    -0.413220523439E+03    0.57701E-05   -0.13527E-07  1282   0.709E-04    0.176E-04
RMM:  16    -0.413220519526E+03    0.39127E-05   -0.89108E-08  1153   0.656E-04    0.150E-04
RMM:  17    -0.413220516109E+03    0.34168E-05   -0.69482E-08  1161   0.633E-04    0.101E-04
RMM:  18    -0.413220512092E+03    0.40174E-05   -0.61250E-08  1243   0.623E-04    0.686E-05
RMM:  19    -0.413220509428E+03    0.26644E-05   -0.39239E-08  1031   0.573E-04    0.451E-05
RMM:  20    -0.413220508783E+03    0.64502E-06   -0.20914E-08   783   0.528E-04
   45 T=    72. E= -.41286732E+03 F= -.41322051E+03 E0= -.41319954E+03  EK= 0.35319E+00 SP= 0.00E+00 SK= 0.00E+00
       N       E                     dE             d eps       ncg     rms          rms(c)
RMM:   1    -0.413238414147E+03   -0.17905E-01   -0.72713E+00  4314   0.117E+00    0.973E-01
RMM:   2    -0.413228463943E+03    0.99502E-02   -0.11350E-01  4422   0.145E-01    0.710E-01
RMM:   3    -0.413227357140E+03    0.11068E-02   -0.48891E-02  5042   0.116E-01    0.363E-01
RMM:   4    -0.413248445563E+03   -0.21088E-01   -0.43303E-02  5065   0.180E-01    0.698E-01
RMM:   5    -0.413220165625E+03    0.28280E-01   -0.11777E-02  4703   0.116E-01    0.524E-02
RMM:   6    -0.413220186810E+03   -0.21185E-04   -0.21285E-03  5692   0.439E-02    0.297E-02
RMM:   7    -0.413220208403E+03   -0.21594E-04   -0.27515E-04  5692   0.162E-02    0.189E-02
RMM:   8    -0.413220214650E+03   -0.62463E-05   -0.89170E-05  5135   0.972E-03    0.116E-02
RMM:   9    -0.413220205581E+03    0.90687E-05   -0.15652E-05  4200   0.508E-03    0.482E-03
RMM:  10    -0.413220202653E+03    0.29277E-05   -0.32089E-06  2733   0.256E-03    0.292E-03
RMM:  11    -0.413220199708E+03    0.29454E-05   -0.11707E-06  2497   0.176E-03    0.154E-03
RMM:  12    -0.413220194102E+03    0.56065E-05   -0.83843E-07  2457   0.147E-03    0.779E-04
RMM:  13    -0.413220189847E+03    0.42543E-05   -0.35805E-07  2038   0.101E-03    0.361E-04
RMM:  14    -0.413220187288E+03    0.25590E-05   -0.18273E-07  1483   0.754E-04    0.190E-04
RMM:  15    -0.413220181131E+03    0.61571E-05   -0.14387E-07  1317   0.722E-04    0.163E-04
RMM:  16    -0.413220177685E+03    0.34465E-05   -0.93548E-08  1220   0.662E-04    0.119E-04
RMM:  17    -0.413220173897E+03    0.37878E-05   -0.78616E-08  1276   0.640E-04    0.680E-05
RMM:  18    -0.413220170074E+03    0.38226E-05   -0.55982E-08  1160   0.601E-04    0.376E-05
RMM:  19    -0.413220168433E+03    0.16415E-05   -0.33259E-08   909   0.547E-04    0.329E-05
RMM:  20    -0.413220168144E+03    0.28878E-06   -0.18862E-08   747   0.521E-04
   46 T=    72. E= -.41286721E+03 F= -.41322017E+03 E0= -.41319922E+03  EK= 0.35296E+00 SP= 0.00E+00 SK= 0.00E+00
       N       E                     dE             d eps       ncg     rms          rms(c)
RMM:   1    -0.413240823204E+03   -0.20655E-01   -0.73809E+00  4316   0.130E+00    0.964E-01
RMM:   2    -0.413227694424E+03    0.13129E-01   -0.11730E-01  4442   0.160E-01    0.716E-01
RMM:   3    -0.413229657108E+03   -0.19627E-02   -0.53617E-02  5063   0.132E-01    0.441E-01
RMM:   4    -0.413243425671E+03   -0.13769E-01   -0.43627E-02  5039   0.184E-01    0.653E-01
RMM:   5    -0.413219010405E+03    0.24415E-01   -0.98795E-03  4652   0.110E-01    0.516E-02
RMM:   6    -0.413219000964E+03    0.94411E-05   -0.17973E-03  5612   0.404E-02    0.275E-02
RMM:   7    -0.413219022624E+03   -0.21660E-04   -0.24990E-04  5643   0.157E-02    0.185E-02
RMM:   8    -0.413219028801E+03   -0.61776E-05   -0.90504E-05  5100   0.100E-02    0.104E-02
RMM:   9    -0.413219023083E+03    0.57182E-05   -0.12213E-05  3937   0.481E-03    0.437E-03
RMM:  10    -0.413219021491E+03    0.15924E-05   -0.27983E-06  2691   0.240E-03    0.263E-03
RMM:  11    -0.413219019356E+03    0.21350E-05   -0.12611E-06  2501   0.173E-03    0.128E-03
RMM:  12    -0.413219015743E+03    0.36125E-05   -0.81388E-07  2408   0.138E-03    0.663E-04
RMM:  13    -0.413219012757E+03    0.29861E-05   -0.37161E-07  1874   0.964E-04    0.305E-04
RMM:  14    -0.413219010050E+03    0.27074E-05   -0.20555E-07  1426   0.767E-04    0.158E-04
RMM:  15    -0.413219005260E+03    0.47897E-05   -0.18713E-07  1463   0.757E-04    0.134E-04
RMM:  16    -0.413219002328E+03    0.29320E-05   -0.12043E-07  1313   0.668E-04    0.982E-05
RMM:  17    -0.413218997779E+03    0.45490E-05   -0.10931E-07  1379   0.660E-04    0.524E-05
RMM:  18    -0.413218995437E+03    0.23416E-05   -0.60216E-08  1037   0.572E-04    0.396E-05
RMM:  19    -0.413218994659E+03    0.77825E-06   -0.33009E-08   829   0.531E-04
   47 T=    72. E= -.41286731E+03 F= -.41321899E+03 E0= -.41319806E+03  EK= 0.35169E+00 SP= 0.00E+00 SK= 0.00E+00
       N       E                     dE             d eps       ncg     rms          rms(c)
RMM:   1    -0.413240266930E+03   -0.21271E-01   -0.72980E+00  4311   0.137E+00    0.977E-01
RMM:   2    -0.413225111230E+03    0.15156E-01   -0.11934E-01  4500   0.171E-01    0.714E-01
RMM:   3    -0.413231585010E+03   -0.64738E-02   -0.51621E-02  5083   0.143E-01    0.509E-01
RMM:   4    -0.413235410958E+03   -0.38259E-02   -0.42200E-02  5010   0.183E-01    0.569E-01
RMM:   5    -0.413216828094E+03    0.18583E-01   -0.67098E-03  4600   0.980E-02    0.515E-02
RMM:   6    -0.413216789057E+03    0.39037E-04   -0.12432E-03  5354   0.350E-02    0.272E-02
RMM:   7    -0.413216814168E+03   -0.25111E-04   -0.18959E-04  5572   0.140E-02    0.169E-02
RMM:   8    -0.413216818330E+03   -0.41628E-05   -0.88807E-05  5166   0.982E-03    0.104E-02
RMM:   9    -0.413216808146E+03    0.10184E-04   -0.11588E-05  3914   0.480E-03    0.409E-03
RMM:  10    -0.413216805004E+03    0.31426E-05   -0.27650E-06  2691   0.238E-03    0.235E-03
RMM:  11    -0.413216800601E+03    0.44025E-05   -0.12188E-06  2488   0.177E-03    0.117E-03
RMM:  12    -0.413216795911E+03    0.46905E-05   -0.58911E-07  2314   0.127E-03    0.651E-04
RMM:  13    -0.413216791827E+03    0.40841E-05   -0.27928E-07  1764   0.899E-04    0.301E-04
RMM:  14    -0.413216787339E+03    0.44873E-05   -0.17013E-07  1404   0.740E-04    0.156E-04
RMM:  15    -0.413216782486E+03    0.48532E-05   -0.12525E-07  1314   0.695E-04    0.118E-04
RMM:  16    -0.413216778592E+03    0.38947E-05   -0.88453E-08  1213   0.647E-04    0.808E-05
RMM:  17    -0.413216772142E+03    0.64500E-05   -0.93139E-08  1442   0.663E-04    0.699E-05
RMM:  18    -0.413216771104E+03    0.10381E-05   -0.35230E-08   838   0.527E-04    0.459E-05
RMM:  19    -0.413216769290E+03    0.18139E-05   -0.28817E-08   836   0.531E-04    0.196E-05
RMM:  20    -0.413216768808E+03    0.48209E-06   -0.16054E-08   687   0.504E-04
   48 T=    71. E= -.41286760E+03 F= -.41321677E+03 E0= -.41319584E+03  EK= 0.34917E+00 SP= 0.00E+00 SK= 0.00E+00
       N       E                     dE             d eps       ncg     rms          rms(c)
RMM:   1    -0.413236240930E+03   -0.19472E-01   -0.71675E+00  4311   0.146E+00    0.964E-01
RMM:   2    -0.413220387072E+03    0.15854E-01   -0.11935E-01  4552   0.179E-01    0.704E-01
RMM:   3    -0.413234146618E+03   -0.13760E-01   -0.54232E-02  5107   0.162E-01    0.616E-01
RMM:   4    -0.413224971682E+03    0.91749E-02   -0.41811E-02  4976   0.186E-01    0.473E-01
RMM:   5    -0.413212202907E+03    0.12769E-01   -0.45859E-03  4562   0.878E-02    0.516E-02
RMM:   6    -0.413212115435E+03    0.87472E-04   -0.68227E-04  4888   0.289E-02    0.268E-02
RMM:   7    -0.413212136652E+03   -0.21217E-04   -0.14150E-04  5670   0.126E-02    0.117E-02
RMM:   8    -0.413212134974E+03    0.16776E-05   -0.25765E-05  4900   0.626E-03    0.585E-03
RMM:   9    -0.413212132291E+03    0.26836E-05   -0.49239E-06  3004   0.277E-03    0.303E-03
RMM:  10    -0.413212127544E+03    0.47460E-05   -0.15723E-06  2502   0.202E-03    0.200E-03
RMM:  11    -0.413212123869E+03    0.36756E-05   -0.86759E-07  2460   0.157E-03    0.122E-03
RMM:  12    -0.413212120229E+03    0.36404E-05   -0.37620E-07  2181   0.107E-03    0.671E-04
RMM:  13    -0.413212115454E+03    0.47750E-05   -0.27675E-07  1858   0.895E-04    0.407E-04
RMM:  14    -0.413212109777E+03    0.56768E-05   -0.16885E-07  1394   0.736E-04    0.245E-04
RMM:  15    -0.413212105994E+03    0.37831E-05   -0.98943E-08  1097   0.636E-04    0.117E-04
RMM:  16    -0.413212101215E+03    0.47791E-05   -0.90888E-08  1282   0.649E-04    0.117E-04
RMM:  17    -0.413212095233E+03    0.59814E-05   -0.82439E-08  1353   0.647E-04    0.986E-05
RMM:  18    -0.413212094220E+03    0.10134E-05   -0.30613E-08   803   0.517E-04    0.728E-05
RMM:  19    -0.413212092003E+03    0.22174E-05   -0.30507E-08   881   0.534E-04    0.299E-05
RMM:  20    -0.413212091373E+03    0.62931E-06   -0.15115E-08   660   0.492E-04
   49 T=    70. E= -.41286726E+03 F= -.41321209E+03 E0= -.41319117E+03  EK= 0.34483E+00 SP= 0.00E+00 SK= 0.00E+00
       N       E                     dE             d eps       ncg     rms          rms(c)
RMM:   1    -0.413234332376E+03   -0.22240E-01   -0.71639E+00  4310   0.163E+00    0.935E-01
RMM:   2    -0.413215072484E+03    0.19260E-01   -0.12773E-01  4645   0.194E-01    0.702E-01
RMM:   3    -0.413237511741E+03   -0.22439E-01   -0.59455E-02  5122   0.185E-01    0.727E-01
RMM:   4    -0.413217061589E+03    0.20450E-01   -0.46036E-02  4945   0.198E-01    0.430E-01
RMM:   5    -0.413206707232E+03    0.10354E-01   -0.44761E-03  4595   0.895E-02    0.550E-02
RMM:   6    -0.413206582722E+03    0.12451E-03   -0.51482E-04  4763   0.282E-02    0.270E-02
RMM:   7    -0.413206613337E+03   -0.30615E-04   -0.20888E-04  5727   0.159E-02    0.173E-02
RMM:   8    -0.413206600224E+03    0.13113E-04   -0.58100E-05  5066   0.867E-03    0.881E-03
RMM:   9    -0.413206598238E+03    0.19862E-05   -0.12412E-05  4214   0.469E-03    0.400E-03
RMM:  10    -0.413206595395E+03    0.28432E-05   -0.18550E-06  2612   0.222E-03    0.237E-03
RMM:  11    -0.413206591113E+03    0.42821E-05   -0.10156E-06  2502   0.165E-03    0.155E-03
RMM:  12    -0.413206588145E+03    0.29674E-05   -0.42736E-07  2178   0.107E-03    0.783E-04
RMM:  13    -0.413206583944E+03    0.42016E-05   -0.41159E-07  2273   0.992E-04    0.452E-04
RMM:  14    -0.413206580768E+03    0.31757E-05   -0.19576E-07  1367   0.730E-04    0.310E-04
RMM:  15    -0.413206575712E+03    0.50560E-05   -0.17886E-07  1299   0.716E-04    0.135E-04
RMM:  16    -0.413206572831E+03    0.28808E-05   -0.11166E-07  1285   0.651E-04    0.927E-05
RMM:  17    -0.413206568168E+03    0.46638E-05   -0.11878E-07  1447   0.661E-04    0.104E-04
RMM:  18    -0.413206566691E+03    0.14767E-05   -0.52112E-08   946   0.532E-04    0.714E-05
RMM:  19    -0.413206564901E+03    0.17901E-05   -0.39414E-08   927   0.528E-04    0.356E-05
RMM:  20    -0.413206563949E+03    0.95226E-06   -0.27066E-08   811   0.502E-04
   50 T=    69. E= -.41286755E+03 F= -.41320656E+03 E0= -.41318564E+03  EK= 0.33902E+00 SP= 0.00E+00 SK= 0.00E+00
       N       E                     dE             d eps       ncg     rms          rms(c)
RMM:   1    -0.413227480351E+03   -0.20915E-01   -0.70288E+00  4310   0.170E+00    0.936E-01
RMM:   2    -0.413206711781E+03    0.20769E-01   -0.13102E-01  4732   0.201E-01    0.698E-01
RMM:   3    -0.413238436290E+03   -0.31725E-01   -0.62847E-02  5139   0.201E-01    0.826E-01
[...]
RMM:   5    -0.413052149176E+03    0.11752E-01   -0.61710E-03  4881   0.791E-02    0.571E-02
RMM:   6    -0.413052050174E+03    0.99002E-04   -0.10747E-03  5502   0.355E-02    0.194E-02
RMM:   7    -0.413052067435E+03   -0.17261E-04   -0.23576E-04  6000   0.144E-02    0.154E-02
RMM:   8    -0.413052071971E+03   -0.45363E-05   -0.53403E-05  5092   0.760E-03    0.661E-03
RMM:   9    -0.413052074992E+03   -0.30205E-05   -0.10292E-05  3670   0.394E-03    0.319E-03
RMM:  10    -0.413052078319E+03   -0.33274E-05   -0.17741E-06  2550   0.217E-03    0.210E-03
RMM:  11    -0.413052082561E+03   -0.42413E-05   -0.10509E-06  2510   0.165E-03    0.125E-03
RMM:  12    -0.413052087077E+03   -0.45169E-05   -0.74426E-07  2418   0.129E-03    0.732E-04
RMM:  13    -0.413052088368E+03   -0.12905E-05   -0.25776E-07  1678   0.834E-04    0.312E-04
RMM:  14    -0.413052090346E+03   -0.19783E-05   -0.22689E-07  1507   0.781E-04    0.168E-04
RMM:  15    -0.413052091820E+03   -0.14734E-05   -0.16521E-07  1348   0.705E-04    0.124E-04
RMM:  16    -0.413052092349E+03   -0.52950E-06   -0.91138E-08  1132   0.631E-04
  139 T=    53. E= -.41279201E+03 F= -.41305209E+03 E0= -.41303139E+03  EK= 0.26008E+00 SP= 0.00E+00 SK= 0.00E+00
       N       E                     dE             d eps       ncg     rms          rms(c)
RMM:   1    -0.413038430352E+03    0.13661E-01   -0.12178E+01  4264   0.124E+00    0.114E+00
RMM:   2    -0.413042306947E+03   -0.38766E-02   -0.20195E-01  4457   0.148E-01    0.921E-01
RMM:   3    -0.413030805793E+03    0.11501E-01   -0.12340E-01  4983   0.129E-01    0.626E-01
RMM:   4    -0.413048277237E+03   -0.17471E-01   -0.36686E-02  5122   0.161E-01    0.643E-01
RMM:   5    -0.413025294483E+03    0.22983E-01   -0.10869E-02  4788   0.110E-01    0.809E-02
RMM:   6    -0.413025358664E+03   -0.64181E-04   -0.19078E-03  5652   0.438E-02    0.431E-02
RMM:   7    -0.413025480074E+03   -0.12141E-03   -0.34638E-04  5861   0.179E-02    0.282E-02
RMM:   8    -0.413025582457E+03   -0.10238E-03   -0.10152E-04  5087   0.108E-02    0.122E-02
RMM:   9    -0.413025680147E+03   -0.97689E-04   -0.30369E-05  4594   0.633E-03    0.515E-03
RMM:  10    -0.413025741221E+03   -0.61074E-04   -0.63854E-06  2842   0.325E-03    0.327E-03
RMM:  11    -0.413025823492E+03   -0.82271E-04   -0.60138E-06  2799   0.342E-03    0.248E-03
RMM:  12    -0.413025874781E+03   -0.51289E-04   -0.37733E-06  2659   0.231E-03    0.173E-03
RMM:  13    -0.413025893253E+03   -0.18472E-04   -0.12367E-06  2526   0.133E-03    0.996E-04
RMM:  14    -0.413025917694E+03   -0.24442E-04   -0.12565E-06  2470   0.131E-03    0.638E-04
RMM:  15    -0.413025934523E+03   -0.16829E-04   -0.94164E-07  1938   0.108E-03    0.368E-04
RMM:  16    -0.413025943018E+03   -0.84942E-05   -0.56177E-07  1925   0.933E-04    0.279E-04
RMM:  17    -0.413025945359E+03   -0.23417E-05   -0.26377E-07  1541   0.712E-04    0.219E-04
RMM:  18    -0.413025946414E+03   -0.10552E-05   -0.27515E-07  1377   0.693E-04    0.137E-04
RMM:  19    -0.413025946371E+03    0.43947E-07   -0.98400E-08  1020   0.568E-04
  140 T=    48. E= -.41279257E+03 F= -.41302595E+03 E0= -.41300531E+03  EK= 0.23338E+00 SP= 0.00E+00 SK= 0.00E+00
       N       E                     dE             d eps       ncg     rms          rms(c)
RMM:   1    -0.413122575809E+03   -0.96629E-01   -0.10208E+01  4264   0.119E+00    0.126E+00
RMM:   2    -0.413105092998E+03    0.17483E-01   -0.10404E-01  4450   0.127E-01    0.700E-01
RMM:   3    -0.413102322320E+03    0.27707E-02   -0.27813E-02  4922   0.645E-02    0.118E-01
RMM:   4    -0.413102808296E+03   -0.48598E-03   -0.21184E-03  5210   0.478E-02    0.913E-02
RMM:   5    -0.413103134854E+03   -0.32656E-03   -0.10059E-03  5115   0.312E-02    0.116E-01
RMM:   6    -0.413102506778E+03    0.62808E-03   -0.53527E-04  5155   0.268E-02    0.318E-02
RMM:   7    -0.413102511909E+03   -0.51314E-05   -0.22393E-04  5745   0.162E-02    0.181E-02
RMM:   8    -0.413102494335E+03    0.17574E-04   -0.55041E-05  4950   0.857E-03    0.927E-03
RMM:   9    -0.413102486418E+03    0.79164E-05   -0.10632E-05  3951   0.416E-03    0.455E-03
RMM:  10    -0.413102479718E+03    0.67004E-05   -0.42153E-06  2914   0.286E-03    0.254E-03
RMM:  11    -0.413102459727E+03    0.19991E-04   -0.46815E-06  2691   0.279E-03    0.159E-03
RMM:  12    -0.413102445296E+03    0.14431E-04   -0.23479E-06  2600   0.194E-03    0.115E-03
RMM:  13    -0.413102436819E+03    0.84768E-05   -0.97688E-07  2469   0.131E-03    0.941E-04
RMM:  14    -0.413102423647E+03    0.13172E-04   -0.13283E-06  2532   0.137E-03    0.585E-04
RMM:  15    -0.413102416446E+03    0.72011E-05   -0.62454E-07  1753   0.902E-04    0.302E-04
RMM:  16    -0.413102413415E+03    0.30310E-05   -0.25546E-07  1569   0.745E-04    0.184E-04
RMM:  17    -0.413102412432E+03    0.98271E-06   -0.14398E-07  1373   0.645E-04
  141 T=    51. E= -.41285025E+03 F= -.41310241E+03 E0= -.41308183E+03  EK= 0.25216E+00 SP= 0.00E+00 SK= 0.00E+00
       N       E                     dE             d eps       ncg     rms          rms(c)
RMM:   1    -0.413071215690E+03    0.31198E-01   -0.57830E+00  4264   0.968E-01    0.619E-01
RMM:   2    -0.413075277435E+03   -0.40617E-02   -0.55943E-02  4493   0.983E-02    0.424E-01
RMM:   3    -0.413074578359E+03    0.69908E-03   -0.55305E-03  5059   0.520E-02    0.891E-02
RMM:   4    -0.413084533707E+03   -0.99553E-02   -0.10768E-02  5171   0.907E-02    0.420E-01
RMM:   5    -0.413074478714E+03    0.10055E-01   -0.51780E-03  4873   0.721E-02    0.503E-02
RMM:   6    -0.413074415022E+03    0.63693E-04   -0.93697E-04  5564   0.325E-02    0.198E-02
RMM:   7    -0.413074430274E+03   -0.15253E-04   -0.20250E-04  5971   0.134E-02    0.153E-02
RMM:   8    -0.413074432183E+03   -0.19089E-05   -0.49464E-05  5024   0.738E-03    0.609E-03
RMM:   9    -0.413074433786E+03   -0.16023E-05   -0.88715E-06  3529   0.368E-03    0.323E-03
RMM:  10    -0.413074436037E+03   -0.22517E-05   -0.15959E-06  2526   0.212E-03    0.206E-03
RMM:  11    -0.413074438995E+03   -0.29581E-05   -0.10499E-06  2507   0.165E-03    0.121E-03
RMM:  12    -0.413074441540E+03   -0.25444E-05   -0.69843E-07  2395   0.125E-03    0.653E-04
RMM:  13    -0.413074442300E+03   -0.76046E-06   -0.24592E-07  1657   0.816E-04
  142 T=    48. E= -.41283845E+03 F= -.41307444E+03 E0= -.41305392E+03  EK= 0.23599E+00 SP= 0.00E+00 SK= 0.00E+00
       N       E                     dE             d eps       ncg     rms          rms(c)
RMM:   1    -0.413076585801E+03   -0.21443E-02   -0.95121E+00  4264   0.112E+00    0.956E-01
RMM:   2    -0.413080297479E+03   -0.37117E-02   -0.13318E-01  4463   0.126E-01    0.757E-01
RMM:   3    -0.413072717674E+03    0.75798E-02   -0.70390E-02  4938   0.104E-01    0.451E-01
RMM:   4    -0.413086121200E+03   -0.13404E-01   -0.22633E-02  5113   0.132E-01    0.539E-01
RMM:   5    -0.413070018345E+03    0.16103E-01   -0.74907E-03  4787   0.914E-02    0.668E-02
RMM:   6    -0.413070061515E+03   -0.43169E-04   -0.13163E-03  5694   0.364E-02    0.381E-02
RMM:   7    -0.413070151551E+03   -0.90037E-04   -0.25017E-04  5798   0.156E-02    0.240E-02
RMM:   8    -0.413070229259E+03   -0.77708E-04   -0.74945E-05  5005   0.945E-03    0.929E-03
RMM:   9    -0.413070297037E+03   -0.67778E-04   -0.20582E-05  4041   0.524E-03    0.417E-03
RMM:  10    -0.413070340460E+03   -0.43422E-04   -0.40681E-06  2707   0.274E-03    0.268E-03
RMM:  11    -0.413070403341E+03   -0.62881E-04   -0.42465E-06  2699   0.282E-03    0.199E-03
RMM:  12    -0.413070440133E+03   -0.36792E-04   -0.24437E-06  2624   0.189E-03    0.131E-03
RMM:  13    -0.413070455036E+03   -0.14903E-04   -0.87730E-07  2296   0.114E-03    0.743E-04
RMM:  14    -0.413070476071E+03   -0.21035E-04   -0.11133E-06  2437   0.123E-03    0.505E-04
RMM:  15    -0.413070488221E+03   -0.12150E-04   -0.68223E-07  1623   0.920E-04    0.289E-04
RMM:  16    -0.413070496035E+03   -0.78134E-05   -0.51218E-07  1885   0.916E-04    0.210E-04
RMM:  17    -0.413070497692E+03   -0.16578E-05   -0.18945E-07  1412   0.654E-04    0.181E-04
RMM:  18    -0.413070497767E+03   -0.75110E-07   -0.14689E-07  1152   0.589E-04
  143 T=    46. E= -.41284423E+03 F= -.41307050E+03 E0= -.41305002E+03  EK= 0.22627E+00 SP= 0.00E+00 SK= 0.00E+00
       N       E                     dE             d eps       ncg     rms          rms(c)
RMM:   1    -0.413124493766E+03   -0.53996E-01   -0.75886E+00  4264   0.104E+00    0.950E-01
RMM:   2    -0.413121132805E+03    0.33610E-02   -0.71629E-02  4454   0.106E-01    0.566E-01
RMM:   3    -0.413119563562E+03    0.15692E-02   -0.14782E-02  4909   0.566E-02    0.964E-02
RMM:   4    -0.413121152390E+03   -0.15888E-02   -0.23976E-03  5250   0.477E-02    0.170E-01
RMM:   5    -0.413119709633E+03    0.14428E-02   -0.10415E-03  4976   0.333E-02    0.597E-02
RMM:   6    -0.413119610973E+03    0.98660E-04   -0.40720E-04  5282   0.237E-02    0.265E-02
RMM:   7    -0.413119621586E+03   -0.10613E-04   -0.14979E-04  5718   0.130E-02    0.163E-02
RMM:   8    -0.413119609362E+03    0.12224E-04   -0.39729E-05  4817   0.742E-03    0.718E-03
RMM:   9    -0.413119604994E+03    0.43674E-05   -0.86201E-06  3708   0.371E-03    0.358E-03
RMM:  10    -0.413119601542E+03    0.34526E-05   -0.29572E-06  2691   0.255E-03    0.226E-03
RMM:  11    -0.413119591901E+03    0.96411E-05   -0.22070E-06  2569   0.214E-03    0.119E-03
RMM:  12    -0.413119585497E+03    0.64038E-05   -0.10240E-06  2464   0.144E-03    0.779E-04
RMM:  13    -0.413119581634E+03    0.38626E-05   -0.48603E-07  2179   0.101E-03    0.572E-04
RMM:  14    -0.413119574294E+03    0.73406E-05   -0.70653E-07  2282   0.105E-03    0.404E-04
RMM:  15    -0.413119570416E+03    0.38780E-05   -0.30776E-07  1432   0.735E-04    0.251E-04
RMM:  16    -0.413119567791E+03    0.26250E-05   -0.19966E-07  1460   0.704E-04    0.116E-04
RMM:  17    -0.413119566840E+03    0.95029E-06   -0.99091E-08  1221   0.602E-04
  144 T=    48. E= -.41288546E+03 F= -.41311957E+03 E0= -.41309914E+03  EK= 0.23410E+00 SP= 0.00E+00 SK= 0.00E+00
       N       E                     dE             d eps       ncg     rms          rms(c)
RMM:   1    -0.413085383975E+03    0.34184E-01   -0.61144E+00  4264   0.966E-01    0.691E-01
RMM:   2    -0.413088153159E+03   -0.27692E-02   -0.57706E-02  4458   0.979E-02    0.451E-01
RMM:   3    -0.413087162137E+03    0.99102E-03   -0.69434E-03  5011   0.487E-02    0.809E-02
RMM:   4    -0.413091321179E+03   -0.41590E-02   -0.46645E-03  5202   0.616E-02    0.273E-01
RMM:   5    -0.413087176493E+03    0.41447E-02   -0.22036E-03  4881   0.476E-02    0.446E-02
RMM:   6    -0.413087130582E+03    0.45911E-04   -0.50052E-04  5508   0.245E-02    0.214E-02
RMM:   7    -0.413087140452E+03   -0.98695E-05   -0.13815E-04  5848   0.119E-02    0.149E-02
RMM:   8    -0.413087137374E+03    0.30775E-05   -0.39090E-05  4880   0.694E-03    0.536E-03
RMM:   9    -0.413087136628E+03    0.74581E-06   -0.66669E-06  3318   0.328E-03
  145 T=    44. E= -.41286908E+03 F= -.41308714E+03 E0= -.41306675E+03  EK= 0.21806E+00 SP= 0.00E+00 SK= 0.00E+00
       N       E                     dE             d eps       ncg     rms          rms(c)
RMM:   1    -0.413106859970E+03   -0.19723E-01   -0.73935E+00  4264   0.102E+00    0.766E-01
RMM:   2    -0.413111100906E+03   -0.42409E-02   -0.87954E-02  4458   0.111E-01    0.598E-01
RMM:   3    -0.413107607465E+03    0.34934E-02   -0.29253E-02  4945   0.854E-02    0.269E-01
RMM:   4    -0.413125149110E+03   -0.17542E-01   -0.22890E-02  5130   0.131E-01    0.585E-01
RMM:   5    -0.413105665103E+03    0.19484E-01   -0.90807E-03  4804   0.996E-02    0.543E-02
RMM:   6    -0.413105710935E+03   -0.45832E-04   -0.15888E-03  5746   0.386E-02    0.297E-02
RMM:   7    -0.413105766872E+03   -0.55937E-04   -0.23338E-04  5901   0.142E-02    0.188E-02
RMM:   8    -0.413105816259E+03   -0.49387E-04   -0.49737E-05  4980   0.723E-03    0.831E-03
RMM:   9    -0.413105860417E+03   -0.44159E-04   -0.13197E-05  3397   0.404E-03    0.362E-03
RMM:  10    -0.413105887033E+03   -0.26616E-04   -0.27047E-06  2615   0.225E-03    0.216E-03
RMM:  11    -0.413105924225E+03   -0.37192E-04   -0.23857E-06  2609   0.207E-03    0.153E-03
RMM:  12    -0.413105947093E+03   -0.22867E-04   -0.13444E-06  2515   0.145E-03    0.851E-04
RMM:  13    -0.413105957645E+03   -0.10553E-04   -0.57919E-07  1884   0.988E-04    0.487E-04
RMM:  14    -0.413105971229E+03   -0.13583E-04   -0.68891E-07  2356   0.108E-03    0.430E-04
RMM:  15    -0.413105981519E+03   -0.10290E-04   -0.51251E-07  1516   0.853E-04    0.236E-04
RMM:  16    -0.413105987753E+03   -0.62345E-05   -0.35203E-07  1734   0.825E-04    0.174E-04
RMM:  17    -0.413105989186E+03   -0.14324E-05   -0.12771E-07  1234   0.616E-04    0.134E-04
RMM:  18    -0.413105989749E+03   -0.56348E-06   -0.10010E-07  1177   0.586E-04
  146 T=    45. E= -.41288354E+03 F= -.41310599E+03 E0= -.41308564E+03  EK= 0.22245E+00 SP= 0.00E+00 SK= 0.00E+00
       N       E                     dE             d eps       ncg     rms          rms(c)
RMM:   1    -0.413109974871E+03   -0.39857E-02   -0.62396E+00  4264   0.954E-01    0.709E-01
RMM:   2    -0.413112847979E+03   -0.28731E-02   -0.58432E-02  4471   0.971E-02    0.485E-01
RMM:   3    -0.413112133822E+03    0.71416E-03   -0.61132E-03  4888   0.479E-02    0.548E-02
RMM:   4    -0.413112231769E+03   -0.97947E-04   -0.62847E-04  5305   0.266E-02    0.479E-02
RMM:   5    -0.413112271178E+03   -0.39408E-04   -0.26113E-04  5152   0.161E-02    0.541E-02
RMM:   6    -0.413112140874E+03    0.13030E-03   -0.13864E-04  5219   0.131E-02    0.172E-02
RMM:   7    -0.413112147680E+03   -0.68053E-05   -0.64893E-05  5513   0.881E-03    0.120E-02
RMM:   8    -0.413112153018E+03   -0.53383E-05   -0.21589E-05  4244   0.542E-03    0.497E-03
RMM:   9    -0.413112154150E+03   -0.11323E-05   -0.26334E-06  2692   0.247E-03    0.272E-03
RMM:  10    -0.413112155820E+03   -0.16699E-05   -0.14206E-06  2477   0.189E-03    0.152E-03
RMM:  11    -0.413112160588E+03   -0.47680E-05   -0.13297E-06  2500   0.171E-03    0.858E-04
RMM:  12    -0.413112163970E+03   -0.33817E-05   -0.69182E-07  2263   0.122E-03    0.409E-04
RMM:  13    -0.413112165046E+03   -0.10766E-05   -0.25570E-07  1781   0.827E-04    0.339E-04
RMM:  14    -0.413112166932E+03   -0.18856E-05   -0.22563E-07  1543   0.760E-04    0.167E-04
RMM:  15    -0.413112168456E+03   -0.15240E-05   -0.19131E-07  1623   0.708E-04    0.269E-04
RMM:  16    -0.413112168624E+03   -0.16750E-06   -0.49145E-08   886   0.494E-04
  147 T=    45. E= -.41288982E+03 F= -.41311217E+03 E0= -.41309185E+03  EK= 0.22235E+00 SP= 0.00E+00 SK= 0.00E+00
       N       E                     dE             d eps       ncg     rms          rms(c)
RMM:   1    -0.413092856941E+03    0.19312E-01   -0.70981E+00  4264   0.103E+00    0.849E-01
RMM:   2    -0.413086986314E+03    0.58706E-02   -0.67461E-02  4453   0.102E-01    0.513E-01
RMM:   3    -0.413085421520E+03    0.15648E-02   -0.11779E-02  5001   0.480E-02    0.912E-02
RMM:   4    -0.413087074528E+03   -0.16530E-02   -0.21719E-03  5263   0.428E-02    0.173E-01
RMM:   5    -0.413085508855E+03    0.15657E-02   -0.94054E-04  4923   0.313E-02    0.449E-02
RMM:   6    -0.413085477847E+03    0.31008E-04   -0.33314E-04  5425   0.203E-02    0.252E-02
RMM:   7    -0.413085479174E+03   -0.13269E-05   -0.11875E-04  5496   0.117E-02    0.142E-02
RMM:   8    -0.413085468543E+03    0.10630E-04   -0.26812E-05  4507   0.637E-03    0.545E-03
RMM:   9    -0.413085465181E+03    0.33623E-05   -0.59685E-06  3264   0.308E-03    0.300E-03
RMM:  10    -0.413085461628E+03    0.35526E-05   -0.21061E-06  2534   0.224E-03    0.189E-03
RMM:  11    -0.413085450953E+03    0.10676E-04   -0.19748E-06  2554   0.193E-03    0.105E-03
RMM:  12    -0.413085445184E+03    0.57690E-05   -0.72171E-07  2359   0.122E-03    0.616E-04
RMM:  13    -0.413085441770E+03    0.34138E-05   -0.33148E-07  1860   0.852E-04    0.457E-04
RMM:  14    -0.413085434941E+03    0.68285E-05   -0.58532E-07  2099   0.949E-04    0.303E-04
RMM:  15    -0.413085432412E+03    0.25295E-05   -0.19089E-07  1302   0.643E-04    0.188E-04
RMM:  16    -0.413085430569E+03    0.18434E-05   -0.12826E-07  1190   0.622E-04    0.818E-05
RMM:  17    -0.413085429845E+03    0.72332E-06   -0.81292E-08  1113   0.584E-04
  148 T=    43. E= -.41287325E+03 F= -.41308543E+03 E0= -.41306514E+03  EK= 0.21218E+00 SP= 0.00E+00 SK= 0.00E+00
       N       E                     dE             d eps       ncg     rms          rms(c)
RMM:   1    -0.413111863800E+03   -0.26433E-01   -0.62386E+00  4264   0.947E-01    0.642E-01
RMM:   2    -0.413116918945E+03   -0.50551E-02   -0.65413E-02  4471   0.982E-02    0.489E-01
RMM:   3    -0.413114529604E+03    0.23893E-02   -0.97838E-03  4679   0.557E-02    0.754E-02
RMM:   4    -0.413115100562E+03   -0.57096E-03   -0.93797E-04  5204   0.327E-02    0.103E-01
RMM:   5    -0.413114552922E+03    0.54764E-03   -0.32434E-04  4980   0.192E-02    0.294E-02
RMM:   6    -0.413114550032E+03    0.28903E-05   -0.10773E-04  5377   0.116E-02    0.168E-02
RMM:   7    -0.413114583237E+03   -0.33205E-04   -0.46455E-05  5322   0.718E-03    0.103E-02
RMM:   8    -0.413114621225E+03   -0.37988E-04   -0.20592E-05  3904   0.481E-03    0.436E-03
RMM:   9    -0.413114628798E+03   -0.75728E-05   -0.23848E-06  2624   0.228E-03    0.258E-03
RMM:  10    -0.413114638386E+03   -0.95881E-05   -0.13634E-06  2481   0.175E-03    0.150E-03
RMM:  11    -0.413114663872E+03   -0.25487E-04   -0.15680E-06  2533   0.170E-03    0.875E-04
RMM:  12    -0.413114678307E+03   -0.14435E-04   -0.75217E-07  2285   0.112E-03    0.488E-04
RMM:  13    -0.413114683257E+03   -0.49499E-05   -0.26168E-07  1524   0.744E-04    0.337E-04
RMM:  14    -0.413114695860E+03   -0.12603E-04   -0.69677E-07  2279   0.103E-03    0.443E-04
RMM:  15    -0.413114699152E+03   -0.32924E-05   -0.17172E-07  1108   0.579E-04    0.304E-04
RMM:  16    -0.413114701171E+03   -0.20190E-05   -0.12276E-07  1109   0.597E-04    0.113E-04
RMM:  17    -0.413114702952E+03   -0.17806E-05   -0.99214E-08  1132   0.607E-04    0.120E-04
RMM:  18    -0.413114703036E+03   -0.84234E-07   -0.30492E-08   796   0.515E-04
  149 T=    46. E= -.41289040E+03 F= -.41311470E+03 E0= -.41309443E+03  EK= 0.22431E+00 SP= 0.00E+00 SK= 0.00E+00
       N       E                     dE             d eps       ncg     rms          rms(c)
RMM:   1    -0.413073977517E+03    0.40725E-01   -0.68699E+00  4264   0.975E-01    0.737E-01
RMM:   2    -0.413078206688E+03   -0.42292E-02   -0.73816E-02  4469   0.103E-01    0.563E-01
RMM:   3    -0.413075101859E+03    0.31048E-02   -0.17128E-02  4649   0.651E-02    0.156E-01
RMM:   4    -0.413078342805E+03   -0.32409E-02   -0.41582E-03  5158   0.598E-02    0.251E-01
RMM:   5    -0.413074855772E+03    0.34870E-02   -0.16567E-03  4825   0.423E-02    0.341E-02
RMM:   6    -0.413074860832E+03   -0.50600E-05   -0.32747E-04  5640   0.188E-02    0.219E-02
RMM:   7    -0.413074900105E+03   -0.39274E-04   -0.74266E-05  5431   0.860E-03    0.118E-02
RMM:   8    -0.413074939955E+03   -0.39850E-04   -0.23612E-05  4188   0.531E-03    0.346E-03
RMM:   9    -0.413074960697E+03   -0.20742E-04   -0.37024E-06  2760   0.259E-03    0.237E-03
RMM:  10    -0.413074977623E+03   -0.16926E-04   -0.10969E-06  2528   0.166E-03    0.151E-03
RMM:  11    -0.413075006411E+03   -0.28788E-04   -0.14075E-06  2555   0.155E-03    0.848E-04
RMM:  12    -0.413075023005E+03   -0.16594E-04   -0.79352E-07  2000   0.106E-03    0.489E-04
RMM:  13    -0.413075032714E+03   -0.97093E-05   -0.49489E-07  1867   0.916E-04    0.305E-04
RMM:  14    -0.413075042813E+03   -0.10098E-04   -0.53129E-07  1912   0.894E-04    0.247E-04
RMM:  15    -0.413075049663E+03   -0.68501E-05   -0.36779E-07  1416   0.750E-04    0.153E-04
RMM:  16    -0.413075051766E+03   -0.21038E-05   -0.16783E-07  1263   0.647E-04    0.788E-05
RMM:  17    -0.413075052662E+03   -0.89563E-06   -0.10606E-07  1174   0.596E-04
  150 T=    44. E= -.41285830E+03 F= -.41307505E+03 E0= -.41305480E+03  EK= 0.21675E+00 SP= 0.00E+00 SK= 0.00E+00
