       N       E                     dE             d eps       ncg     rms          rms(c)
RMM:   1     0.220075215603E+04    0.22008E+04   -0.52446E+04  2132   0.654E+02
RMM:   2     0.705457900433E+03   -0.14953E+04   -0.16259E+04  2132   0.177E+02
RMM:   3     0.137796812693E+03   -0.56766E+03   -0.65675E+03  2132   0.117E+02
RMM:   4    -0.159261643879E+03   -0.29706E+03   -0.27845E+03  2132   0.936E+01
RMM:   5    -0.287530778379E+03   -0.12827E+03   -0.11452E+03  2132   0.595E+01
RMM:   6    -0.349875984787E+03   -0.62345E+02   -0.55159E+02  2132   0.423E+01
RMM:   7    -0.382765812335E+03   -0.32890E+02   -0.30433E+02  2132   0.293E+01
RMM:   8    -0.404276585382E+03   -0.21511E+02   -0.18420E+02  2132   0.233E+01
RMM:   9    -0.435994623815E+03   -0.31718E+02   -0.30625E+02  6092   0.173E+01
RMM:  10    -0.441268812498E+03   -0.52742E+01   -0.62869E+01  6395   0.538E+00
RMM:  11    -0.442500132513E+03   -0.12313E+01   -0.11209E+01  6213   0.173E+00
RMM:  12    -0.442877840365E+03   -0.37771E+00   -0.26425E+00  6367   0.600E-01    0.134E+02
RMM:  13    -0.425619270969E+03    0.17259E+02   -0.81077E+01  4677   0.119E+01    0.712E+01
RMM:  14    -0.499911194906E+03   -0.74292E+02   -0.54320E+02  5421   0.233E+01    0.307E+01
RMM:  15    -0.415992149677E+03    0.83919E+02   -0.19991E+02  5090   0.164E+01    0.709E+00
RMM:  16    -0.413994156861E+03    0.19980E+01   -0.39431E+01  6088   0.611E+00    0.423E+00
RMM:  17    -0.413213130311E+03    0.78103E+00   -0.25403E+00  5405   0.188E+00    0.243E+00
RMM:  18    -0.413176406975E+03    0.36723E-01   -0.76844E-01  5986   0.896E-01    0.167E+00
RMM:  19    -0.413168761006E+03    0.76460E-02   -0.28502E-01  5685   0.574E-01    0.867E-01
RMM:  20    -0.413187415968E+03   -0.18655E-01   -0.26046E-01  5559   0.538E-01    0.605E-01
RMM:  21    -0.413167829750E+03    0.19586E-01   -0.34903E-02  4977   0.239E-01    0.275E-01
RMM:  22    -0.413165262496E+03    0.25673E-02   -0.19484E-02  5968   0.129E-01    0.136E-01
RMM:  23    -0.413164261856E+03    0.10006E-02   -0.55560E-03  6008   0.663E-02    0.842E-02
RMM:  24    -0.413163020144E+03    0.12417E-02   -0.16312E-03  5367   0.417E-02    0.485E-02
RMM:  25    -0.413162554258E+03    0.46589E-03   -0.82939E-04  5165   0.277E-02    0.404E-02
RMM:  26    -0.413162646935E+03   -0.92677E-04   -0.93214E-04  5774   0.321E-02    0.318E-02
RMM:  27    -0.413163076548E+03   -0.42961E-03   -0.18383E-04  4557   0.198E-02    0.200E-02
RMM:  28    -0.413163500064E+03   -0.42352E-03   -0.14884E-04  5105   0.175E-02    0.999E-03
RMM:  29    -0.413163911905E+03   -0.41184E-03   -0.11424E-04  4580   0.162E-02    0.433E-03
RMM:  30    -0.413164130695E+03   -0.21879E-03   -0.74186E-05  4416   0.991E-03    0.411E-03
RMM:  31    -0.413164270769E+03   -0.14007E-03   -0.53815E-05  3207   0.717E-03    0.363E-03
RMM:  32    -0.413164296726E+03   -0.25957E-04   -0.20174E-05  2987   0.310E-03    0.172E-03
RMM:  33    -0.413164311088E+03   -0.14363E-04   -0.81780E-06  2789   0.228E-03    0.662E-04
RMM:  34    -0.413164314931E+03   -0.38430E-05   -0.47170E-06  2661   0.166E-03    0.655E-04
RMM:  35    -0.413164315694E+03   -0.76228E-06   -0.22059E-06  2390   0.129E-03
    1 T=    61. E= -.41286655E+03 F= -.41316432E+03 E0= -.41314182E+03  EK= 0.29776E+00 SP= 0.00E+00 SK= 0.00E+00
       N       E                     dE             d eps       ncg     rms          rms(c)
RMM:   1    -0.413158562565E+03    0.57524E-02   -0.10122E+01  3998   0.659E-01    0.885E-01
RMM:   2    -0.413167027063E+03   -0.84645E-02   -0.12400E-01  3965   0.940E-02    0.645E-01
RMM:   3    -0.413164306224E+03    0.27208E-02   -0.10162E-02  4792   0.421E-02    0.119E-01
RMM:   4    -0.413187682467E+03   -0.23376E-01   -0.24592E-02  5208   0.130E-01    0.638E-01
RMM:   5    -0.413163889010E+03    0.23793E-01   -0.11701E-02  4850   0.107E-01    0.425E-02
RMM:   6    -0.413164050411E+03   -0.16140E-03   -0.20131E-03  5793   0.435E-02    0.281E-02
RMM:   7    -0.413164061563E+03   -0.11152E-04   -0.34068E-04  5784   0.164E-02    0.173E-02
RMM:   8    -0.413164063632E+03   -0.20698E-05   -0.46352E-05  4942   0.710E-03    0.755E-03
RMM:   9    -0.413164066935E+03   -0.33028E-05   -0.99847E-06  3493   0.339E-03    0.586E-03
RMM:  10    -0.413164071776E+03   -0.48404E-05   -0.17474E-06  2574   0.194E-03    0.376E-03
RMM:  11    -0.413164077753E+03   -0.59775E-05   -0.13834E-06  2535   0.173E-03    0.178E-03
RMM:  12    -0.413164084621E+03   -0.68679E-05   -0.14004E-06  2536   0.164E-03    0.777E-04
RMM:  13    -0.413164085530E+03   -0.90924E-06   -0.46947E-07  2194   0.105E-03
    2 T=    61. E= -.41286641E+03 F= -.41316409E+03 E0= -.41314158E+03  EK= 0.29767E+00 SP= 0.00E+00 SK= 0.00E+00
       N       E                     dE             d eps       ncg     rms          rms(c)
RMM:   1    -0.413159629562E+03    0.44551E-02   -0.10137E+01  4192   0.664E-01    0.906E-01
RMM:   2    -0.413167082185E+03   -0.74526E-02   -0.12199E-01  3981   0.928E-02    0.639E-01
RMM:   3    -0.413164782328E+03    0.22999E-02   -0.10035E-02  4736   0.408E-02    0.128E-01
RMM:   4    -0.413185262556E+03   -0.20480E-01   -0.20855E-02  5186   0.121E-01    0.599E-01
RMM:   5    -0.413164491170E+03    0.20771E-01   -0.10180E-02  4841   0.999E-02    0.415E-02
RMM:   6    -0.413164626372E+03   -0.13520E-03   -0.17194E-03  5812   0.404E-02    0.273E-02
RMM:   7    -0.413164627292E+03   -0.92048E-06   -0.29708E-04  5690   0.163E-02    0.171E-02
RMM:   8    -0.413164621290E+03    0.60018E-05   -0.47755E-05  4925   0.749E-03    0.799E-03
RMM:   9    -0.413164620404E+03    0.88665E-06   -0.96083E-06  3565   0.352E-03
    3 T=    61. E= -.41286673E+03 F= -.41316462E+03 E0= -.41314213E+03  EK= 0.29789E+00 SP= 0.00E+00 SK= 0.00E+00
       N       E                     dE             d eps       ncg     rms          rms(c)
RMM:   1    -0.413159098910E+03    0.55224E-02   -0.10057E+01  4222   0.665E-01    0.891E-01
RMM:   2    -0.413166839216E+03   -0.77403E-02   -0.12135E-01  4327   0.937E-02    0.634E-01
RMM:   3    -0.413172644681E+03   -0.58055E-02   -0.16405E-02  5195   0.910E-02    0.402E-01
RMM:   4    -0.413181985900E+03   -0.93412E-02   -0.34911E-02  5096   0.162E-01    0.552E-01
RMM:   5    -0.413164449472E+03    0.17536E-01   -0.61528E-03  4652   0.924E-02    0.583E-02
RMM:   6    -0.413164376965E+03    0.72507E-04   -0.12393E-03  5292   0.359E-02    0.277E-02
RMM:   7    -0.413164397110E+03   -0.20145E-04   -0.28803E-04  5989   0.165E-02    0.175E-02
RMM:   8    -0.413164394285E+03    0.28247E-05   -0.55168E-05  5210   0.858E-03    0.714E-03
RMM:   9    -0.413164392898E+03    0.13873E-05   -0.10984E-05  3986   0.412E-03    0.373E-03
RMM:  10    -0.413164393910E+03   -0.10116E-05   -0.12856E-06  2530   0.198E-03    0.233E-03
RMM:  11    -0.413164395740E+03   -0.18298E-05   -0.12274E-06  2529   0.177E-03    0.143E-03
RMM:  12    -0.413164396769E+03   -0.10292E-05   -0.60165E-07  2449   0.127E-03    0.518E-04
RMM:  13    -0.413164397461E+03   -0.69234E-06   -0.29317E-07  1697   0.837E-04
    4 T=    61. E= -.41286645E+03 F= -.41316440E+03 E0= -.41314191E+03  EK= 0.29795E+00 SP= 0.00E+00 SK= 0.00E+00
       N       E                     dE             d eps       ncg     rms          rms(c)
RMM:   1    -0.413159020478E+03    0.53763E-02   -0.10110E+01  4237   0.672E-01    0.883E-01
RMM:   2    -0.413167334059E+03   -0.83136E-02   -0.12402E-01  3952   0.914E-02    0.644E-01
RMM:   3    -0.413164881584E+03    0.24525E-02   -0.10164E-02  4923   0.415E-02    0.128E-01
RMM:   4    -0.413194182729E+03   -0.29301E-01   -0.30377E-02  5166   0.145E-01    0.714E-01
RMM:   5    -0.413164351155E+03    0.29832E-01   -0.14418E-02  4818   0.119E-01    0.448E-02
RMM:   6    -0.413164539451E+03   -0.18830E-03   -0.24250E-03  5772   0.478E-02    0.285E-02
RMM:   7    -0.413164550071E+03   -0.10620E-04   -0.36825E-04  5785   0.171E-02    0.181E-02
RMM:   8    -0.413164551644E+03   -0.15730E-05   -0.56231E-05  5024   0.780E-03    0.838E-03
RMM:   9    -0.413164553466E+03   -0.18220E-05   -0.11672E-05  3773   0.384E-03    0.624E-03
RMM:  10    -0.413164557485E+03   -0.40195E-05   -0.16818E-06  2566   0.202E-03    0.406E-03
RMM:  11    -0.413164562366E+03   -0.48807E-05   -0.14238E-06  2548   0.182E-03    0.194E-03
RMM:  12    -0.413164567900E+03   -0.55335E-05   -0.14847E-06  2552   0.175E-03    0.825E-04
RMM:  13    -0.413164568560E+03   -0.66007E-06   -0.40033E-07  2230   0.109E-03
    5 T=    61. E= -.41286643E+03 F= -.41316457E+03 E0= -.41314209E+03  EK= 0.29813E+00 SP= 0.00E+00 SK= 0.00E+00
       N       E                     dE             d eps       ncg     rms          rms(c)
RMM:   1    -0.413159995983E+03    0.45719E-02   -0.10141E+01  4251   0.679E-01    0.903E-01
RMM:   2    -0.413167435519E+03   -0.74395E-02   -0.12238E-01  4016   0.924E-02    0.642E-01
RMM:   3    -0.413165187370E+03    0.22481E-02   -0.10070E-02  4761   0.399E-02    0.125E-01
RMM:   4    -0.413185578893E+03   -0.20392E-01   -0.20766E-02  5161   0.120E-01    0.599E-01
RMM:   5    -0.413164862140E+03    0.20717E-01   -0.10206E-02  4830   0.994E-02    0.410E-02
RMM:   6    -0.413164993956E+03   -0.13182E-03   -0.17112E-03  5794   0.400E-02    0.265E-02
RMM:   7    -0.413164996989E+03   -0.30322E-05   -0.28589E-04  5686   0.160E-02    0.168E-02
RMM:   8    -0.413164991145E+03    0.58439E-05   -0.49097E-05  4898   0.753E-03    0.807E-03
RMM:   9    -0.413164990035E+03    0.11102E-05   -0.97133E-06  3606   0.358E-03    0.633E-03
RMM:  10    -0.413164990522E+03   -0.48728E-06   -0.14424E-06  2540   0.202E-03
    6 T=    61. E= -.41286659E+03 F= -.41316499E+03 E0= -.41314253E+03  EK= 0.29840E+00 SP= 0.00E+00 SK= 0.00E+00
       N       E                     dE             d eps       ncg     rms          rms(c)
RMM:   1    -0.413159672139E+03    0.53179E-02   -0.10086E+01  4256   0.684E-01    0.898E-01
RMM:   2    -0.413167186101E+03   -0.75140E-02   -0.12160E-01  4171   0.925E-02    0.635E-01
RMM:   3    -0.413167351892E+03   -0.16579E-03   -0.11794E-02  5100   0.619E-02    0.244E-01
RMM:   4    -0.413200047586E+03   -0.32696E-01   -0.44263E-02  5131   0.177E-01    0.776E-01
RMM:   5    -0.413164662397E+03    0.35385E-01   -0.15497E-02  4766   0.129E-01    0.578E-02
RMM:   6    -0.413164772269E+03   -0.10987E-03   -0.26409E-03  5612   0.512E-02    0.287E-02
RMM:   7    -0.413164792227E+03   -0.19958E-04   -0.40032E-04  6032   0.170E-02    0.179E-02
RMM:   8    -0.413164790719E+03    0.15084E-05   -0.67859E-05  5252   0.873E-03    0.801E-03
RMM:   9    -0.413164787215E+03    0.35037E-05   -0.10612E-05  3536   0.375E-03    0.404E-03
RMM:  10    -0.413164787154E+03    0.61049E-07   -0.25058E-06  2615   0.225E-03
    7 T=    61. E= -.41286631E+03 F= -.41316479E+03 E0= -.41314234E+03  EK= 0.29847E+00 SP= 0.00E+00 SK= 0.00E+00
       N       E                     dE             d eps       ncg     rms          rms(c)
RMM:   1    -0.413159884820E+03    0.49024E-02   -0.10092E+01  4265   0.688E-01    0.882E-01
RMM:   2    -0.413168163489E+03   -0.82787E-02   -0.12350E-01  4103   0.927E-02    0.642E-01
RMM:   3    -0.413166357051E+03    0.18064E-02   -0.10622E-02  5038   0.508E-02    0.170E-01
RMM:   4    -0.413208124329E+03   -0.41767E-01   -0.46553E-02  5143   0.180E-01    0.852E-01
RMM:   5    -0.413165096795E+03    0.43028E-01   -0.20197E-02  4805   0.142E-01    0.526E-02
RMM:   6    -0.413165311586E+03   -0.21479E-03   -0.33139E-03  5742   0.567E-02    0.295E-02
RMM:   7    -0.413165331534E+03   -0.19948E-04   -0.46972E-04  5954   0.186E-02    0.198E-02
RMM:   8    -0.413165333058E+03   -0.15244E-05   -0.74693E-05  5239   0.876E-03    0.939E-03
RMM:   9    -0.413165332702E+03    0.35590E-06   -0.14644E-05  3984   0.421E-03    0.578E-03
RMM:  10    -0.413165335831E+03   -0.31294E-05   -0.26105E-06  2637   0.221E-03    0.386E-03
RMM:  11    -0.413165338771E+03   -0.29397E-05   -0.12300E-06  2526   0.172E-03    0.199E-03
RMM:  12    -0.413165342387E+03   -0.36161E-05   -0.13946E-06  2549   0.172E-03    0.658E-04
RMM:  13    -0.413165343569E+03   -0.11814E-05   -0.53861E-07  2290   0.118E-03    0.541E-04
RMM:  14    -0.413165343469E+03    0.99557E-07   -0.22234E-07  1726   0.814E-04
    8 T=    61. E= -.41286658E+03 F= -.41316534E+03 E0= -.41314291E+03  EK= 0.29876E+00 SP= 0.00E+00 SK= 0.00E+00
       N       E                     dE             d eps       ncg     rms          rms(c)
RMM:   1    -0.413160314336E+03    0.50292E-02   -0.10139E+01  4283   0.693E-01    0.898E-01
RMM:   2    -0.413168287154E+03   -0.79728E-02   -0.12302E-01  4127   0.944E-02    0.644E-01
RMM:   3    -0.413165812454E+03    0.24747E-02   -0.10181E-02  4818   0.416E-02    0.126E-01
RMM:   4    -0.413190312764E+03   -0.24500E-01   -0.25219E-02  5151   0.132E-01    0.655E-01
RMM:   5    -0.413165374155E+03    0.24939E-01   -0.12176E-02  4812   0.109E-01    0.431E-02
RMM:   6    -0.413165538046E+03   -0.16389E-03   -0.20840E-03  5776   0.438E-02    0.283E-02
RMM:   7    -0.413165541764E+03   -0.37180E-05   -0.33247E-04  5689   0.167E-02    0.179E-02
RMM:   8    -0.413165537105E+03    0.46586E-05   -0.52163E-05  4958   0.769E-03    0.840E-03
RMM:   9    -0.413165535709E+03    0.13957E-05   -0.10474E-05  3652   0.368E-03    0.645E-03
RMM:  10    -0.413165536329E+03   -0.61927E-06   -0.14790E-06  2545   0.200E-03
    9 T=    61. E= -.41286661E+03 F= -.41316554E+03 E0= -.41314313E+03  EK= 0.29892E+00 SP= 0.00E+00 SK= 0.00E+00
       N       E                     dE             d eps       ncg     rms          rms(c)
RMM:   1    -0.413160664876E+03    0.48708E-02   -0.10113E+01  4299   0.693E-01    0.905E-01
RMM:   2    -0.413168049286E+03   -0.73844E-02   -0.12162E-01  4242   0.938E-02    0.636E-01
RMM:   3    -0.413168472558E+03   -0.42327E-03   -0.12158E-02  5086   0.656E-02    0.256E-01
RMM:   4    -0.413199127185E+03   -0.30655E-01   -0.43316E-02  5122   0.175E-01    0.757E-01
RMM:   5    -0.413165506823E+03    0.33620E-01   -0.14558E-02  4751   0.125E-01    0.575E-02
RMM:   6    -0.413165609292E+03   -0.10247E-03   -0.25151E-03  5600   0.497E-02    0.290E-02
RMM:   7    -0.413165625760E+03   -0.16468E-04   -0.38475E-04  6000   0.169E-02    0.180E-02
RMM:   8    -0.413165622594E+03    0.31655E-05   -0.66450E-05  5246   0.872E-03    0.797E-03
RMM:   9    -0.413165617901E+03    0.46934E-05   -0.10247E-05  3513   0.374E-03    0.400E-03
RMM:  10    -0.413165616740E+03    0.11603E-05   -0.23983E-06  2604   0.223E-03    0.276E-03
RMM:  11    -0.413165614888E+03    0.18523E-05   -0.12584E-06  2517   0.178E-03    0.146E-03
RMM:  12    -0.413165613043E+03    0.18454E-05   -0.75842E-07  2479   0.139E-03    0.488E-04
RMM:  13    -0.413165612158E+03    0.88450E-06   -0.36169E-07  2048   0.984E-04
   10 T=    61. E= -.41286648E+03 F= -.41316561E+03 E0= -.41314323E+03  EK= 0.29913E+00 SP= 0.00E+00 SK= 0.00E+00
       N       E                     dE             d eps       ncg     rms          rms(c)
RMM:   1    -0.413160989973E+03    0.46231E-02   -0.10073E+01  4292   0.703E-01    0.882E-01
RMM:   2    -0.413169031484E+03   -0.80415E-02   -0.12297E-01  4206   0.957E-02    0.639E-01
RMM:   3    -0.413166722419E+03    0.23091E-02   -0.10083E-02  4855   0.451E-02    0.133E-01
RMM:   4    -0.413197343511E+03   -0.30621E-01   -0.31891E-02  5144   0.148E-01    0.730E-01
RMM:   5    -0.413166131238E+03    0.31212E-01   -0.15133E-02  4805   0.122E-01    0.457E-02
RMM:   6    -0.413166330648E+03   -0.19941E-03   -0.25850E-03  5774   0.487E-02    0.291E-02
RMM:   7    -0.413166339050E+03   -0.84023E-05   -0.38455E-04  5744   0.175E-02    0.188E-02
RMM:   8    -0.413166335955E+03    0.30951E-05   -0.60710E-05  5027   0.811E-03    0.901E-03
RMM:   9    -0.413166334396E+03    0.15590E-05   -0.12491E-05  3871   0.400E-03    0.664E-03
RMM:  10    -0.413166335411E+03   -0.10153E-05   -0.17619E-06  2571   0.207E-03    0.431E-03
RMM:  11    -0.413166336803E+03   -0.13918E-05   -0.15256E-06  2547   0.191E-03    0.205E-03
RMM:  12    -0.413166338200E+03   -0.13974E-05   -0.14638E-06  2540   0.179E-03    0.827E-04
RMM:  13    -0.413166338357E+03   -0.15656E-06   -0.41866E-07  2245   0.113E-03
   11 T=    61. E= -.41286670E+03 F= -.41316634E+03 E0= -.41314398E+03  EK= 0.29964E+00 SP= 0.00E+00 SK= 0.00E+00
       N       E                     dE             d eps       ncg     rms          rms(c)
RMM:   1    -0.413161011413E+03    0.53268E-02   -0.10147E+01  4297   0.706E-01    0.893E-01
RMM:   2    -0.413169037384E+03   -0.80260E-02   -0.12389E-01  4216   0.954E-02    0.647E-01
RMM:   3    -0.413166539268E+03    0.24981E-02   -0.10212E-02  4810   0.417E-02    0.124E-01
RMM:   4    -0.413191271683E+03   -0.24732E-01   -0.25522E-02  5145   0.133E-01    0.657E-01
RMM:   5    -0.413166128047E+03    0.25144E-01   -0.12295E-02  4809   0.109E-01    0.427E-02
RMM:   6    -0.413166292997E+03   -0.16495E-03   -0.21167E-03  5799   0.435E-02    0.272E-02
RMM:   7    -0.413166301124E+03   -0.81273E-05   -0.31398E-04  5726   0.164E-02    0.174E-02
RMM:   8    -0.413166296841E+03    0.42834E-05   -0.56861E-05  4962   0.792E-03    0.869E-03
RMM:   9    -0.413166295227E+03    0.16138E-05   -0.11463E-05  3822   0.388E-03    0.664E-03
RMM:  10    -0.413166296099E+03   -0.87229E-06   -0.15208E-06  2544   0.202E-03
   12 T=    61. E= -.41286636E+03 F= -.41316630E+03 E0= -.41314396E+03  EK= 0.29994E+00 SP= 0.00E+00 SK= 0.00E+00
       N       E                     dE             d eps       ncg     rms          rms(c)
RMM:   1    -0.413162035668E+03    0.42596E-02   -0.10147E+01  4307   0.706E-01    0.910E-01
RMM:   2    -0.413169097993E+03   -0.70623E-02   -0.12201E-01  4267   0.913E-02    0.639E-01
RMM:   3    -0.413170099470E+03   -0.10015E-02   -0.12621E-02  5123   0.655E-02    0.269E-01
RMM:   4    -0.413198817349E+03   -0.28718E-01   -0.42879E-02  5109   0.174E-01    0.739E-01
RMM:   5    -0.413166737999E+03    0.32079E-01   -0.13600E-02  4735   0.122E-01    0.573E-02
RMM:   6    -0.413166829415E+03   -0.91417E-04   -0.23729E-03  5581   0.484E-02    0.291E-02
RMM:   7    -0.413166843320E+03   -0.13905E-04   -0.37503E-04  6004   0.168E-02    0.181E-02
RMM:   8    -0.413166838519E+03    0.48009E-05   -0.66774E-05  5225   0.878E-03    0.801E-03
RMM:   9    -0.413166832580E+03    0.59398E-05   -0.99120E-06  3492   0.374E-03    0.395E-03
RMM:  10    -0.413166830642E+03    0.19373E-05   -0.22533E-06  2591   0.220E-03    0.268E-03
RMM:  11    -0.413166827625E+03    0.30171E-05   -0.12783E-06  2519   0.179E-03    0.145E-03
RMM:  12    -0.413166824865E+03    0.27602E-05   -0.72473E-07  2464   0.139E-03    0.483E-04
RMM:  13    -0.413166823518E+03    0.13465E-05   -0.35340E-07  2051   0.982E-04    0.304E-04
RMM:  14    -0.413166822305E+03    0.12130E-05   -0.21027E-07  1565   0.791E-04    0.210E-04
RMM:  15    -0.413166820299E+03    0.20065E-05   -0.19158E-07  1422   0.744E-04    0.105E-04
RMM:  16    -0.413166818482E+03    0.18167E-05   -0.14796E-07  1371   0.697E-04    0.106E-04
RMM:  17    -0.413166816344E+03    0.21379E-05   -0.14429E-07  1377   0.672E-04    0.580E-05
RMM:  18    -0.413166815147E+03    0.11973E-05   -0.75711E-08  1036   0.585E-04    0.327E-05
RMM:  19    -0.413166814540E+03    0.60708E-06   -0.43565E-08   884   0.551E-04
   13 T=    61. E= -.41286641E+03 F= -.41316681E+03 E0= -.41314451E+03  EK= 0.30041E+00 SP= 0.00E+00 SK= 0.00E+00
       N       E                     dE             d eps       ncg     rms          rms(c)
RMM:   1    -0.413162094730E+03    0.47204E-02   -0.10074E+01  4291   0.709E-01    0.886E-01
RMM:   2    -0.413170084332E+03   -0.79896E-02   -0.12278E-01  4218   0.920E-02    0.638E-01
RMM:   3    -0.413167991175E+03    0.20932E-02   -0.10155E-02  4920   0.435E-02    0.141E-01
RMM:   4    -0.413201768893E+03   -0.33778E-01   -0.35682E-02  5141   0.157E-01    0.765E-01
RMM:   5    -0.413167299955E+03    0.34469E-01   -0.16702E-02  4791   0.128E-01    0.478E-02
RMM:   6    -0.413167510341E+03   -0.21039E-03   -0.28471E-03  5757   0.511E-02    0.301E-02
RMM:   7    -0.413167517048E+03   -0.67066E-05   -0.40916E-04  5754   0.180E-02    0.194E-02
RMM:   8    -0.413167512717E+03    0.43306E-05   -0.64161E-05  5096   0.835E-03    0.929E-03
RMM:   9    -0.413167509782E+03    0.29353E-05   -0.13501E-05  3974   0.413E-03    0.666E-03
RMM:  10    -0.413167509523E+03    0.25825E-06   -0.18837E-06  2565   0.210E-03
   14 T=    61. E= -.41286655E+03 F= -.41316751E+03 E0= -.41314524E+03  EK= 0.30096E+00 SP= 0.00E+00 SK= 0.00E+00
       N       E                     dE             d eps       ncg     rms          rms(c)
RMM:   1    -0.413162283784E+03    0.52260E-02   -0.10160E+01  4305   0.716E-01    0.890E-01
RMM:   2    -0.413170560157E+03   -0.82764E-02   -0.12458E-01  4296   0.947E-02    0.649E-01
RMM:   3    -0.413172078154E+03   -0.15180E-02   -0.13717E-02  5127   0.738E-02    0.303E-01
RMM:   4    -0.413198433436E+03   -0.26355E-01   -0.44627E-02  5097   0.178E-01    0.725E-01
RMM:   5    -0.413167460186E+03    0.30973E-01   -0.12588E-02  4710   0.119E-01    0.571E-02
RMM:   6    -0.413167531237E+03   -0.71050E-04   -0.22615E-03  5548   0.467E-02    0.272E-02
RMM:   7    -0.413167552850E+03   -0.21614E-04   -0.35201E-04  6000   0.165E-02    0.173E-02
RMM:   8    -0.413167554108E+03   -0.12575E-05   -0.65965E-05  5221   0.874E-03    0.773E-03
RMM:   9    -0.413167552003E+03    0.21047E-05   -0.98366E-06  3453   0.377E-03    0.368E-03
RMM:  10    -0.413167553098E+03   -0.10950E-05   -0.21384E-06  2578   0.214E-03    0.245E-03
RMM:  11    -0.413167554518E+03   -0.14196E-05   -0.14402E-06  2528   0.184E-03    0.147E-03
RMM:  12    -0.413167555025E+03   -0.50769E-06   -0.71394E-07  2466   0.138E-03
   15 T=    61. E= -.41286626E+03 F= -.41316756E+03 E0= -.41314532E+03  EK= 0.30129E+00 SP= 0.00E+00 SK= 0.00E+00
       N       E                     dE             d eps       ncg     rms          rms(c)
RMM:   1    -0.413163732689E+03    0.38218E-02   -0.10172E+01  4300   0.718E-01    0.911E-01
RMM:   2    -0.413171188023E+03   -0.74553E-02   -0.12272E-01  4241   0.961E-02    0.642E-01
RMM:   3    -0.413169121044E+03    0.20670E-02   -0.10536E-02  4926   0.454E-02    0.150E-01
RMM:   4    -0.413204417985E+03   -0.35297E-01   -0.37410E-02  5138   0.160E-01    0.782E-01
RMM:   5    -0.413168372283E+03    0.36046E-01   -0.17423E-02  4789   0.131E-01    0.492E-02
RMM:   6    -0.413168589477E+03   -0.21719E-03   -0.30236E-03  5765   0.526E-02    0.314E-02
RMM:   7    -0.413168591384E+03   -0.19069E-05   -0.43227E-04  5773   0.187E-02    0.204E-02
RMM:   8    -0.413168582312E+03    0.90725E-05   -0.71092E-05  5119   0.876E-03    0.102E-02
RMM:   9    -0.413168575889E+03    0.64231E-05   -0.14074E-05  4051   0.426E-03    0.723E-03
RMM:  10    -0.413168572153E+03    0.37351E-05   -0.20455E-06  2578   0.218E-03    0.464E-03
RMM:  11    -0.413168568618E+03    0.35354E-05   -0.14735E-06  2539   0.189E-03    0.238E-03
RMM:  12    -0.413168563508E+03    0.51101E-05   -0.16361E-06  2546   0.195E-03    0.877E-04
RMM:  13    -0.413168562156E+03    0.13522E-05   -0.49958E-07  2330   0.125E-03    0.628E-04
RMM:  14    -0.413168562112E+03    0.44172E-07   -0.22830E-07  1851   0.842E-04
   16 T=    61. E= -.41286666E+03 F= -.41316856E+03 E0= -.41314636E+03  EK= 0.30190E+00 SP= 0.00E+00 SK= 0.00E+00
       N       E                     dE             d eps       ncg     rms          rms(c)
RMM:   1    -0.413163840812E+03    0.47213E-02   -0.10092E+01  4296   0.719E-01    0.892E-01
RMM:   2    -0.413171721874E+03   -0.78811E-02   -0.12264E-01  4246   0.956E-02    0.638E-01
RMM:   3    -0.413169352044E+03    0.23698E-02   -0.10063E-02  4817   0.439E-02    0.134E-01
RMM:   4    -0.413197440169E+03   -0.28088E-01   -0.29157E-02  5132   0.142E-01    0.699E-01
RMM:   5    -0.413168841771E+03    0.28598E-01   -0.13981E-02  4799   0.116E-01    0.452E-02
RMM:   6    -0.413169019683E+03   -0.17791E-03   -0.24140E-03  5790   0.465E-02    0.294E-02
RMM:   7    -0.413169021835E+03   -0.21525E-05   -0.36137E-04  5688   0.174E-02    0.187E-02
RMM:   8    -0.413169013984E+03    0.78512E-05   -0.59963E-05  5009   0.817E-03    0.909E-03
RMM:   9    -0.413169009500E+03    0.44837E-05   -0.12194E-05  3853   0.398E-03    0.680E-03
RMM:  10    -0.413169007253E+03    0.22473E-05   -0.16418E-06  2551   0.205E-03    0.437E-03
RMM:  11    -0.413169004536E+03    0.27171E-05   -0.15339E-06  2538   0.195E-03    0.203E-03
RMM:  12    -0.413169001443E+03    0.30932E-05   -0.13432E-06  2522   0.177E-03    0.819E-04
RMM:  13    -0.413169000938E+03    0.50533E-06   -0.39813E-07  2221   0.111E-03
   17 T=    62. E= -.41286656E+03 F= -.41316900E+03 E0= -.41314684E+03  EK= 0.30244E+00 SP= 0.00E+00 SK= 0.00E+00
       N       E                     dE             d eps       ncg     rms          rms(c)
RMM:   1    -0.413164240226E+03    0.47612E-02   -0.10168E+01  4299   0.728E-01    0.889E-01
RMM:   2    -0.413172446817E+03   -0.82066E-02   -0.12505E-01  4244   0.962E-02    0.649E-01
RMM:   3    -0.413169816965E+03    0.26299E-02   -0.10489E-02  4817   0.449E-02    0.125E-01
RMM:   4    -0.413197819343E+03   -0.28002E-01   -0.29105E-02  5136   0.141E-01    0.698E-01
RMM:   5    -0.413169303182E+03    0.28516E-01   -0.13946E-02  4798   0.116E-01    0.443E-02
RMM:   6    -0.413169482041E+03   -0.17886E-03   -0.24004E-03  5800   0.464E-02    0.280E-02
RMM:   7    -0.413169490032E+03   -0.79911E-05   -0.34035E-04  5742   0.170E-02    0.179E-02
RMM:   8    -0.413169485542E+03    0.44895E-05   -0.63205E-05  5001   0.823E-03    0.919E-03
RMM:   9    -0.413169482517E+03    0.30248E-05   -0.12950E-05  3989   0.410E-03    0.686E-03
RMM:  10    -0.413169482495E+03    0.22395E-07   -0.16732E-06  2551   0.207E-03
   18 T=    62. E= -.41286636E+03 F= -.41316948E+03 E0= -.41314736E+03  EK= 0.30312E+00 SP= 0.00E+00 SK= 0.00E+00
       N       E                     dE             d eps       ncg     rms          rms(c)
RMM:   1    -0.413165833048E+03    0.36495E-02   -0.10201E+01  4301   0.730E-01    0.910E-01
RMM:   2    -0.413173252434E+03   -0.74194E-02   -0.12364E-01  4307   0.987E-02    0.646E-01
RMM:   3    -0.413174681725E+03   -0.14293E-02   -0.13339E-02  5103   0.716E-02    0.291E-01
RMM:   4    -0.413201341134E+03   -0.26659E-01   -0.43096E-02  5090   0.175E-01    0.723E-01
RMM:   5    -0.413170642467E+03    0.30699E-01   -0.12759E-02  4710   0.119E-01    0.567E-02
RMM:   6    -0.413170718731E+03   -0.76263E-04   -0.22746E-03  5563   0.471E-02    0.287E-02
RMM:   7    -0.413170729594E+03   -0.10863E-04   -0.35536E-04  6002   0.166E-02    0.179E-02
RMM:   8    -0.413170724158E+03    0.54358E-05   -0.65791E-05  5213   0.876E-03    0.792E-03
RMM:   9    -0.413170717438E+03    0.67197E-05   -0.98720E-06  3479   0.378E-03    0.382E-03
RMM:  10    -0.413170715061E+03    0.23776E-05   -0.21761E-06  2581   0.218E-03    0.258E-03
RMM:  11    -0.413170711026E+03    0.40343E-05   -0.12647E-06  2513   0.180E-03    0.145E-03
RMM:  12    -0.413170707711E+03    0.33150E-05   -0.66021E-07  2453   0.136E-03    0.485E-04
RMM:  13    -0.413170705930E+03    0.17811E-05   -0.32474E-07  2010   0.960E-04    0.297E-04
RMM:  14    -0.413170704331E+03    0.15990E-05   -0.18967E-07  1515   0.775E-04    0.204E-04
RMM:  15    -0.413170701675E+03    0.26565E-05   -0.15993E-07  1365   0.727E-04    0.987E-05
RMM:  16    -0.413170699324E+03    0.23503E-05   -0.12881E-07  1356   0.686E-04    0.100E-04
RMM:  17    -0.413170696554E+03    0.27705E-05   -0.12008E-07  1400   0.664E-04    0.565E-05
RMM:  18    -0.413170694970E+03    0.15834E-05   -0.66286E-08  1021   0.573E-04    0.336E-05
RMM:  19    -0.413170694318E+03    0.65213E-06   -0.33100E-08   816   0.537E-04
   19 T=    62. E= -.41286665E+03 F= -.41317069E+03 E0= -.41314862E+03  EK= 0.30405E+00 SP= 0.00E+00 SK= 0.00E+00
       N       E                     dE             d eps       ncg     rms          rms(c)
RMM:   1    -0.413166123197E+03    0.45718E-02   -0.10143E+01  4296   0.732E-01    0.901E-01
RMM:   2    -0.413173470170E+03   -0.73470E-02   -0.12312E-01  4251   0.947E-02    0.640E-01
RMM:   3    -0.413171670532E+03    0.17996E-02   -0.10451E-02  4953   0.453E-02    0.153E-01
RMM:   4    -0.413208580797E+03   -0.36910E-01   -0.39574E-02  5135   0.165E-01    0.799E-01
RMM:   5    -0.413170831033E+03    0.37750E-01   -0.18301E-02  4787   0.134E-01    0.500E-02
RMM:   6    -0.413171051866E+03   -0.22083E-03   -0.31085E-03  5757   0.535E-02    0.317E-02
RMM:   7    -0.413171053336E+03   -0.14696E-05   -0.44662E-04  5739   0.189E-02    0.205E-02
RMM:   8    -0.413171044957E+03    0.83789E-05   -0.72015E-05  5176   0.884E-03    0.100E-02
RMM:   9    -0.413171038283E+03    0.66740E-05   -0.15040E-05  4134   0.435E-03    0.696E-03
RMM:  10    -0.413171034578E+03    0.37046E-05   -0.21267E-06  2585   0.217E-03    0.450E-03
RMM:  11    -0.413171031409E+03    0.31697E-05   -0.12455E-06  2510   0.178E-03    0.241E-03
RMM:  12    -0.413171026502E+03    0.49070E-05   -0.15485E-06  2540   0.193E-03    0.877E-04
RMM:  13    -0.413171024910E+03    0.15913E-05   -0.50883E-07  2335   0.126E-03    0.668E-04
RMM:  14    -0.413171024991E+03   -0.80683E-07   -0.22968E-07  1872   0.846E-04
   20 T=    62. E= -.41286634E+03 F= -.41317102E+03 E0= -.41314899E+03  EK= 0.30469E+00 SP= 0.00E+00 SK= 0.00E+00
       N       E                     dE             d eps       ncg     rms          rms(c)
RMM:   1    -0.413173702652E+03   -0.26777E-02   -0.10254E+01  4295   0.780E-01    0.886E-01
RMM:   2    -0.413175219114E+03   -0.15165E-02   -0.14010E-01  4259   0.990E-02    0.651E-01
RMM:   3    -0.413172395032E+03    0.28241E-02   -0.97066E-03  4791   0.415E-02    0.139E-01
RMM:   4    -0.413196515630E+03   -0.24121E-01   -0.24908E-02  5138   0.131E-01    0.649E-01
RMM:   5    -0.413172013885E+03    0.24502E-01   -0.12238E-02  4810   0.108E-01    0.423E-02
RMM:   6    -0.413172154232E+03   -0.14035E-03   -0.19725E-03  5822   0.423E-02    0.265E-02
RMM:   7    -0.413172159690E+03   -0.54579E-05   -0.28467E-04  5690   0.159E-02    0.161E-02
RMM:   8    -0.413172154555E+03    0.51347E-05   -0.60336E-05  4978   0.803E-03    0.869E-03
RMM:   9    -0.413172150783E+03    0.37724E-05   -0.11989E-05  3945   0.402E-03    0.651E-03
RMM:  10    -0.413172150095E+03    0.68794E-06   -0.14993E-06  2542   0.200E-03
   21 T=    62. E= -.41286649E+03 F= -.41317215E+03 E0= -.41315016E+03  EK= 0.30566E+00 SP= 0.00E+00 SK= 0.00E+00
       N       E                     dE             d eps       ncg     rms          rms(c)
RMM:   1    -0.413168346945E+03    0.38038E-02   -0.10241E+01  4299   0.746E-01    0.908E-01
RMM:   2    -0.413176047198E+03   -0.77003E-02   -0.12502E-01  4290   0.972E-02    0.650E-01
RMM:   3    -0.413175663225E+03    0.38397E-03   -0.12184E-02  5063   0.626E-02    0.237E-01
RMM:   4    -0.413212589919E+03   -0.36927E-01   -0.48515E-02  5116   0.184E-01    0.817E-01
RMM:   5    -0.413173069617E+03    0.39520E-01   -0.17707E-02  4758   0.136E-01    0.565E-02
RMM:   6    -0.413173212884E+03   -0.14327E-03   -0.29771E-03  5675   0.536E-02    0.299E-02
RMM:   7    -0.413173223445E+03   -0.10560E-04   -0.43415E-04  5958   0.179E-02    0.193E-02
RMM:   8    -0.413173217649E+03    0.57958E-05   -0.72363E-05  5222   0.894E-03    0.867E-03
RMM:   9    -0.413173210829E+03    0.68196E-05   -0.13020E-05  3823   0.408E-03    0.453E-03
RMM:  10    -0.413173207968E+03    0.28615E-05   -0.26754E-06  2623   0.227E-03    0.318E-03
RMM:  11    -0.413173204673E+03    0.32945E-05   -0.10725E-06  2498   0.168E-03    0.163E-03
RMM:  12    -0.413173200622E+03    0.40513E-05   -0.78267E-07  2482   0.143E-03    0.513E-04
RMM:  13    -0.413173198324E+03    0.22980E-05   -0.39120E-07  2150   0.104E-03    0.345E-04
RMM:  14    -0.413173197534E+03    0.78992E-06   -0.19585E-07  1613   0.780E-04
   22 T=    62. E= -.41286654E+03 F= -.41317320E+03 E0= -.41315125E+03  EK= 0.30666E+00 SP= 0.00E+00 SK= 0.00E+00
       N       E                     dE             d eps       ncg     rms          rms(c)
RMM:   1    -0.413169057493E+03    0.41408E-02   -0.10213E+01  4294   0.745E-01    0.910E-01
RMM:   2    -0.413176695094E+03   -0.76376E-02   -0.12422E-01  4264   0.986E-02    0.643E-01
RMM:   3    -0.413174402928E+03    0.22922E-02   -0.10602E-02  4877   0.470E-02    0.146E-01
RMM:   4    -0.413207823126E+03   -0.33420E-01   -0.35151E-02  5138   0.155E-01    0.761E-01
RMM:   5    -0.413173747923E+03    0.34075E-01   -0.16683E-02  4791   0.127E-01    0.486E-02
RMM:   6    -0.413173945728E+03   -0.19781E-03   -0.29044E-03  5800   0.510E-02    0.317E-02
RMM:   7    -0.413173944336E+03    0.13923E-05   -0.41295E-04  5730   0.186E-02    0.200E-02
RMM:   8    -0.413173933703E+03    0.10633E-04   -0.71253E-05  5107   0.883E-03    0.102E-02
RMM:   9    -0.413173925933E+03    0.77702E-05   -0.14662E-05  4125   0.434E-03    0.732E-03
RMM:  10    -0.413173920695E+03    0.52375E-05   -0.19812E-06  2575   0.217E-03    0.470E-03
RMM:  11    -0.413173915686E+03    0.50087E-05   -0.13921E-06  2526   0.187E-03    0.247E-03
RMM:  12    -0.413173908241E+03    0.74453E-05   -0.15921E-06  2536   0.197E-03    0.895E-04
RMM:  13    -0.413173905905E+03    0.23360E-05   -0.49562E-07  2336   0.126E-03    0.636E-04
RMM:  14    -0.413173906014E+03   -0.10835E-06   -0.23194E-07  1856   0.845E-04
   23 T=    63. E= -.41286639E+03 F= -.41317391E+03 E0= -.41315201E+03  EK= 0.30752E+00 SP= 0.00E+00 SK= 0.00E+00
       N       E                     dE             d eps       ncg     rms          rms(c)
RMM:   1    -0.413170907282E+03    0.29986E-02   -0.10219E+01  4298   0.778E-01    0.891E-01
RMM:   2    -0.413178680798E+03   -0.77735E-02   -0.12646E-01  4274   0.101E-01    0.649E-01
RMM:   3    -0.413175689316E+03    0.29915E-02   -0.10450E-02  4706   0.450E-02    0.120E-01
RMM:   4    -0.413196911306E+03   -0.21222E-01   -0.21762E-02  5138   0.123E-01    0.610E-01
RMM:   5    -0.413175350971E+03    0.21560E-01   -0.10682E-02  4804   0.101E-01    0.418E-02
RMM:   6    -0.413175469927E+03   -0.11896E-03   -0.18410E-03  5823   0.397E-02    0.258E-02
RMM:   7    -0.413175472757E+03   -0.28298E-05   -0.23255E-04  5679   0.147E-02    0.138E-02
RMM:   8    -0.413175469341E+03    0.34156E-05   -0.52000E-05  4969   0.737E-03    0.897E-03
RMM:   9    -0.413175464505E+03    0.48357E-05   -0.10712E-05  3851   0.382E-03    0.668E-03
RMM:  10    -0.413175462748E+03    0.17572E-05   -0.14577E-06  2535   0.205E-03    0.425E-03
RMM:  11    -0.413175460314E+03    0.24342E-05   -0.16138E-06  2540   0.202E-03    0.204E-03
RMM:  12    -0.413175457425E+03    0.28888E-05   -0.11116E-06  2471   0.167E-03    0.654E-04
RMM:  13    -0.413175456834E+03    0.59168E-06   -0.36926E-07  2137   0.105E-03
   24 T=    63. E= -.41286675E+03 F= -.41317546E+03 E0= -.41315361E+03  EK= 0.30871E+00 SP= 0.00E+00 SK= 0.00E+00
       N       E                     dE             d eps       ncg     rms          rms(c)
RMM:   1    -0.413174694016E+03    0.76341E-03   -0.10324E+01  4295   0.807E-01    0.906E-01
RMM:   2    -0.413179565543E+03   -0.48715E-02   -0.12725E-01  4272   0.104E-01    0.655E-01
RMM:   3    -0.413176564073E+03    0.30015E-02   -0.10662E-02  4664   0.454E-02    0.119E-01
RMM:   4    -0.413194758167E+03   -0.18194E-01   -0.18598E-02  5139   0.113E-01    0.565E-01
RMM:   5    -0.413176298445E+03    0.18460E-01   -0.91521E-03  4809   0.933E-02    0.407E-02
RMM:   6    -0.413176390262E+03   -0.91817E-04   -0.15947E-03  5824   0.366E-02    0.244E-02
RMM:   7    -0.413176389627E+03    0.63542E-06   -0.17574E-04  5566   0.129E-02    0.111E-02
RMM:   8    -0.413176384284E+03    0.53430E-05   -0.29007E-05  4657   0.555E-03    0.755E-03
RMM:   9    -0.413176380862E+03    0.34217E-05   -0.40137E-06  2813   0.246E-03    0.496E-03
RMM:  10    -0.413176379900E+03    0.96230E-06   -0.10281E-06  2488   0.161E-03
   25 T=    63. E= -.41286651E+03 F= -.41317638E+03 E0= -.41315458E+03  EK= 0.30987E+00 SP= 0.00E+00 SK= 0.00E+00
       N       E                     dE             d eps       ncg     rms          rms(c)
RMM:   1    -0.413173119377E+03    0.32615E-02   -0.10302E+01  4299   0.762E-01    0.920E-01
RMM:   2    -0.413180371228E+03   -0.72519E-02   -0.12546E-01  4276   0.100E-01    0.649E-01
RMM:   3    -0.413177958070E+03    0.24132E-02   -0.10635E-02  4696   0.449E-02    0.130E-01
RMM:   4    -0.413197674867E+03   -0.19717E-01   -0.20151E-02  5145   0.118E-01    0.588E-01
RMM:   5    -0.413177691994E+03    0.19983E-01   -0.10011E-02  4810   0.972E-02    0.424E-02
RMM:   6    -0.413177779167E+03   -0.87173E-04   -0.16571E-03  5821   0.383E-02    0.254E-02
RMM:   7    -0.413177772513E+03    0.66536E-05   -0.19943E-04  5659   0.140E-02    0.125E-02
RMM:   8    -0.413177766239E+03    0.62743E-05   -0.42784E-05  4921   0.671E-03    0.870E-03
RMM:   9    -0.413177760029E+03    0.62096E-05   -0.91151E-06  3646   0.351E-03    0.658E-03
RMM:  10    -0.413177755293E+03    0.47360E-05   -0.13683E-06  2525   0.204E-03    0.410E-03
RMM:  11    -0.413177748314E+03    0.69794E-05   -0.15347E-06  2530   0.199E-03    0.202E-03
RMM:  12    -0.413177740173E+03    0.81413E-05   -0.10285E-06  2463   0.165E-03    0.726E-04
RMM:  13    -0.413177738588E+03    0.15844E-05   -0.35914E-07  2142   0.104E-03    0.531E-04
RMM:  14    -0.413177737776E+03    0.81260E-06   -0.16940E-07  1590   0.759E-04
   26 T=    63. E= -.41286648E+03 F= -.41317774E+03 E0= -.41315599E+03  EK= 0.31125E+00 SP= 0.00E+00 SK= 0.00E+00
       N       E                     dE             d eps       ncg     rms          rms(c)
RMM:   1    -0.413174502196E+03    0.32364E-02   -0.10268E+01  4291   0.781E-01    0.897E-01
RMM:   2    -0.413182303428E+03   -0.78012E-02   -0.12698E-01  4269   0.102E-01    0.650E-01
RMM:   3    -0.413179684616E+03    0.26188E-02   -0.10603E-02  4662   0.466E-02    0.121E-01
RMM:   4    -0.413198380724E+03   -0.18696E-01   -0.19102E-02  5146   0.115E-01    0.573E-01
RMM:   5    -0.413179424720E+03    0.18956E-01   -0.95150E-03  4812   0.946E-02    0.411E-02
RMM:   6    -0.413179509231E+03   -0.84511E-04   -0.15784E-03  5818   0.374E-02    0.255E-02
RMM:   7    -0.413179508230E+03    0.10007E-05   -0.22002E-04  5662   0.145E-02    0.137E-02
RMM:   8    -0.413179503445E+03    0.47854E-05   -0.46270E-05  4922   0.708E-03    0.857E-03
RMM:   9    -0.413179498369E+03    0.50761E-05   -0.93157E-06  3686   0.362E-03    0.635E-03
RMM:  10    -0.413179495506E+03    0.28628E-05   -0.13568E-06  2524   0.200E-03    0.389E-03
RMM:  11    -0.413179491814E+03    0.36921E-05   -0.13180E-06  2515   0.186E-03    0.187E-03
RMM:  12    -0.413179487606E+03    0.42076E-05   -0.98289E-07  2457   0.157E-03    0.659E-04
RMM:  13    -0.413179486588E+03    0.10183E-05   -0.33600E-07  2106   0.101E-03    0.464E-04
RMM:  14    -0.413179486057E+03    0.53109E-06   -0.16133E-07  1553   0.744E-04
   27 T=    64. E= -.41286665E+03 F= -.41317949E+03 E0= -.41315779E+03  EK= 0.31284E+00 SP= 0.00E+00 SK= 0.00E+00
       N       E                     dE             d eps       ncg     rms          rms(c)
RMM:   1    -0.413181673933E+03   -0.21873E-02   -0.10439E+01  4292   0.824E-01    0.904E-01
RMM:   2    -0.413183647946E+03   -0.19740E-02   -0.14160E-01  4267   0.109E-01    0.663E-01
RMM:   3    -0.413180815526E+03    0.28324E-02   -0.10316E-02  4565   0.457E-02    0.131E-01
RMM:   4    -0.413194303464E+03   -0.13488E-01   -0.13954E-02  5154   0.997E-02    0.488E-01
RMM:   5    -0.413180629987E+03    0.13673E-01   -0.68702E-03  4819   0.803E-02    0.388E-02
RMM:   6    -0.413180679408E+03   -0.49421E-04   -0.11377E-03  5855   0.316E-02    0.226E-02
RMM:   7    -0.413180676004E+03    0.34032E-05   -0.14204E-04  5531   0.122E-02    0.105E-02
RMM:   8    -0.413180672253E+03    0.37510E-05   -0.25024E-05  4608   0.536E-03    0.702E-03
RMM:   9    -0.413180669404E+03    0.28495E-05   -0.56477E-06  3153   0.285E-03    0.539E-03
RMM:  10    -0.413180667825E+03    0.15786E-05   -0.10905E-06  2508   0.185E-03    0.330E-03
RMM:  11    -0.413180664694E+03    0.31317E-05   -0.13396E-06  2511   0.185E-03    0.162E-03
RMM:  12    -0.413180661668E+03    0.30254E-05   -0.77989E-07  2407   0.143E-03    0.819E-04
RMM:  13    -0.413180661139E+03    0.52965E-06   -0.24797E-07  2001   0.897E-04
   28 T=    64. E= -.41286633E+03 F= -.41318066E+03 E0= -.41315901E+03  EK= 0.31433E+00 SP= 0.00E+00 SK= 0.00E+00
       N       E                     dE             d eps       ncg     rms          rms(c)
RMM:   1    -0.413182653941E+03   -0.19923E-02   -0.10458E+01  4291   0.823E-01    0.928E-01
RMM:   2    -0.413185362343E+03   -0.27084E-02   -0.12739E-01  4273   0.105E-01    0.655E-01
RMM:   3    -0.413182732609E+03    0.26297E-02   -0.11100E-02  4436   0.472E-02    0.120E-01
RMM:   4    -0.413188901505E+03   -0.61689E-02   -0.66515E-03  5153   0.681E-02    0.332E-01
RMM:   5    -0.413182682369E+03    0.62191E-02   -0.31900E-03  4829   0.548E-02    0.377E-02
RMM:   6    -0.413182700137E+03   -0.17768E-04   -0.66217E-04  5782   0.240E-02    0.232E-02
RMM:   7    -0.413182689543E+03    0.10594E-04   -0.20512E-04  5314   0.144E-02    0.152E-02
RMM:   8    -0.413182674929E+03    0.14614E-04   -0.15615E-05  4079   0.535E-03    0.640E-03
RMM:   9    -0.413182671105E+03    0.38244E-05   -0.34378E-06  2786   0.245E-03    0.427E-03
RMM:  10    -0.413182665360E+03    0.57444E-05   -0.14161E-06  2492   0.196E-03    0.230E-03
RMM:  11    -0.413182659227E+03    0.61335E-05   -0.76094E-07  2451   0.151E-03    0.107E-03
RMM:  12    -0.413182654616E+03    0.46107E-05   -0.38979E-07  2148   0.108E-03    0.492E-04
RMM:  13    -0.413182651791E+03    0.28247E-05   -0.22598E-07  1741   0.826E-04    0.251E-04
RMM:  14    -0.413182648096E+03    0.36950E-05   -0.13529E-07  1404   0.716E-04    0.163E-04
RMM:  15    -0.413182643203E+03    0.48937E-05   -0.10923E-07  1306   0.681E-04    0.875E-05
RMM:  16    -0.413182641151E+03    0.20513E-05   -0.56514E-08  1010   0.601E-04    0.647E-05
RMM:  17    -0.413182636619E+03    0.45325E-05   -0.79445E-08  1281   0.638E-04    0.462E-05
RMM:  18    -0.413182635528E+03    0.10906E-05   -0.31891E-08   868   0.542E-04    0.247E-05
RMM:  19    -0.413182635087E+03    0.44078E-06   -0.13705E-08   696   0.515E-04
   29 T=    64. E= -.41286652E+03 F= -.41318264E+03 E0= -.41316104E+03  EK= 0.31611E+00 SP= 0.00E+00 SK= 0.00E+00
       N       E                     dE             d eps       ncg     rms          rms(c)
RMM:   1    -0.413179663190E+03    0.29723E-02   -0.10364E+01  4288   0.797E-01    0.907E-01
RMM:   2    -0.413187616676E+03   -0.79535E-02   -0.12891E-01  4265   0.112E-01    0.654E-01
RMM:   3    -0.413184634881E+03    0.29818E-02   -0.10904E-02  4500   0.500E-02    0.119E-01
RMM:   4    -0.413195500977E+03   -0.10866E-01   -0.11208E-02  5149   0.891E-02    0.439E-01
RMM:   5    -0.413184511669E+03    0.10989E-01   -0.55718E-03  4824   0.723E-02    0.387E-02
RMM:   6    -0.413184550968E+03   -0.39299E-04   -0.96756E-04  5832   0.292E-02    0.235E-02
RMM:   7    -0.413184553002E+03   -0.20344E-05   -0.21268E-04  5465   0.144E-02    0.156E-02
RMM:   8    -0.413184536683E+03    0.16319E-04   -0.29195E-05  4638   0.641E-03    0.692E-03
RMM:   9    -0.413184534514E+03    0.21694E-05   -0.55719E-06  3074   0.295E-03    0.520E-03
RMM:  10    -0.413184530894E+03    0.36191E-05   -0.13241E-06  2494   0.197E-03    0.293E-03
RMM:  11    -0.413184527140E+03    0.37540E-05   -0.86435E-07  2470   0.158E-03    0.148E-03
RMM:  12    -0.413184523346E+03    0.37945E-05   -0.58178E-07  2364   0.126E-03    0.729E-04
RMM:  13    -0.413184521898E+03    0.14476E-05   -0.24616E-07  1924   0.878E-04    0.321E-04
RMM:  14    -0.413184520369E+03    0.15299E-05   -0.12970E-07  1332   0.699E-04    0.203E-04
RMM:  15    -0.413184517651E+03    0.27176E-05   -0.96587E-08  1252   0.667E-04    0.855E-05
RMM:  16    -0.413184516073E+03    0.15782E-05   -0.54243E-08   974   0.611E-04    0.737E-05
RMM:  17    -0.413184514371E+03    0.17016E-05   -0.42227E-08   928   0.596E-04    0.522E-05
RMM:  18    -0.413184511661E+03    0.27103E-05   -0.51429E-08  1066   0.609E-04    0.310E-05
RMM:  19    -0.413184511082E+03    0.57848E-06   -0.19039E-08   742   0.546E-04
   30 T=    65. E= -.41286664E+03 F= -.41318451E+03 E0= -.41316296E+03  EK= 0.31787E+00 SP= 0.00E+00 SK= 0.00E+00
       N       E                     dE             d eps       ncg     rms          rms(c)
RMM:   1    -0.413182870701E+03    0.16410E-02   -0.10496E+01  4292   0.836E-01    0.908E-01
RMM:   2    -0.413189890076E+03   -0.70194E-02   -0.13549E-01  4277   0.121E-01    0.667E-01
RMM:   3    -0.413186228986E+03    0.36611E-02   -0.11280E-02  4435   0.562E-02    0.114E-01
RMM:   4    -0.413195564464E+03   -0.93355E-02   -0.96855E-03  5154   0.828E-02    0.407E-01
RMM:   5    -0.413186167082E+03    0.93974E-02   -0.47566E-03  4828   0.669E-02    0.376E-02
RMM:   6    -0.413186202946E+03   -0.35864E-04   -0.86467E-04  5840   0.274E-02    0.233E-02
RMM:   7    -0.413186207708E+03   -0.47618E-05   -0.21040E-04  5424   0.144E-02    0.155E-02
RMM:   8    -0.413186192769E+03    0.14939E-04   -0.25991E-05  4572   0.620E-03    0.680E-03
RMM:   9    -0.413186191503E+03    0.12656E-05   -0.47094E-06  2963   0.277E-03    0.495E-03
RMM:  10    -0.413186189474E+03    0.20294E-05   -0.13482E-06  2491   0.193E-03    0.277E-03
RMM:  11    -0.413186187368E+03    0.21057E-05   -0.88307E-07  2467   0.158E-03    0.138E-03
RMM:  12    -0.413186185305E+03    0.20637E-05   -0.54589E-07  2334   0.122E-03    0.688E-04
RMM:  13    -0.413186184376E+03    0.92811E-06   -0.23711E-07  1854   0.852E-04
   31 T=    65. E= -.41286649E+03 F= -.41318618E+03 E0= -.41316469E+03  EK= 0.31970E+00 SP= 0.00E+00 SK= 0.00E+00
       N       E                     dE             d eps       ncg     rms          rms(c)
RMM:   1    -0.413184363652E+03    0.18217E-02   -0.10535E+01  4291   0.820E-01    0.933E-01
RMM:   2    -0.413191999924E+03   -0.76363E-02   -0.13161E-01  4285   0.123E-01    0.663E-01
RMM:   3    -0.413188820957E+03    0.31790E-02   -0.11368E-02  4228   0.543E-02    0.119E-01
RMM:   4    -0.413189300491E+03   -0.47953E-03   -0.12616E-03  5034   0.274E-02    0.922E-02
RMM:   5    -0.413188878118E+03    0.42237E-03   -0.27542E-04  4788   0.168E-02    0.384E-02
RMM:   6    -0.413188886423E+03   -0.83047E-05   -0.29046E-04  5334   0.169E-02    0.270E-02
RMM:   7    -0.413188848380E+03    0.38043E-04   -0.16791E-04  4831   0.131E-02    0.147E-02
RMM:   8    -0.413188844990E+03    0.33907E-05   -0.17768E-05  4018   0.463E-03    0.496E-03
RMM:   9    -0.413188843212E+03    0.17772E-05   -0.23444E-06  2481   0.205E-03    0.238E-03
RMM:  10    -0.413188834287E+03    0.89253E-05   -0.88230E-07  2404   0.146E-03    0.917E-04
RMM:  11    -0.413188829237E+03    0.50497E-05   -0.30482E-07  1944   0.897E-04    0.431E-04
RMM:  12    -0.413188825364E+03    0.38736E-05   -0.17745E-07  1643   0.760E-04    0.262E-04
RMM:  13    -0.413188821513E+03    0.38508E-05   -0.12342E-07  1400   0.687E-04    0.148E-04
RMM:  14    -0.413188816103E+03    0.54105E-05   -0.95571E-08  1225   0.654E-04    0.101E-04
RMM:  15    -0.413188812418E+03    0.36850E-05   -0.51795E-08   946   0.590E-04    0.713E-05
RMM:  16    -0.413188808503E+03    0.39149E-05   -0.51605E-08   989   0.590E-04    0.497E-05
RMM:  17    -0.413188807512E+03    0.99074E-06   -0.19832E-08   693   0.530E-04
   32 T=    66. E= -.41286685E+03 F= -.41318881E+03 E0= -.41316736E+03  EK= 0.32195E+00 SP= 0.00E+00 SK= 0.00E+00
       N       E                     dE             d eps       ncg     rms          rms(c)
RMM:   1    -0.413186159356E+03    0.26491E-02   -0.10503E+01  4288   0.834E-01    0.920E-01
RMM:   2    -0.413193913838E+03   -0.77545E-02   -0.13246E-01  4277   0.125E-01    0.659E-01
RMM:   3    -0.413190712138E+03    0.32017E-02   -0.11108E-02  4194   0.512E-02    0.119E-01
RMM:   4    -0.413190825876E+03   -0.11374E-03   -0.94135E-04  4597   0.203E-02    0.363E-02
RMM:   5    -0.413190958854E+03   -0.13298E-03   -0.24036E-04  5138   0.148E-02    0.580E-02
RMM:   6    -0.413190844180E+03    0.11467E-03   -0.22340E-04  5195   0.143E-02    0.319E-02
RMM:   7    -0.413190787123E+03    0.57057E-04   -0.17038E-04  4967   0.134E-02    0.108E-02
RMM:   8    -0.413190784699E+03    0.24244E-05   -0.15661E-05  4089   0.467E-03    0.407E-03
RMM:   9    -0.413190783032E+03    0.16663E-05   -0.18687E-06  2459   0.196E-03    0.188E-03
RMM:  10    -0.413190776697E+03    0.63357E-05   -0.73897E-07  2365   0.137E-03    0.985E-04
RMM:  11    -0.413190772113E+03    0.45838E-05   -0.24627E-07  1720   0.829E-04    0.497E-04
RMM:  12    -0.413190768432E+03    0.36811E-05   -0.10864E-07  1116   0.656E-04    0.307E-04
RMM:  13    -0.413190765559E+03    0.28728E-05   -0.68097E-08   967   0.612E-04    0.179E-04
RMM:  14    -0.413190760150E+03    0.54093E-05   -0.11480E-07  1420   0.688E-04    0.197E-04
RMM:  15    -0.413190759447E+03    0.70298E-06   -0.22395E-08   602   0.534E-04
   33 T=    66. E= -.41286668E+03 F= -.41319076E+03 E0= -.41316936E+03  EK= 0.32408E+00 SP= 0.00E+00 SK= 0.00E+00
       N       E                     dE             d eps       ncg     rms          rms(c)
RMM:   1    -0.413197351518E+03   -0.65914E-02   -0.10693E+01  4298   0.916E-01    0.911E-01
RMM:   2    -0.413196479383E+03    0.87213E-03   -0.15320E-01  4277   0.135E-01    0.673E-01
RMM:   3    -0.413193165179E+03    0.33142E-02   -0.10577E-02  4202   0.546E-02    0.135E-01
RMM:   4    -0.413193313676E+03   -0.14850E-03   -0.12709E-03  4785   0.250E-02    0.521E-02
RMM:   5    -0.413193242224E+03    0.71452E-04   -0.13421E-04  4782   0.114E-02    0.412E-02
RMM:   6    -0.413193227046E+03    0.15178E-04   -0.23485E-04  5224   0.151E-02    0.253E-02
RMM:   7    -0.413193200012E+03    0.27034E-04   -0.16456E-04  4815   0.125E-02    0.140E-02
RMM:   8    -0.413193197193E+03    0.28191E-05   -0.15070E-05  3609   0.423E-03    0.424E-03
RMM:   9    -0.413193196611E+03    0.58267E-06   -0.20760E-06  2361   0.196E-03
   34 T=    66. E= -.41286667E+03 F= -.41319320E+03 E0= -.41317185E+03  EK= 0.32653E+00 SP= 0.00E+00 SK= 0.00E+00
       N       E                     dE             d eps       ncg     rms          rms(c)
RMM:   1    -0.413194263157E+03   -0.10660E-02   -0.10717E+01  4301   0.897E-01    0.937E-01
RMM:   2    -0.413198928999E+03   -0.46658E-02   -0.13830E-01  4269   0.130E-01    0.673E-01
RMM:   3    -0.413195863373E+03    0.30656E-02   -0.11435E-02  4344   0.561E-02    0.122E-01
RMM:   4    -0.413197278099E+03   -0.14147E-02   -0.22317E-03  5158   0.394E-02    0.160E-01
RMM:   5    -0.413195920024E+03    0.13581E-02   -0.73933E-04  4799   0.276E-02    0.391E-02
RMM:   6    -0.413195908672E+03    0.11352E-04   -0.30713E-04  5462   0.180E-02    0.294E-02
RMM:   7    -0.413195889715E+03    0.18957E-04   -0.20489E-04  4903   0.127E-02    0.164E-02
RMM:   8    -0.413195883238E+03    0.64771E-05   -0.17343E-05  4049   0.472E-03    0.619E-03
RMM:   9    -0.413195881540E+03    0.16982E-05   -0.33229E-06  2508   0.203E-03    0.259E-03
RMM:  10    -0.413195873821E+03    0.77189E-05   -0.96191E-07  2427   0.157E-03    0.124E-03
RMM:  11    -0.413195868840E+03    0.49811E-05   -0.40817E-07  2068   0.104E-03    0.604E-04
RMM:  12    -0.413195863445E+03    0.53945E-05   -0.25797E-07  1763   0.857E-04    0.243E-04
RMM:  13    -0.413195859323E+03    0.41225E-05   -0.13125E-07  1234   0.692E-04    0.182E-04
RMM:  14    -0.413195852939E+03    0.63839E-05   -0.11876E-07  1214   0.673E-04    0.136E-04
RMM:  15    -0.413195847023E+03    0.59161E-05   -0.10037E-07  1243   0.649E-04    0.849E-05
RMM:  16    -0.413195844856E+03    0.21666E-05   -0.44909E-08   809   0.558E-04    0.578E-05
RMM:  17    -0.413195842333E+03    0.25227E-05   -0.36376E-08   804   0.556E-04    0.265E-05
RMM:  18    -0.413195841883E+03    0.45048E-06   -0.16275E-08   569   0.515E-04
   35 T=    67. E= -.41286670E+03 F= -.41319584E+03 E0= -.41317454E+03  EK= 0.32914E+00 SP= 0.00E+00 SK= 0.00E+00
       N       E                     dE             d eps       ncg     rms          rms(c)
RMM:   1    -0.413201280462E+03   -0.54381E-02   -0.10766E+01  4298   0.940E-01    0.937E-01
RMM:   2    -0.413200734127E+03    0.54633E-03   -0.13664E-01  4250   0.131E-01    0.667E-01
RMM:   3    -0.413198026977E+03    0.27072E-02   -0.11675E-02  4547   0.587E-02    0.132E-01
RMM:   4    -0.413212686046E+03   -0.14659E-01   -0.14905E-02  5167   0.103E-01    0.510E-01
RMM:   5    -0.413197926877E+03    0.14759E-01   -0.74534E-03  4806   0.845E-02    0.427E-02
RMM:   6    -0.413197937776E+03   -0.10900E-04   -0.13793E-03  5827   0.351E-02    0.283E-02
RMM:   7    -0.413197944613E+03   -0.68368E-05   -0.29595E-04  5477   0.166E-02    0.179E-02
RMM:   8    -0.413197926686E+03    0.17927E-04   -0.41558E-05  4892   0.738E-03    0.814E-03
RMM:   9    -0.413197923627E+03    0.30586E-05   -0.76428E-06  3325   0.341E-03    0.574E-03
RMM:  10    -0.413197917733E+03    0.58942E-05   -0.14100E-06  2519   0.211E-03    0.320E-03
RMM:  11    -0.413197912226E+03    0.55071E-05   -0.98686E-07  2493   0.164E-03    0.170E-03
RMM:  12    -0.413197905035E+03    0.71908E-05   -0.81977E-07  2455   0.148E-03    0.823E-04
RMM:  13    -0.413197902054E+03    0.29817E-05   -0.32926E-07  2116   0.100E-03    0.426E-04
RMM:  14    -0.413197900470E+03    0.15838E-05   -0.15559E-07  1499   0.736E-04    0.294E-04
RMM:  15    -0.413197896372E+03    0.40978E-05   -0.10115E-07  1276   0.676E-04    0.115E-04
RMM:  16    -0.413197893467E+03    0.29052E-05   -0.61987E-08  1060   0.626E-04    0.804E-05
RMM:  17    -0.413197890779E+03    0.26878E-05   -0.45177E-08   974   0.600E-04    0.728E-05
RMM:  18    -0.413197886597E+03    0.41819E-05   -0.51923E-08  1157   0.617E-04    0.464E-05
RMM:  19    -0.413197885461E+03    0.11366E-05   -0.23056E-08   814   0.545E-04    0.304E-05
RMM:  20    -0.413197885067E+03    0.39314E-06   -0.12210E-08   680   0.526E-04
   36 T=    68. E= -.41286633E+03 F= -.41319789E+03 E0= -.41317662E+03  EK= 0.33156E+00 SP= 0.00E+00 SK= 0.00E+00
       N       E                     dE             d eps       ncg     rms          rms(c)
RMM:   1    -0.413212180285E+03   -0.14295E-01   -0.10910E+01  4301   0.104E+00    0.921E-01
RMM:   2    -0.413204541810E+03    0.76385E-02   -0.15980E-01  4253   0.143E-01    0.679E-01
RMM:   3    -0.413201163265E+03    0.33785E-02   -0.10822E-02  4655   0.583E-02    0.157E-01
RMM:   4    -0.413226910948E+03   -0.25748E-01   -0.26242E-02  5161   0.136E-01    0.670E-01
RMM:   5    -0.413200900305E+03    0.26011E-01   -0.13140E-02  4799   0.112E-01    0.462E-02
RMM:   6    -0.413200937558E+03   -0.37254E-04   -0.22069E-03  5852   0.440E-02    0.290E-02
RMM:   7    -0.413200948326E+03   -0.10768E-04   -0.29368E-04  5656   0.162E-02    0.155E-02
RMM:   8    -0.413200940086E+03    0.82405E-05   -0.55311E-05  4979   0.780E-03    0.922E-03
RMM:   9    -0.413200938791E+03    0.12952E-05   -0.16450E-05  4358   0.459E-03    0.686E-03
RMM:  10    -0.413200934678E+03    0.41130E-05   -0.20051E-06  2588   0.234E-03    0.401E-03
RMM:  11    -0.413200932337E+03    0.23403E-05   -0.11269E-06  2500   0.171E-03    0.249E-03
RMM:  12    -0.413200926706E+03    0.56317E-05   -0.16327E-06  2528   0.203E-03    0.116E-03
RMM:  13    -0.413200924246E+03    0.24599E-05   -0.55993E-07  2348   0.132E-03    0.696E-04
RMM:  14    -0.413200924054E+03    0.19145E-06   -0.22874E-07  1869   0.849E-04
   37 T=    68. E= -.41286668E+03 F= -.41320092E+03 E0= -.41317971E+03  EK= 0.33425E+00 SP= 0.00E+00 SK= 0.00E+00
       N       E                     dE             d eps       ncg     rms          rms(c)
RMM:   1    -0.413220864944E+03   -0.19941E-01   -0.11076E+01  4305   0.108E+00    0.940E-01
RMM:   2    -0.413207208558E+03    0.13656E-01   -0.16494E-01  4254   0.134E-01    0.684E-01
RMM:   3    -0.413203659667E+03    0.35489E-02   -0.10870E-02  4750   0.542E-02    0.173E-01
RMM:   4    -0.413237194851E+03   -0.33535E-01   -0.34291E-02  5155   0.155E-01    0.763E-01
RMM:   5    -0.413203238085E+03    0.33957E-01   -0.17266E-02  4799   0.128E-01    0.494E-02
RMM:   6    -0.413203298890E+03   -0.60805E-04   -0.27471E-03  5848   0.497E-02    0.311E-02
RMM:   7    -0.413203309340E+03   -0.10450E-04   -0.34921E-04  5709   0.174E-02    0.163E-02
RMM:   8    -0.413203301563E+03    0.77778E-05   -0.59790E-05  5017   0.797E-03    0.966E-03
RMM:   9    -0.413203299582E+03    0.19803E-05   -0.20722E-05  4546   0.493E-03    0.720E-03
RMM:  10    -0.413203293562E+03    0.60203E-05   -0.26353E-06  2645   0.256E-03    0.418E-03
RMM:  11    -0.413203290011E+03    0.35505E-05   -0.13178E-06  2496   0.186E-03    0.256E-03
RMM:  12    -0.413203281530E+03    0.84810E-05   -0.17334E-06  2533   0.214E-03    0.120E-03
RMM:  13    -0.413203277984E+03    0.35462E-05   -0.61483E-07  2375   0.139E-03    0.801E-04
RMM:  14    -0.413203277864E+03    0.12069E-06   -0.24483E-07  1956   0.892E-04
   38 T=    69. E= -.41286654E+03 F= -.41320328E+03 E0= -.41318210E+03  EK= 0.33674E+00 SP= 0.00E+00 SK= 0.00E+00
       N       E                     dE             d eps       ncg     rms          rms(c)
RMM:   1    -0.413205223273E+03   -0.19453E-02   -0.10915E+01  4304   0.102E+00    0.954E-01
RMM:   2    -0.413209479155E+03   -0.42559E-02   -0.14273E-01  4250   0.123E-01    0.677E-01
RMM:   3    -0.413206556193E+03    0.29230E-02   -0.12163E-02  4931   0.562E-02    0.172E-01
RMM:   4    -0.413249501914E+03   -0.42946E-01   -0.45550E-02  5136   0.178E-01    0.861E-01
RMM:   5    -0.413205794500E+03    0.43707E-01   -0.21773E-02  4796   0.144E-01    0.544E-02
RMM:   6    -0.413205900867E+03   -0.10637E-03   -0.35331E-03  5832   0.560E-02    0.335E-02
RMM:   7    -0.413205913340E+03   -0.12473E-04   -0.41466E-04  5694   0.187E-02    0.173E-02
RMM:   8    -0.413205904146E+03    0.91939E-05   -0.50844E-05  4766   0.705E-03    0.874E-03
RMM:   9    -0.413205896896E+03    0.72502E-05   -0.97036E-06  3208   0.332E-03    0.535E-03
RMM:  10    -0.413205892352E+03    0.45443E-05   -0.19545E-06  2546   0.209E-03    0.362E-03
RMM:  11    -0.413205884889E+03    0.74623E-05   -0.17450E-06  2516   0.213E-03    0.200E-03
RMM:  12    -0.413205875797E+03    0.90926E-05   -0.11984E-06  2480   0.186E-03    0.982E-04
RMM:  13    -0.413205872871E+03    0.29252E-05   -0.44854E-07  2324   0.120E-03    0.682E-04
RMM:  14    -0.413205872160E+03    0.71141E-06   -0.20633E-07  1788   0.814E-04
   39 T=    69. E= -.41286655E+03 F= -.41320587E+03 E0= -.41318473E+03  EK= 0.33932E+00 SP= 0.00E+00 SK= 0.00E+00
       N       E                     dE             d eps       ncg     rms          rms(c)
RMM:   1    -0.413227195490E+03   -0.21323E-01   -0.11116E+01  4308   0.117E+00    0.931E-01
RMM:   2    -0.413212924322E+03    0.14271E-01   -0.16703E-01  4257   0.133E-01    0.683E-01
RMM:   3    -0.413209957258E+03    0.29671E-02   -0.11285E-02  5008   0.577E-02    0.212E-01
RMM:   4    -0.413263852804E+03   -0.53896E-01   -0.59218E-02  5132   0.202E-01    0.962E-01
RMM:   5    -0.413208646486E+03    0.55206E-01   -0.27187E-02  4788   0.162E-01    0.592E-02
RMM:   6    -0.413208802913E+03   -0.15643E-03   -0.43976E-03  5823   0.625E-02    0.348E-02
RMM:   7    -0.413208821535E+03   -0.18622E-04   -0.52065E-04  5812   0.204E-02    0.204E-02
RMM:   8    -0.413208824446E+03   -0.29104E-05   -0.11439E-04  5251   0.104E-02    0.134E-02
RMM:   9    -0.413208811738E+03    0.12707E-04   -0.29312E-05  4740   0.606E-03    0.695E-03
RMM:  10    -0.413208807224E+03    0.45143E-05   -0.49700E-06  2878   0.300E-03    0.431E-03
RMM:  11    -0.413208803504E+03    0.37202E-05   -0.16157E-06  2503   0.209E-03    0.257E-03
RMM:  12    -0.413208796098E+03    0.74064E-05   -0.14331E-06  2505   0.200E-03    0.891E-04
RMM:  13    -0.413208792121E+03    0.39764E-05   -0.62901E-07  2414   0.139E-03    0.636E-04
RMM:  14    -0.413208791419E+03    0.70248E-06   -0.27392E-07  2014   0.927E-04
   40 T=    70. E= -.41286678E+03 F= -.41320879E+03 E0= -.41318769E+03  EK= 0.34201E+00 SP= 0.00E+00 SK= 0.00E+00
       N       E                     dE             d eps       ncg     rms          rms(c)
RMM:   1    -0.413227157470E+03   -0.18365E-01   -0.11223E+01  4309   0.119E+00    0.943E-01
RMM:   2    -0.413215111700E+03    0.12046E-01   -0.17369E-01  4262   0.140E-01    0.695E-01
RMM:   3    -0.413212556942E+03    0.25548E-02   -0.11868E-02  5038   0.618E-02    0.238E-01
RMM:   4    -0.413269256143E+03   -0.56699E-01   -0.64921E-02  5128   0.212E-01    0.989E-01
RMM:   5    -0.413210710964E+03    0.58545E-01   -0.28374E-02  4776   0.167E-01    0.619E-02
RMM:   6    -0.413210885148E+03   -0.17418E-03   -0.46735E-03  5805   0.644E-02    0.354E-02
RMM:   7    -0.413210904378E+03   -0.19230E-04   -0.57086E-04  5827   0.211E-02    0.224E-02
RMM:   8    -0.413210906865E+03   -0.24867E-05   -0.13060E-04  5273   0.112E-02    0.141E-02
RMM:   9    -0.413210893245E+03    0.13620E-04   -0.28027E-05  4684   0.618E-03    0.656E-03
RMM:  10    -0.413210889044E+03    0.42015E-05   -0.59534E-06  3027   0.306E-03    0.411E-03
RMM:  11    -0.413210885521E+03    0.35232E-05   -0.15414E-06  2506   0.206E-03    0.243E-03
RMM:  12    -0.413210878955E+03    0.65656E-05   -0.12475E-06  2492   0.188E-03    0.817E-04
RMM:  13    -0.413210875198E+03    0.37566E-05   -0.59128E-07  2400   0.133E-03    0.536E-04
RMM:  14    -0.413210874263E+03    0.93574E-06   -0.27182E-07  2012   0.917E-04
   41 T=    70. E= -.41286654E+03 F= -.41321087E+03 E0= -.41318981E+03  EK= 0.34434E+00 SP= 0.00E+00 SK= 0.00E+00
       N       E                     dE             d eps       ncg     rms          rms(c)
RMM:   1    -0.413216867615E+03   -0.59924E-02   -0.11120E+01  4311   0.118E+00    0.967E-01
RMM:   2    -0.413217004636E+03   -0.13702E-03   -0.14994E-01  4275   0.134E-01    0.687E-01
RMM:   3    -0.413216545262E+03    0.45937E-03   -0.14424E-02  5078   0.727E-02    0.274E-01
RMM:   4    -0.413257193244E+03   -0.40648E-01   -0.54717E-02  5097   0.196E-01    0.861E-01
RMM:   5    -0.413213373350E+03    0.43820E-01   -0.19837E-02  4748   0.144E-01    0.599E-02
RMM:   6    -0.413213462792E+03   -0.89443E-04   -0.34589E-03  5778   0.557E-02    0.348E-02
RMM:   7    -0.413213473676E+03   -0.10884E-04   -0.47044E-04  5758   0.197E-02    0.220E-02
RMM:   8    -0.413213471835E+03    0.18415E-05   -0.12599E-04  5215   0.113E-02    0.130E-02
RMM:   9    -0.413213456596E+03    0.15239E-04   -0.22034E-05  4508   0.578E-03    0.553E-03
RMM:  10    -0.413213450607E+03    0.59890E-05   -0.47833E-06  2916   0.278E-03    0.351E-03
RMM:  11    -0.413213444922E+03    0.56852E-05   -0.12634E-06  2496   0.191E-03    0.195E-03
RMM:  12    -0.413213435615E+03    0.93064E-05   -0.87894E-07  2465   0.163E-03    0.716E-04
RMM:  13    -0.413213430296E+03    0.53191E-05   -0.42484E-07  2280   0.114E-03    0.386E-04
RMM:  14    -0.413213428300E+03    0.19961E-05   -0.21669E-07  1805   0.831E-04    0.262E-04
RMM:  15    -0.413213423488E+03    0.48118E-05   -0.13069E-07  1387   0.712E-04    0.131E-04
RMM:  16    -0.413213418996E+03    0.44924E-05   -0.89565E-08  1223   0.663E-04    0.134E-04
RMM:  17    -0.413213415702E+03    0.32938E-05   -0.62006E-08  1098   0.627E-04    0.814E-05
RMM:  18    -0.413213412019E+03    0.36832E-05   -0.59638E-08  1247   0.625E-04    0.559E-05
RMM:  19    -0.413213409433E+03    0.25862E-05   -0.38288E-08  1065   0.582E-04    0.355E-05
RMM:  20    -0.413213408924E+03    0.50907E-06   -0.18500E-08   767   0.535E-04
   42 T=    71. E= -.41286679E+03 F= -.41321341E+03 E0= -.41319238E+03  EK= 0.34662E+00 SP= 0.00E+00 SK= 0.00E+00
       N       E                     dE             d eps       ncg     rms          rms(c)
RMM:   1    -0.413236446566E+03   -0.23037E-01   -0.11248E+01  4310   0.134E+00    0.945E-01
RMM:   2    -0.413219098391E+03    0.17348E-01   -0.16634E-01  4286   0.149E-01    0.688E-01
RMM:   3    -0.413219803487E+03   -0.70510E-03   -0.14615E-02  5078   0.805E-02    0.321E-01
RMM:   4    -0.413256680174E+03   -0.36877E-01   -0.55120E-02  5092   0.198E-01    0.837E-01
RMM:   5    -0.413215414311E+03    0.41266E-01   -0.18189E-02  4729   0.140E-01    0.607E-02
RMM:   6    -0.413215473991E+03   -0.59680E-04   -0.32029E-03  5755   0.537E-02    0.343E-02
RMM:   7    -0.413215481239E+03   -0.72475E-05   -0.46121E-04  5782   0.194E-02    0.227E-02
RMM:   8    -0.413215478720E+03    0.25186E-05   -0.12071E-04  5197   0.113E-02    0.120E-02
RMM:   9    -0.413215466757E+03    0.11963E-04   -0.20915E-05  4470   0.568E-03    0.476E-03
RMM:  10    -0.413215463176E+03    0.35812E-05   -0.42504E-06  2821   0.263E-03    0.303E-03
RMM:  11    -0.413215458958E+03    0.42177E-05   -0.12965E-06  2501   0.187E-03    0.165E-03
RMM:  12    -0.413215453286E+03    0.56726E-05   -0.75284E-07  2450   0.148E-03    0.612E-04
RMM:  13    -0.413215450055E+03    0.32303E-05   -0.37497E-07  2115   0.104E-03    0.293E-04
RMM:  14    -0.413215448012E+03    0.20431E-05   -0.20285E-07  1605   0.799E-04    0.192E-04
RMM:  15    -0.413215443976E+03    0.40365E-05   -0.14121E-07  1309   0.719E-04    0.109E-04
RMM:  16    -0.413215441871E+03    0.21048E-05   -0.88520E-08  1133   0.661E-04    0.810E-05
RMM:  17    -0.413215439362E+03    0.25092E-05   -0.70307E-08  1140   0.645E-04    0.505E-05
RMM:  18    -0.413215436770E+03    0.25920E-05   -0.57260E-08  1122   0.624E-04    0.356E-05
RMM:  19    -0.413215435140E+03    0.16293E-05   -0.39237E-08   990   0.583E-04    0.215E-05
RMM:  20    -0.413215434596E+03    0.54427E-06   -0.20680E-08   770   0.549E-04
   43 T=    71. E= -.41286691E+03 F= -.41321543E+03 E0= -.41319443E+03  EK= 0.34853E+00 SP= 0.00E+00 SK= 0.00E+00
       N       E                     dE             d eps       ncg     rms          rms(c)
RMM:   1    -0.413233420342E+03   -0.17985E-01   -0.11311E+01  4310   0.136E+00    0.948E-01
RMM:   2    -0.413220611686E+03    0.12809E-01   -0.16779E-01  4282   0.162E-01    0.701E-01
RMM:   3    -0.413222180371E+03   -0.15687E-02   -0.16134E-02  5071   0.892E-02    0.348E-01
RMM:   4    -0.413256480225E+03   -0.34300E-01   -0.55693E-02  5078   0.200E-01    0.821E-01
RMM:   5    -0.413216716620E+03    0.39764E-01   -0.17011E-02  4717   0.137E-01    0.606E-02
RMM:   6    -0.413216759983E+03   -0.43363E-04   -0.30192E-03  5737   0.523E-02    0.337E-02
RMM:   7    -0.413216760277E+03   -0.29357E-06   -0.43068E-04  5784   0.191E-02    0.225E-02
RMM:   8    -0.413216757550E+03    0.27267E-05   -0.11298E-04  5172   0.111E-02    0.115E-02
RMM:   9    -0.413216746856E+03    0.10694E-04   -0.20190E-05  4434   0.563E-03    0.447E-03
RMM:  10    -0.413216744298E+03    0.25579E-05   -0.40387E-06  2806   0.256E-03    0.280E-03
RMM:  11    -0.413216741057E+03    0.32404E-05   -0.13085E-06  2502   0.185E-03    0.152E-03
RMM:  12    -0.413216737001E+03    0.40563E-05   -0.72307E-07  2438   0.142E-03    0.587E-04
RMM:  13    -0.413216734577E+03    0.24238E-05   -0.36136E-07  2006   0.998E-04    0.275E-04
RMM:  14    -0.413216732721E+03    0.18558E-05   -0.20418E-07  1541   0.788E-04    0.171E-04
RMM:  15    -0.413216729400E+03    0.33219E-05   -0.15126E-07  1308   0.723E-04    0.999E-05
RMM:  16    -0.413216727704E+03    0.16959E-05   -0.92830E-08  1127   0.661E-04    0.734E-05
RMM:  17    -0.413216725417E+03    0.22863E-05   -0.76268E-08  1161   0.649E-04    0.435E-05
RMM:  18    -0.413216723384E+03    0.20335E-05   -0.56045E-08  1072   0.618E-04    0.352E-05
RMM:  19    -0.413216722150E+03    0.12336E-05   -0.35617E-08   917   0.580E-04    0.210E-05
RMM:  20    -0.413216721606E+03    0.54437E-06   -0.21286E-08   773   0.555E-04
   44 T=    71. E= -.41286671E+03 F= -.41321672E+03 E0= -.41319574E+03  EK= 0.35001E+00 SP= 0.00E+00 SK= 0.00E+00
       N       E                     dE             d eps       ncg     rms          rms(c)
RMM:   1    -0.413251323726E+03   -0.34602E-01   -0.11471E+01  4308   0.152E+00    0.974E-01
RMM:   2    -0.413221515610E+03    0.29808E-01   -0.16997E-01  4306   0.170E-01    0.696E-01
RMM:   3    -0.413227343078E+03   -0.58275E-02   -0.19458E-02  5116   0.105E-01    0.437E-01
RMM:   4    -0.413243479961E+03   -0.16137E-01   -0.45450E-02  5048   0.184E-01    0.663E-01
RMM:   5    -0.413218278349E+03    0.25202E-01   -0.97622E-03  4659   0.111E-01    0.574E-02
RMM:   6    -0.413218254177E+03    0.24172E-04   -0.19068E-03  5613   0.424E-02    0.331E-02
RMM:   7    -0.413218246687E+03    0.74896E-05   -0.32336E-04  5637   0.174E-02    0.219E-02
RMM:   8    -0.413218236232E+03    0.10456E-04   -0.11033E-04  5064   0.111E-02    0.102E-02
RMM:   9    -0.413218222921E+03    0.13311E-04   -0.15723E-05  4273   0.539E-03    0.414E-03
RMM:  10    -0.413218218985E+03    0.39353E-05   -0.29323E-06  2709   0.229E-03    0.243E-03
RMM:  11    -0.413218212688E+03    0.62974E-05   -0.11486E-06  2486   0.176E-03    0.133E-03
RMM:  12    -0.413218206516E+03    0.61725E-05   -0.58618E-07  2410   0.132E-03    0.601E-04
RMM:  13    -0.413218202884E+03    0.36311E-05   -0.28017E-07  1857   0.910E-04    0.286E-04
RMM:  14    -0.413218199554E+03    0.33300E-05   -0.16035E-07  1395   0.731E-04    0.158E-04
RMM:  15    -0.413218194472E+03    0.50820E-05   -0.12632E-07  1300   0.697E-04    0.119E-04
RMM:  16    -0.413218191813E+03    0.26592E-05   -0.77738E-08  1094   0.638E-04    0.903E-05
RMM:  17    -0.413218187181E+03    0.46320E-05   -0.79871E-08  1315   0.655E-04    0.638E-05
RMM:  18    -0.413218185080E+03    0.21016E-05   -0.44796E-08  1013   0.578E-04    0.412E-05
RMM:  19    -0.413218183790E+03    0.12894E-05   -0.28226E-08   853   0.547E-04    0.239E-05
RMM:  20    -0.413218183366E+03    0.42401E-06   -0.18148E-08   738   0.528E-04
   45 T=    71. E= -.41286701E+03 F= -.41321818E+03 E0= -.41319723E+03  EK= 0.35117E+00 SP= 0.00E+00 SK= 0.00E+00
       N       E                     dE             d eps       ncg     rms          rms(c)
RMM:   1    -0.413256835372E+03   -0.38652E-01   -0.11419E+01  4309   0.162E+00    0.956E-01
RMM:   2    -0.413221517825E+03    0.35318E-01   -0.17927E-01  4324   0.185E-01    0.692E-01
RMM:   3    -0.413229693714E+03   -0.81759E-02   -0.20622E-02  5114   0.114E-01    0.490E-01
RMM:   4    -0.413239400720E+03   -0.97070E-02   -0.43544E-02  5030   0.181E-01    0.613E-01
RMM:   5    -0.413218294557E+03    0.21106E-01   -0.79726E-03  4615   0.105E-01    0.571E-02
RMM:   6    -0.413218254345E+03    0.40212E-04   -0.15991E-03  5495   0.390E-02    0.321E-02
RMM:   7    -0.413218246705E+03    0.76407E-05   -0.27871E-04  5623   0.163E-02    0.217E-02
RMM:   8    -0.413218234252E+03    0.12452E-04   -0.11846E-04  5067   0.114E-02    0.101E-02
RMM:   9    -0.413218220374E+03    0.13878E-04   -0.16085E-05  4288   0.552E-03    0.408E-03
RMM:  10    -0.413218217056E+03    0.33186E-05   -0.28546E-06  2709   0.223E-03    0.236E-03
RMM:  11    -0.413218211044E+03    0.60114E-05   -0.12298E-06  2486   0.179E-03    0.129E-03
RMM:  12    -0.413218206126E+03    0.49186E-05   -0.56745E-07  2419   0.132E-03    0.647E-04
RMM:  13    -0.413218202751E+03    0.33744E-05   -0.26849E-07  1810   0.896E-04    0.313E-04
RMM:  14    -0.413218199418E+03    0.33331E-05   -0.15077E-07  1344   0.717E-04    0.165E-04
RMM:  15    -0.413218195336E+03    0.40825E-05   -0.11292E-07  1228   0.679E-04    0.113E-04
RMM:  16    -0.413218192838E+03    0.24974E-05   -0.71960E-08  1072   0.629E-04    0.947E-05
RMM:  17    -0.413218188981E+03    0.38574E-05   -0.68137E-08  1202   0.636E-04    0.607E-05
RMM:  18    -0.413218186676E+03    0.23046E-05   -0.44312E-08  1032   0.583E-04    0.455E-05
RMM:  19    -0.413218185726E+03    0.94996E-06   -0.25210E-08   829   0.540E-04
   46 T=    72. E= -.41286687E+03 F= -.41321819E+03 E0= -.41319725E+03  EK= 0.35131E+00 SP= 0.00E+00 SK= 0.00E+00
       N       E                     dE             d eps       ncg     rms          rms(c)
RMM:   1    -0.413242243275E+03   -0.24057E-01   -0.11293E+01  4309   0.163E+00    0.942E-01
RMM:   2    -0.413221289136E+03    0.20954E-01   -0.18784E-01  4324   0.196E-01    0.705E-01
RMM:   3    -0.413230047167E+03   -0.87580E-02   -0.21161E-02  5110   0.120E-01    0.512E-01
RMM:   4    -0.413240063859E+03   -0.10017E-01   -0.46613E-02  5031   0.188E-01    0.631E-01
RMM:   5    -0.413217545919E+03    0.22518E-01   -0.85303E-03  4609   0.109E-01    0.590E-02
RMM:   6    -0.413217496758E+03    0.49162E-04   -0.16651E-03  5478   0.399E-02    0.321E-02
RMM:   7    -0.413217489629E+03    0.71286E-05   -0.28401E-04  5666   0.164E-02    0.224E-02
RMM:   8    -0.413217474261E+03    0.15368E-04   -0.12248E-04  5106   0.115E-02    0.103E-02
RMM:   9    -0.413217461152E+03    0.13109E-04   -0.18096E-05  4367   0.578E-03    0.411E-03
RMM:  10    -0.413217458844E+03    0.23082E-05   -0.30804E-06  2713   0.229E-03    0.239E-03
RMM:  11    -0.413217454604E+03    0.42401E-05   -0.14448E-06  2517   0.189E-03    0.136E-03
RMM:  12    -0.413217451422E+03    0.31817E-05   -0.59761E-07  2440   0.136E-03    0.711E-04
RMM:  13    -0.413217448782E+03    0.26399E-05   -0.29906E-07  1844   0.931E-04    0.333E-04
RMM:  14    -0.413217446278E+03    0.25039E-05   -0.17094E-07  1389   0.741E-04    0.172E-04
RMM:  15    -0.413217443605E+03    0.26725E-05   -0.12596E-07  1262   0.689E-04    0.109E-04
RMM:  16    -0.413217441692E+03    0.19136E-05   -0.82385E-08  1122   0.636E-04    0.928E-05
RMM:  17    -0.413217439006E+03    0.26858E-05   -0.77155E-08  1250   0.637E-04    0.532E-05
RMM:  18    -0.413217437117E+03    0.18893E-05   -0.46261E-08   988   0.578E-04    0.441E-05
RMM:  19    -0.413217436468E+03    0.64882E-06   -0.24484E-08   784   0.537E-04
   47 T=    71. E= -.41286688E+03 F= -.41321744E+03 E0= -.41319652E+03  EK= 0.35056E+00 SP= 0.00E+00 SK= 0.00E+00
       N       E                     dE             d eps       ncg     rms          rms(c)
RMM:   1    -0.413246291316E+03   -0.28854E-01   -0.11269E+01  4306   0.176E+00    0.966E-01
RMM:   2    -0.413219238349E+03    0.27053E-01   -0.18038E-01  4376   0.204E-01    0.700E-01
RMM:   3    -0.413234854702E+03   -0.15616E-01   -0.27489E-02  5134   0.141E-01    0.613E-01
RMM:   4    -0.413229530405E+03    0.53243E-02   -0.41685E-02  4990   0.181E-01    0.503E-01
RMM:   5    -0.413215825539E+03    0.13705E-01   -0.50504E-03  4539   0.924E-02    0.569E-02
RMM:   6    -0.413215730514E+03    0.95025E-04   -0.82597E-04  5005   0.311E-02    0.301E-02
RMM:   7    -0.413215710938E+03    0.19576E-04   -0.16722E-04  5721   0.127E-02    0.138E-02
RMM:   8    -0.413215710980E+03   -0.42073E-07   -0.95005E-05  5259   0.993E-03    0.115E-02
RMM:   9    -0.413215695502E+03    0.15478E-04   -0.23403E-05  4604   0.589E-03    0.457E-03
RMM:  10    -0.413215692901E+03    0.26015E-05   -0.30785E-06  2713   0.249E-03    0.241E-03
RMM:  11    -0.413215686843E+03    0.60577E-05   -0.17067E-06  2490   0.209E-03    0.140E-03
RMM:  12    -0.413215682504E+03    0.43384E-05   -0.68664E-07  2381   0.148E-03    0.837E-04
RMM:  13    -0.413215678608E+03    0.38965E-05   -0.30924E-07  1921   0.998E-04    0.461E-04
RMM:  14    -0.413215674310E+03    0.42982E-05   -0.16607E-07  1598   0.761E-04    0.271E-04
RMM:  15    -0.413215670345E+03    0.39646E-05   -0.97053E-08  1088   0.626E-04    0.150E-04
RMM:  16    -0.413215668028E+03    0.23168E-05   -0.65670E-08  1014   0.589E-04    0.117E-04
RMM:  17    -0.413215665024E+03    0.30042E-05   -0.56790E-08  1039   0.589E-04    0.766E-05
RMM:  18    -0.413215662482E+03    0.25421E-05   -0.43149E-08   975   0.573E-04    0.607E-05
RMM:  19    -0.413215661777E+03    0.70468E-06   -0.18558E-08   674   0.513E-04
   48 T=    71. E= -.41286713E+03 F= -.41321566E+03 E0= -.41319476E+03  EK= 0.34853E+00 SP= 0.00E+00 SK= 0.00E+00
       N       E                     dE             d eps       ncg     rms          rms(c)
RMM:   1    -0.413247586288E+03   -0.31924E-01   -0.11112E+01  4304   0.188E+00    0.956E-01
RMM:   2    -0.413214996595E+03    0.32590E-01   -0.18034E-01  4439   0.215E-01    0.689E-01
RMM:   3    -0.413236746203E+03   -0.21750E-01   -0.32441E-02  5149   0.157E-01    0.696E-01
RMM:   4    -0.413221138587E+03    0.15608E-01   -0.40093E-02  4969   0.181E-01    0.429E-01
RMM:   5    -0.413211719189E+03    0.94194E-02   -0.43318E-03  4559   0.885E-02    0.609E-02
RMM:   6    -0.413211567750E+03    0.15144E-03   -0.49708E-04  4728   0.287E-02    0.319E-02
RMM:   7    -0.413211569008E+03   -0.12583E-05   -0.28336E-04  5792   0.174E-02    0.223E-02
RMM:   8    -0.413211538071E+03    0.30937E-04   -0.10231E-04  5068   0.115E-02    0.922E-03
RMM:   9    -0.413211530472E+03    0.75990E-05   -0.16089E-05  4513   0.540E-03    0.471E-03
RMM:  10    -0.413211526151E+03    0.43214E-05   -0.21375E-06  2598   0.234E-03    0.249E-03
RMM:  11    -0.413211519762E+03    0.63888E-05   -0.13577E-06  2494   0.189E-03    0.174E-03
RMM:  12    -0.413211516116E+03    0.36459E-05   -0.43906E-07  2385   0.122E-03    0.892E-04
RMM:  13    -0.413211511217E+03    0.48991E-05   -0.28723E-07  1983   0.909E-04    0.444E-04
RMM:  14    -0.413211505779E+03    0.54380E-05   -0.22233E-07  1764   0.804E-04    0.384E-04
RMM:  15    -0.413211501516E+03    0.42628E-05   -0.11553E-07  1120   0.640E-04    0.153E-04
RMM:  16    -0.413211499124E+03    0.23925E-05   -0.74524E-08  1079   0.602E-04    0.960E-05
RMM:  17    -0.413211495836E+03    0.32874E-05   -0.67334E-08  1127   0.607E-04    0.833E-05
RMM:  18    -0.413211494694E+03    0.11419E-05   -0.37997E-08   916   0.550E-04    0.691E-05
RMM:  19    -0.413211492938E+03    0.17564E-05   -0.33410E-08   945   0.552E-04    0.363E-05
RMM:  20    -0.413211492074E+03    0.86393E-06   -0.24394E-08   828   0.519E-04
   49 T=    70. E= -.41286684E+03 F= -.41321149E+03 E0= -.41319060E+03  EK= 0.34465E+00 SP= 0.00E+00 SK= 0.00E+00
       N       E                     dE             d eps       ncg     rms          rms(c)
RMM:   1    -0.413233394854E+03   -0.21902E-01   -0.10850E+01  4304   0.194E+00    0.928E-01
RMM:   2    -0.413210198697E+03    0.23196E-01   -0.18078E-01  4460   0.224E-01    0.693E-01
RMM:   3    -0.413232122221E+03   -0.21924E-01   -0.32559E-02  5144   0.160E-01    0.707E-01
RMM:   4    -0.413216233707E+03    0.15889E-01   -0.41365E-02  4965   0.185E-01    0.435E-01
RMM:   5    -0.413206390339E+03    0.98434E-02   -0.46751E-03  4589   0.920E-02    0.635E-02
RMM:   6    -0.413206213406E+03    0.17693E-03   -0.51650E-04  4728   0.299E-02    0.323E-02
RMM:   7    -0.413206217082E+03   -0.36754E-05   -0.30038E-04  5782   0.179E-02    0.229E-02
RMM:   8    -0.413206185561E+03    0.31521E-04   -0.10189E-04  5088   0.114E-02    0.968E-03
RMM:   9    -0.413206179454E+03    0.61062E-05   -0.19367E-05  4803   0.577E-03    0.493E-03
RMM:  10    -0.413206176005E+03    0.34489E-05   -0.25931E-06  2640   0.248E-03    0.261E-03
RMM:  11    -0.413206171594E+03    0.44112E-05   -0.15347E-06  2509   0.201E-03    0.190E-03
RMM:  12    -0.413206168828E+03    0.27665E-05   -0.47737E-07  2424   0.129E-03    0.995E-04
RMM:  13    -0.413206165413E+03    0.34143E-05   -0.29893E-07  2060   0.921E-04    0.491E-04
RMM:  14    -0.413206161437E+03    0.39764E-05   -0.24974E-07  1786   0.823E-04    0.374E-04
RMM:  15    -0.413206158289E+03    0.31477E-05   -0.14115E-07  1197   0.668E-04    0.153E-04
RMM:  16    -0.413206156614E+03    0.16753E-05   -0.85681E-08  1113   0.613E-04    0.936E-05
RMM:  17    -0.413206154259E+03    0.23550E-05   -0.86466E-08  1224   0.625E-04    0.794E-05
RMM:  18    -0.413206153497E+03    0.76203E-06   -0.42275E-08   941   0.551E-04
   50 T=    69. E= -.41286711E+03 F= -.41320615E+03 E0= -.41318527E+03  EK= 0.33904E+00 SP= 0.00E+00 SK= 0.00E+00
       N       E                     dE             d eps       ncg     rms          rms(c)
RMM:   1    -0.413236861469E+03   -0.30707E-01   -0.10739E+01  4304   0.213E+00    0.937E-01
RMM:   2    -0.413201847894E+03    0.35014E-01   -0.17989E-01  4513   0.238E-01    0.688E-01
RMM:   3    -0.413231956269E+03   -0.30108E-01   -0.39828E-02  5168   0.180E-01    0.799E-01
RMM:   4    -0.413204919075E+03    0.27037E-01   -0.41738E-02  4936   0.189E-01    0.370E-01
RMM:   5    -0.413198356187E+03    0.65629E-02   -0.49414E-03  4829   0.938E-02    0.746E-02
RMM:   6    -0.413198073082E+03    0.28311E-03   -0.53558E-04  4649   0.329E-02    0.358E-02
[...]
RMM:   1    -0.413910708204E+03   -0.34545E+00   -0.36794E+01  4298   0.112E+01    0.163E+00
RMM:   2    -0.413441622519E+03    0.46909E+00   -0.10592E+00  5317   0.128E+00    0.154E+00
RMM:   3    -0.413498207261E+03   -0.56585E-01   -0.23611E-01  5714   0.526E-01    0.172E+00
RMM:   4    -0.413416652734E+03    0.81555E-01   -0.84852E-02  5141   0.332E-01    0.957E-01
RMM:   5    -0.413416520595E+03    0.13214E-03   -0.89776E-02  4934   0.371E-01    0.580E-01
RMM:   6    -0.413412022769E+03    0.44978E-02   -0.60901E-02  5111   0.295E-01    0.297E-01
RMM:   7    -0.413408673973E+03    0.33488E-02   -0.95397E-03  5273   0.133E-01    0.188E-01
RMM:   8    -0.413407912418E+03    0.76156E-03   -0.24593E-03  5453   0.606E-02    0.112E-01
RMM:   9    -0.413407627681E+03    0.28474E-03   -0.21861E-03  4601   0.553E-02    0.319E-02
RMM:  10    -0.413407683681E+03   -0.56001E-04   -0.51454E-04  5898   0.258E-02    0.226E-02
RMM:  11    -0.413407689679E+03   -0.59981E-05   -0.82399E-05  4778   0.119E-02    0.109E-02
RMM:  12    -0.413407709204E+03   -0.19524E-04   -0.26746E-05  4643   0.661E-03    0.602E-03
RMM:  13    -0.413407720886E+03   -0.11682E-04   -0.95298E-06  3521   0.404E-03    0.314E-03
RMM:  14    -0.413407727512E+03   -0.66261E-05   -0.37163E-06  2815   0.262E-03    0.183E-03
RMM:  15    -0.413407732726E+03   -0.52133E-05   -0.22170E-06  2666   0.208E-03    0.891E-04
RMM:  16    -0.413407735816E+03   -0.30907E-05   -0.12617E-06  2440   0.148E-03    0.527E-04
RMM:  17    -0.413407737191E+03   -0.13748E-05   -0.72511E-07  2097   0.110E-03    0.313E-04
RMM:  18    -0.413407738450E+03   -0.12590E-05   -0.84309E-07  2317   0.118E-03    0.251E-04
RMM:  19    -0.413407738673E+03   -0.22294E-06   -0.46044E-07  1657   0.852E-04
  141 T=   285. E= -.41200603E+03 F= -.41340774E+03 E0= -.41338750E+03  EK= 0.14017E+01 SP= 0.00E+00 SK= 0.00E+00
       N       E                     dE             d eps       ncg     rms          rms(c)
RMM:   1    -0.413776897621E+03   -0.36916E+00   -0.31920E+01  4304   0.103E+01    0.119E+00
RMM:   2    -0.413456362194E+03    0.32054E+00   -0.95864E-01  5238   0.122E+00    0.132E+00
RMM:   3    -0.413448504731E+03    0.78575E-02   -0.18985E-01  5637   0.475E-01    0.130E+00
RMM:   4    -0.413404698256E+03    0.43806E-01   -0.41565E-02  5149   0.248E-01    0.783E-01
RMM:   5    -0.413402075682E+03    0.26226E-02   -0.46825E-02  4929   0.259E-01    0.568E-01
RMM:   6    -0.413400809034E+03    0.12666E-02   -0.77196E-02  5029   0.311E-01    0.311E-01
RMM:   7    -0.413398697666E+03    0.21114E-02   -0.14880E-02  5565   0.151E-01    0.253E-01
RMM:   8    -0.413396752865E+03    0.19448E-02   -0.31280E-03  4661   0.699E-02    0.135E-01
RMM:   9    -0.413396348489E+03    0.40438E-03   -0.41932E-03  4852   0.694E-02    0.275E-02
RMM:  10    -0.413396422222E+03   -0.73734E-04   -0.47700E-04  5759   0.254E-02    0.186E-02
RMM:  11    -0.413396442065E+03   -0.19843E-04   -0.73728E-05  4767   0.112E-02    0.120E-02
RMM:  12    -0.413396471134E+03   -0.29069E-04   -0.24799E-05  4280   0.690E-03    0.533E-03
RMM:  13    -0.413396484919E+03   -0.13785E-04   -0.13082E-05  3761   0.434E-03    0.317E-03
RMM:  14    -0.413396493545E+03   -0.86255E-05   -0.40967E-06  2862   0.280E-03    0.216E-03
RMM:  15    -0.413396499766E+03   -0.62214E-05   -0.32779E-06  2800   0.234E-03    0.132E-03
RMM:  16    -0.413396502731E+03   -0.29646E-05   -0.27308E-06  2672   0.197E-03    0.615E-04
RMM:  17    -0.413396503149E+03   -0.41838E-06   -0.23373E-06  2529   0.174E-03
  142 T=   281. E= -.41201587E+03 F= -.41339650E+03 E0= -.41337613E+03  EK= 0.13806E+01 SP= 0.00E+00 SK= 0.00E+00
       N       E                     dE             d eps       ncg     rms          rms(c)
RMM:   1    -0.413722113310E+03   -0.32561E+00   -0.32423E+01  4304   0.107E+01    0.171E+00
RMM:   2    -0.413525682105E+03    0.19643E+00   -0.10552E+00  5272   0.129E+00    0.176E+00
RMM:   3    -0.413517472226E+03    0.82099E-02   -0.26123E-01  5589   0.550E-01    0.173E+00
RMM:   4    -0.413439256770E+03    0.78215E-01   -0.82652E-02  5094   0.347E-01    0.948E-01
RMM:   5    -0.413439721244E+03   -0.46447E-03   -0.10243E-01  4990   0.377E-01    0.644E-01
RMM:   6    -0.413434382644E+03    0.53386E-02   -0.83832E-02  5221   0.323E-01    0.337E-01
RMM:   7    -0.413430949255E+03    0.34334E-02   -0.13544E-02  5502   0.151E-01    0.236E-01
RMM:   8    -0.413429514829E+03    0.14344E-02   -0.26821E-03  5026   0.640E-02    0.142E-01
RMM:   9    -0.413429029225E+03    0.48560E-03   -0.38803E-03  4785   0.666E-02    0.354E-02
RMM:  10    -0.413429134691E+03   -0.10547E-03   -0.83113E-04  5908   0.300E-02    0.238E-02
RMM:  11    -0.413429146235E+03   -0.11545E-04   -0.10088E-04  4514   0.133E-02    0.114E-02
RMM:  12    -0.413429175576E+03   -0.29341E-04   -0.32257E-05  4395   0.719E-03    0.527E-03
RMM:  13    -0.413429191012E+03   -0.15435E-04   -0.11006E-05  3553   0.422E-03    0.285E-03
RMM:  14    -0.413429199920E+03   -0.89080E-05   -0.45432E-06  2899   0.286E-03    0.192E-03
RMM:  15    -0.413429206790E+03   -0.68699E-05   -0.39970E-06  2871   0.261E-03    0.103E-03
RMM:  16    -0.413429209094E+03   -0.23043E-05   -0.32021E-06  2732   0.211E-03    0.706E-04
RMM:  17    -0.413429208022E+03    0.10719E-05   -0.27228E-06  2539   0.183E-03    0.483E-04
RMM:  18    -0.413429204327E+03    0.36956E-05   -0.22119E-06  2514   0.163E-03    0.317E-04
RMM:  19    -0.413429201016E+03    0.33101E-05   -0.94768E-07  1971   0.106E-03    0.210E-04
RMM:  20    -0.413429196344E+03    0.46722E-05   -0.66963E-07  1969   0.998E-04    0.192E-04
RMM:  21    -0.413429193850E+03    0.24942E-05   -0.27112E-07  1428   0.741E-04    0.994E-05
RMM:  22    -0.413429191582E+03    0.22682E-05   -0.16137E-07  1229   0.667E-04    0.607E-05
RMM:  23    -0.413429189878E+03    0.17037E-05   -0.11025E-07  1196   0.640E-04    0.675E-05
RMM:  24    -0.413429189267E+03    0.61121E-06   -0.62898E-08  1035   0.590E-04
  143 T=   286. E= -.41202389E+03 F= -.41342919E+03 E0= -.41340831E+03  EK= 0.14053E+01 SP= 0.00E+00 SK= 0.00E+00
       N       E                     dE             d eps       ncg     rms          rms(c)
RMM:   1    -0.413572679501E+03   -0.14349E+00   -0.31041E+01  4300   0.105E+01    0.145E+00
RMM:   2    -0.413453047305E+03    0.11963E+00   -0.10110E+00  5275   0.126E+00    0.166E+00
RMM:   3    -0.413421231973E+03    0.31815E-01   -0.22951E-01  5607   0.515E-01    0.154E+00
RMM:   4    -0.413362014073E+03    0.59218E-01   -0.59878E-02  5133   0.298E-01    0.916E-01
RMM:   5    -0.413359996297E+03    0.20178E-02   -0.72143E-02  4964   0.316E-01    0.637E-01
RMM:   6    -0.413356982227E+03    0.30141E-02   -0.90140E-02  5164   0.329E-01    0.341E-01
RMM:   7    -0.413353907051E+03    0.30752E-02   -0.16293E-02  5581   0.159E-01    0.259E-01
RMM:   8    -0.413352033926E+03    0.18731E-02   -0.27499E-03  4884   0.659E-02    0.157E-01
RMM:   9    -0.413351322383E+03    0.71154E-03   -0.44288E-03  4778   0.707E-02    0.394E-02
RMM:  10    -0.413351419250E+03   -0.96867E-04   -0.10450E-03  5909   0.327E-02    0.240E-02
RMM:  11    -0.413351425095E+03   -0.58452E-05   -0.10116E-04  4706   0.132E-02    0.113E-02
RMM:  12    -0.413351445706E+03   -0.20610E-04   -0.31043E-05  4585   0.682E-03    0.483E-03
RMM:  13    -0.413351455722E+03   -0.10016E-04   -0.89512E-06  3427   0.386E-03    0.312E-03
RMM:  14    -0.413351460658E+03   -0.49368E-05   -0.29611E-06  2773   0.250E-03    0.183E-03
RMM:  15    -0.413351464585E+03   -0.39261E-05   -0.25082E-06  2729   0.215E-03    0.931E-04
RMM:  16    -0.413351466379E+03   -0.17942E-05   -0.22891E-06  2628   0.186E-03    0.627E-04
RMM:  17    -0.413351465435E+03    0.94337E-06   -0.18303E-06  2406   0.156E-03
  144 T=   272. E= -.41201340E+03 F= -.41335147E+03 E0= -.41332983E+03  EK= 0.13381E+01 SP= 0.00E+00 SK= 0.00E+00
       N       E                     dE             d eps       ncg     rms          rms(c)
RMM:   1    -0.413422035632E+03   -0.70569E-01   -0.28026E+01  4295   0.100E+01    0.111E+00
RMM:   2    -0.413353882420E+03    0.68153E-01   -0.89351E-01  5283   0.118E+00    0.143E+00
RMM:   3    -0.413317922207E+03    0.35960E-01   -0.19404E-01  5632   0.471E-01    0.129E+00
RMM:   4    -0.413272277393E+03    0.45645E-01   -0.44029E-02  5171   0.256E-01    0.789E-01
RMM:   5    -0.413267540316E+03    0.47371E-02   -0.29393E-02  4903   0.207E-01    0.569E-01
RMM:   6    -0.413266418217E+03    0.11221E-02   -0.76330E-02  4935   0.305E-01    0.295E-01
RMM:   7    -0.413264756793E+03    0.16614E-02   -0.19507E-02  5581   0.162E-01    0.247E-01
RMM:   8    -0.413262866478E+03    0.18903E-02   -0.28384E-03  5006   0.671E-02    0.143E-01
RMM:   9    -0.413262181786E+03    0.68469E-03   -0.31839E-03  4748   0.599E-02    0.425E-02
RMM:  10    -0.413262236503E+03   -0.54717E-04   -0.88090E-04  5863   0.313E-02    0.210E-02
RMM:  11    -0.413262243737E+03   -0.72338E-05   -0.88626E-05  5344   0.117E-02    0.114E-02
RMM:  12    -0.413262253038E+03   -0.93012E-05   -0.32354E-05  4860   0.691E-03    0.526E-03
RMM:  13    -0.413262254986E+03   -0.19484E-05   -0.72333E-06  3221   0.331E-03    0.396E-03
RMM:  14    -0.413262254835E+03    0.15157E-06   -0.20874E-06  2641   0.231E-03
  145 T=   256. E= -.41200622E+03 F= -.41326225E+03 E0= -.41323969E+03  EK= 0.12560E+01 SP= 0.00E+00 SK= 0.00E+00
       N       E                     dE             d eps       ncg     rms          rms(c)
RMM:   1    -0.413385645605E+03   -0.12339E+00   -0.26442E+01  4282   0.980E+00    0.108E+00
RMM:   2    -0.413340885261E+03    0.44760E-01   -0.84572E-01  5301   0.116E+00    0.140E+00
RMM:   3    -0.413308055569E+03    0.32830E-01   -0.18924E-01  5610   0.469E-01    0.127E+00
RMM:   4    -0.413259616566E+03    0.48439E-01   -0.50189E-02  5211   0.269E-01    0.762E-01
RMM:   5    -0.413254841244E+03    0.47753E-02   -0.20100E-02  4831   0.178E-01    0.545E-01
RMM:   6    -0.413254611763E+03    0.22948E-03   -0.63746E-02  4856   0.286E-01    0.282E-01
RMM:   7    -0.413252280226E+03    0.23315E-02   -0.18927E-02  5440   0.161E-01    0.209E-01
RMM:   8    -0.413250950640E+03    0.13296E-02   -0.31137E-03  5460   0.680E-02    0.120E-01
RMM:   9    -0.413250408543E+03    0.54210E-03   -0.18508E-03  4644   0.476E-02    0.444E-02
RMM:  10    -0.413250422968E+03   -0.14425E-04   -0.78439E-04  5805   0.306E-02    0.211E-02
RMM:  11    -0.413250425762E+03   -0.27941E-05   -0.87381E-05  5568   0.114E-02    0.124E-02
RMM:  12    -0.413250427649E+03   -0.18872E-05   -0.34206E-05  5042   0.732E-03    0.573E-03
RMM:  13    -0.413250428354E+03   -0.70447E-06   -0.75043E-06  3255   0.329E-03
  146 T=   254. E= -.41200509E+03 F= -.41325043E+03 E0= -.41322717E+03  EK= 0.12453E+01 SP= 0.00E+00 SK= 0.00E+00
       N       E                     dE             d eps       ncg     rms          rms(c)
RMM:   1    -0.413467885703E+03   -0.21746E+00   -0.27358E+01  4264   0.996E+00    0.122E+00
RMM:   2    -0.413404071504E+03    0.63814E-01   -0.88236E-01  5330   0.121E+00    0.147E+00
RMM:   3    -0.413386606033E+03    0.17465E-01   -0.20569E-01  5585   0.498E-01    0.140E+00
RMM:   4    -0.413324159332E+03    0.62447E-01   -0.68491E-02  5231   0.309E-01    0.826E-01
RMM:   5    -0.413319211902E+03    0.49474E-02   -0.21355E-02  4743   0.192E-01    0.545E-01
RMM:   6    -0.413321751931E+03   -0.25400E-02   -0.61019E-02  4935   0.288E-01    0.298E-01
RMM:   7    -0.413317222160E+03    0.45298E-02   -0.16830E-02  5222   0.159E-01    0.172E-01
RMM:   8    -0.413316478378E+03    0.74378E-03   -0.35691E-03  5688   0.703E-02    0.101E-01
RMM:   9    -0.413316045544E+03    0.43283E-03   -0.13992E-03  4581   0.441E-02    0.384E-02
RMM:  10    -0.413316049281E+03   -0.37369E-05   -0.67338E-04  5843   0.294E-02    0.222E-02
RMM:  11    -0.413316048182E+03    0.10987E-05   -0.83451E-05  5537   0.113E-02    0.136E-02
RMM:  12    -0.413316050717E+03   -0.25352E-05   -0.33817E-05  5016   0.742E-03    0.545E-03
RMM:  13    -0.413316056324E+03   -0.56069E-05   -0.77662E-06  3263   0.341E-03    0.399E-03
RMM:  14    -0.413316062753E+03   -0.64287E-05   -0.23576E-06  2674   0.257E-03    0.201E-03
RMM:  15    -0.413316070038E+03   -0.72849E-05   -0.18342E-06  2630   0.210E-03    0.115E-03
RMM:  16    -0.413316076785E+03   -0.67474E-05   -0.13259E-06  2580   0.166E-03    0.603E-04
RMM:  17    -0.413316080734E+03   -0.39485E-05   -0.66172E-07  2158   0.107E-03    0.421E-04
RMM:  18    -0.413316087034E+03   -0.63003E-05   -0.12880E-06  2583   0.141E-03    0.288E-04
RMM:  19    -0.413316090642E+03   -0.36082E-05   -0.77502E-07  1788   0.989E-04    0.159E-04
RMM:  20    -0.413316093386E+03   -0.27441E-05   -0.52962E-07  1875   0.900E-04    0.138E-04
RMM:  21    -0.413316094761E+03   -0.13747E-05   -0.21071E-07  1346   0.668E-04    0.813E-05
RMM:  22    -0.413316096441E+03   -0.16800E-05   -0.14013E-07  1221   0.617E-04    0.475E-05
RMM:  23    -0.413316097339E+03   -0.89782E-06   -0.77262E-08  1067   0.565E-04
  147 T=   266. E= -.41200818E+03 F= -.41331610E+03 E0= -.41329324E+03  EK= 0.13079E+01 SP= 0.00E+00 SK= 0.00E+00
       N       E                     dE             d eps       ncg     rms          rms(c)
RMM:   1    -0.413597374559E+03   -0.28128E+00   -0.29865E+01  4264   0.103E+01    0.153E+00
RMM:   2    -0.413463738971E+03    0.13364E+00   -0.97087E-01  5343   0.129E+00    0.158E+00
RMM:   3    -0.413498591870E+03   -0.34853E-01   -0.24720E-01  5527   0.552E-01    0.170E+00
RMM:   4    -0.413400479447E+03    0.98112E-01   -0.10641E-01  5214   0.376E-01    0.956E-01
RMM:   5    -0.413394097684E+03    0.63818E-02   -0.28512E-02  4555   0.234E-01    0.505E-01
RMM:   6    -0.413397750194E+03   -0.36525E-02   -0.46479E-02  5080   0.257E-01    0.278E-01
RMM:   7    -0.413393144327E+03    0.46059E-02   -0.12259E-02  5144   0.138E-01    0.138E-01
RMM:   8    -0.413392769509E+03    0.37482E-03   -0.33075E-03  5697   0.670E-02    0.757E-02
RMM:   9    -0.413392543854E+03    0.22565E-03   -0.10303E-03  4642   0.396E-02    0.309E-02
RMM:  10    -0.413392539735E+03    0.41197E-05   -0.40356E-04  5851   0.232E-02    0.201E-02
RMM:  11    -0.413392538340E+03    0.13949E-05   -0.67419E-05  5556   0.100E-02    0.133E-02
RMM:  12    -0.413392541831E+03   -0.34915E-05   -0.27289E-05  4848   0.683E-03    0.477E-03
RMM:  13    -0.413392551903E+03   -0.10072E-04   -0.83971E-06  3307   0.356E-03    0.359E-03
RMM:  14    -0.413392563016E+03   -0.11113E-04   -0.24138E-06  2679   0.273E-03    0.182E-03
RMM:  15    -0.413392574604E+03   -0.11588E-04   -0.20923E-06  2670   0.222E-03    0.104E-03
RMM:  16    -0.413392585096E+03   -0.10492E-04   -0.16347E-06  2614   0.178E-03    0.683E-04
RMM:  17    -0.413392592599E+03   -0.75025E-05   -0.11105E-06  2407   0.128E-03    0.487E-04
RMM:  18    -0.413392603072E+03   -0.10473E-04   -0.20818E-06  2685   0.167E-03    0.314E-04
RMM:  19    -0.413392608358E+03   -0.52860E-05   -0.11513E-06  1927   0.113E-03    0.202E-04
RMM:  20    -0.413392611998E+03   -0.36403E-05   -0.63297E-07  1877   0.952E-04    0.138E-04
RMM:  21    -0.413392614207E+03   -0.22094E-05   -0.27494E-07  1427   0.735E-04    0.846E-05
RMM:  22    -0.413392616003E+03   -0.17960E-05   -0.15674E-07  1230   0.648E-04    0.551E-05
RMM:  23    -0.413392617154E+03   -0.11510E-05   -0.92101E-08  1110   0.603E-04    0.361E-05
RMM:  24    -0.413392617729E+03   -0.57497E-06   -0.49294E-08   985   0.569E-04
  148 T=   281. E= -.41201158E+03 F= -.41339262E+03 E0= -.41337135E+03  EK= 0.13810E+01 SP= 0.00E+00 SK= 0.00E+00
       N       E                     dE             d eps       ncg     rms          rms(c)
RMM:   1    -0.413720356575E+03   -0.32774E+00   -0.31859E+01  4269   0.105E+01    0.187E+00
RMM:   2    -0.413490518863E+03    0.22984E+00   -0.11014E+00  5366   0.135E+00    0.172E+00
RMM:   3    -0.413591513155E+03   -0.10099E+00   -0.32201E-01  5437   0.635E-01    0.200E+00
RMM:   4    -0.413444671984E+03    0.14684E+00   -0.17107E-01  5198   0.463E-01    0.104E+00
RMM:   5    -0.413431951784E+03    0.12720E-01   -0.34114E-02  4453   0.273E-01    0.411E-01
RMM:   6    -0.413434664310E+03   -0.27125E-02   -0.28460E-02  5312   0.203E-01    0.235E-01
RMM:   7    -0.413431780860E+03    0.28835E-02   -0.82666E-03  5106   0.112E-01    0.118E-01
RMM:   8    -0.413431602023E+03    0.17884E-03   -0.26365E-03  5641   0.612E-02    0.619E-02
RMM:   9    -0.413431513441E+03    0.88583E-04   -0.79014E-04  4964   0.353E-02    0.353E-02
RMM:  10    -0.413431483958E+03    0.29483E-04   -0.26186E-04  5667   0.198E-02    0.168E-02
RMM:  11    -0.413431486054E+03   -0.20963E-05   -0.73289E-05  5759   0.960E-03    0.125E-02
RMM:  12    -0.413431488418E+03   -0.23641E-05   -0.19523E-05  4450   0.618E-03    0.438E-03
RMM:  13    -0.413431497254E+03   -0.88364E-05   -0.86616E-06  3505   0.360E-03    0.319E-03
RMM:  14    -0.413431507347E+03   -0.10092E-04   -0.22592E-06  2664   0.263E-03    0.146E-03
RMM:  15    -0.413431514464E+03   -0.71168E-05   -0.13755E-06  2588   0.173E-03    0.839E-04
RMM:  16    -0.413431522418E+03   -0.79542E-05   -0.13091E-06  2586   0.152E-03    0.552E-04
RMM:  17    -0.413431529126E+03   -0.67080E-05   -0.11837E-06  2265   0.127E-03    0.395E-04
RMM:  18    -0.413431536156E+03   -0.70302E-05   -0.16460E-06  2580   0.143E-03    0.339E-04
RMM:  19    -0.413431539568E+03   -0.34121E-05   -0.80786E-07  1696   0.946E-04    0.210E-04
RMM:  20    -0.413431542028E+03   -0.24604E-05   -0.42720E-07  1706   0.849E-04    0.135E-04
RMM:  21    -0.413431543548E+03   -0.15194E-05   -0.21073E-07  1356   0.688E-04    0.905E-05
RMM:  22    -0.413431545137E+03   -0.15893E-05   -0.14348E-07  1225   0.633E-04    0.591E-05
RMM:  23    -0.413431546000E+03   -0.86305E-06   -0.77619E-08  1032   0.576E-04
  149 T=   291. E= -.41200462E+03 F= -.41343155E+03 E0= -.41341168E+03  EK= 0.14269E+01 SP= 0.00E+00 SK= 0.00E+00
       N       E                     dE             d eps       ncg     rms          rms(c)
RMM:   1    -0.414051721339E+03   -0.62018E+00   -0.35036E+01  4288   0.104E+01    0.181E+00
RMM:   2    -0.413604229552E+03    0.44749E+00   -0.12452E+00  5409   0.138E+00    0.172E+00
RMM:   3    -0.413686974235E+03   -0.82745E-01   -0.34039E-01  5434   0.650E-01    0.191E+00
RMM:   4    -0.413551895915E+03    0.13508E+00   -0.17142E-01  5215   0.468E-01    0.941E-01
RMM:   5    -0.413539445834E+03    0.12450E-01   -0.33667E-02  4457   0.276E-01    0.383E-01
RMM:   6    -0.413542128994E+03   -0.26832E-02   -0.31462E-02  5210   0.213E-01    0.249E-01
RMM:   7    -0.413538889344E+03    0.32396E-02   -0.96106E-03  5062   0.123E-01    0.120E-01
RMM:   8    -0.413538788170E+03    0.10117E-03   -0.22209E-03  5670   0.573E-02    0.683E-02
RMM:   9    -0.413538704845E+03    0.83324E-04   -0.77965E-04  4820   0.366E-02    0.310E-02
RMM:  10    -0.413538688704E+03    0.16142E-04   -0.20591E-04  5661   0.179E-02    0.160E-02
RMM:  11    -0.413538690023E+03   -0.13195E-05   -0.58941E-05  5570   0.884E-03    0.110E-02
RMM:  12    -0.413538691592E+03   -0.15690E-05   -0.16120E-05  4455   0.553E-03    0.465E-03
RMM:  13    -0.413538695183E+03   -0.35906E-05   -0.68342E-06  3304   0.321E-03    0.276E-03
RMM:  14    -0.413538698627E+03   -0.34441E-05   -0.15768E-06  2562   0.212E-03    0.142E-03
RMM:  15    -0.413538701034E+03   -0.24073E-05   -0.82998E-07  2477   0.145E-03    0.750E-04
RMM:  16    -0.413538703822E+03   -0.27879E-05   -0.68112E-07  2252   0.114E-03    0.387E-04
RMM:  17    -0.413538705807E+03   -0.19854E-05   -0.45835E-07  1783   0.906E-04    0.254E-04
RMM:  18    -0.413538708276E+03   -0.24685E-05   -0.61405E-07  2097   0.988E-04    0.202E-04
RMM:  19    -0.413538709898E+03   -0.16222E-05   -0.39345E-07  1467   0.783E-04    0.153E-04
RMM:  20    -0.413538711000E+03   -0.11019E-05   -0.25075E-07  1379   0.708E-04    0.102E-04
RMM:  21    -0.413538711899E+03   -0.89918E-06   -0.16014E-07  1265   0.647E-04
  150 T=   311. E= -.41201326E+03 F= -.41353871E+03 E0= -.41351933E+03  EK= 0.15255E+01 SP= 0.00E+00 SK= 0.00E+00
