       N       E                     dE             d eps       ncg     rms          rms(c)
RMM:   1     0.220154513694E+04    0.22015E+04   -0.52442E+04  2132   0.654E+02
RMM:   2     0.705781528531E+03   -0.14958E+04   -0.16263E+04  2132   0.177E+02
RMM:   3     0.138008328361E+03   -0.56777E+03   -0.65706E+03  2132   0.117E+02
RMM:   4    -0.159436544397E+03   -0.29744E+03   -0.27833E+03  2132   0.936E+01
RMM:   5    -0.287521360546E+03   -0.12808E+03   -0.11460E+03  2132   0.595E+01
RMM:   6    -0.350010944221E+03   -0.62490E+02   -0.55184E+02  2132   0.423E+01
RMM:   7    -0.382881212170E+03   -0.32870E+02   -0.30398E+02  2132   0.293E+01
RMM:   8    -0.404286172701E+03   -0.21405E+02   -0.18379E+02  2132   0.233E+01
RMM:   9    -0.435996473641E+03   -0.31710E+02   -0.30593E+02  6102   0.173E+01
RMM:  10    -0.441297873898E+03   -0.53014E+01   -0.63151E+01  6395   0.539E+00
RMM:  11    -0.442508700020E+03   -0.12108E+01   -0.11174E+01  6204   0.173E+00
RMM:  12    -0.442884432102E+03   -0.37573E+00   -0.27200E+00  6363   0.601E-01    0.134E+02
RMM:  13    -0.425511215415E+03    0.17373E+02   -0.80495E+01  4667   0.119E+01    0.712E+01
RMM:  14    -0.498445796819E+03   -0.72935E+02   -0.53163E+02  5420   0.231E+01    0.306E+01
RMM:  15    -0.418980470574E+03    0.79465E+02   -0.20699E+02  5136   0.164E+01    0.913E+00
RMM:  16    -0.414036248273E+03    0.49442E+01   -0.40816E+01  6088   0.625E+00    0.437E+00
RMM:  17    -0.413206438654E+03    0.82981E+00   -0.29019E+00  5445   0.199E+00    0.245E+00
RMM:  18    -0.413178759782E+03    0.27679E-01   -0.76148E-01  6013   0.878E-01    0.174E+00
RMM:  19    -0.413183993911E+03   -0.52341E-02   -0.22796E-01  5641   0.530E-01    0.103E+00
RMM:  20    -0.413202581322E+03   -0.18587E-01   -0.43918E-01  5571   0.668E-01    0.769E-01
RMM:  21    -0.413172646226E+03    0.29935E-01   -0.42483E-02  4975   0.274E-01    0.392E-01
RMM:  22    -0.413165584957E+03    0.70613E-02   -0.40432E-02  5692   0.203E-01    0.155E-01
RMM:  23    -0.413164904368E+03    0.68059E-03   -0.62038E-03  5827   0.739E-02    0.884E-02
RMM:  24    -0.413163797400E+03    0.11070E-02   -0.19281E-03  5395   0.430E-02    0.569E-02
RMM:  25    -0.413162907186E+03    0.89021E-03   -0.94402E-04  4953   0.308E-02    0.375E-02
RMM:  26    -0.413162979951E+03   -0.72764E-04   -0.11666E-03  5842   0.341E-02    0.343E-02
RMM:  27    -0.413163393802E+03   -0.41385E-03   -0.21146E-04  4572   0.204E-02    0.198E-02
RMM:  28    -0.413163761077E+03   -0.36727E-03   -0.14810E-04  5151   0.158E-02    0.907E-03
RMM:  29    -0.413164168438E+03   -0.40736E-03   -0.10453E-04  4592   0.157E-02    0.473E-03
RMM:  30    -0.413164475933E+03   -0.30750E-03   -0.10131E-04  4352   0.129E-02    0.463E-03
RMM:  31    -0.413164608999E+03   -0.13307E-03   -0.60461E-05  3348   0.731E-03    0.373E-03
RMM:  32    -0.413164636308E+03   -0.27309E-04   -0.21078E-05  2972   0.319E-03    0.257E-03
RMM:  33    -0.413164651507E+03   -0.15199E-04   -0.93330E-06  2831   0.251E-03    0.970E-04
RMM:  34    -0.413164652611E+03   -0.11045E-05   -0.54542E-06  2619   0.161E-03    0.478E-04
RMM:  35    -0.413164653505E+03   -0.89347E-06   -0.21747E-06  2484   0.141E-03
    1 T=    61. E= -.41286687E+03 F= -.41316465E+03 E0= -.41314216E+03  EK= 0.29779E+00 SP= 0.00E+00 SK= 0.00E+00
       N       E                     dE             d eps       ncg     rms          rms(c)
RMM:   1    -0.413161386532E+03    0.32661E-02   -0.94530E+00  3987   0.634E-01    0.886E-01
RMM:   2    -0.413168143477E+03   -0.67569E-02   -0.11579E-01  3992   0.935E-02    0.649E-01
RMM:   3    -0.413164545088E+03    0.35984E-02   -0.13701E-02  4704   0.465E-02    0.886E-02
RMM:   4    -0.413181266150E+03   -0.16721E-01   -0.17507E-02  5208   0.110E-01    0.542E-01
RMM:   5    -0.413164267106E+03    0.16999E-01   -0.84085E-03  4859   0.906E-02    0.429E-02
RMM:   6    -0.413164390128E+03   -0.12302E-03   -0.15619E-03  5780   0.381E-02    0.307E-02
RMM:   7    -0.413164387416E+03    0.27125E-05   -0.33214E-04  5610   0.171E-02    0.180E-02
RMM:   8    -0.413164385651E+03    0.17650E-05   -0.34836E-05  4724   0.667E-03    0.776E-03
RMM:   9    -0.413164388906E+03   -0.32558E-05   -0.73301E-06  3201   0.292E-03    0.587E-03
RMM:  10    -0.413164394048E+03   -0.51411E-05   -0.17507E-06  2551   0.202E-03    0.345E-03
RMM:  11    -0.413164399482E+03   -0.54348E-05   -0.13437E-06  2525   0.172E-03    0.164E-03
RMM:  12    -0.413164405248E+03   -0.57659E-05   -0.11371E-06  2493   0.154E-03    0.661E-04
RMM:  13    -0.413164406718E+03   -0.14702E-05   -0.49929E-07  2155   0.106E-03    0.429E-04
RMM:  14    -0.413164407432E+03   -0.71337E-06   -0.29813E-07  1663   0.775E-04
    2 T=    61. E= -.41286671E+03 F= -.41316441E+03 E0= -.41314191E+03  EK= 0.29770E+00 SP= 0.00E+00 SK= 0.00E+00
       N       E                     dE             d eps       ncg     rms          rms(c)
RMM:   1    -0.413162445473E+03    0.19612E-02   -0.94565E+00  4191   0.639E-01    0.905E-01
RMM:   2    -0.413168201430E+03   -0.57560E-02   -0.11422E-01  3993   0.924E-02    0.644E-01
RMM:   3    -0.413165327967E+03    0.28735E-02   -0.13360E-02  4858   0.488E-02    0.120E-01
RMM:   4    -0.413193895466E+03   -0.28567E-01   -0.29858E-02  5169   0.144E-01    0.705E-01
RMM:   5    -0.413164765495E+03    0.29130E-01   -0.13951E-02  4825   0.118E-01    0.493E-02
RMM:   6    -0.413164960669E+03   -0.19517E-03   -0.25564E-03  5763   0.485E-02    0.340E-02
RMM:   7    -0.413164953320E+03    0.73487E-05   -0.43524E-04  5675   0.191E-02    0.209E-02
RMM:   8    -0.413164945288E+03    0.80317E-05   -0.59349E-05  5136   0.849E-03    0.958E-03
RMM:   9    -0.413164943580E+03    0.17086E-05   -0.12002E-05  3782   0.383E-03    0.717E-03
RMM:  10    -0.413164943709E+03   -0.12936E-06   -0.19569E-06  2578   0.222E-03
    3 T=    61. E= -.41286703E+03 F= -.41316494E+03 E0= -.41314245E+03  EK= 0.29792E+00 SP= 0.00E+00 SK= 0.00E+00
       N       E                     dE             d eps       ncg     rms          rms(c)
RMM:   1    -0.413161897796E+03    0.30458E-02   -0.93849E+00  4223   0.641E-01    0.890E-01
RMM:   2    -0.413167818105E+03   -0.59203E-02   -0.11373E-01  4224   0.910E-02    0.638E-01
RMM:   3    -0.413169772470E+03   -0.19544E-02   -0.16754E-02  5161   0.783E-02    0.313E-01
RMM:   4    -0.413190260664E+03   -0.20488E-01   -0.39484E-02  5117   0.170E-01    0.661E-01
RMM:   5    -0.413164679192E+03    0.25581E-01   -0.99603E-03  4715   0.108E-01    0.601E-02
RMM:   6    -0.413164694972E+03   -0.15780E-04   -0.19144E-03  5461   0.438E-02    0.307E-02
RMM:   7    -0.413164713224E+03   -0.18252E-04   -0.35851E-04  6011   0.171E-02    0.188E-02
RMM:   8    -0.413164709338E+03    0.38856E-05   -0.65902E-05  5191   0.919E-03    0.787E-03
RMM:   9    -0.413164707209E+03    0.21297E-05   -0.86523E-06  3475   0.372E-03    0.399E-03
RMM:  10    -0.413164708305E+03   -0.10962E-05   -0.17585E-06  2552   0.215E-03    0.261E-03
RMM:  11    -0.413164710100E+03   -0.17947E-05   -0.14832E-06  2546   0.188E-03    0.158E-03
RMM:  12    -0.413164710984E+03   -0.88444E-06   -0.77074E-07  2498   0.143E-03
    4 T=    61. E= -.41286677E+03 F= -.41316471E+03 E0= -.41314222E+03  EK= 0.29794E+00 SP= 0.00E+00 SK= 0.00E+00
       N       E                     dE             d eps       ncg     rms          rms(c)
RMM:   1    -0.413161873042E+03    0.28371E-02   -0.94448E+00  4235   0.646E-01    0.883E-01
RMM:   2    -0.413168262614E+03   -0.63896E-02   -0.11587E-01  4021   0.912E-02    0.648E-01
RMM:   3    -0.413165332248E+03    0.29304E-02   -0.13820E-02  4939   0.457E-02    0.115E-01
RMM:   4    -0.413195444807E+03   -0.30113E-01   -0.31774E-02  5148   0.149E-01    0.725E-01
RMM:   5    -0.413164676924E+03    0.30768E-01   -0.14637E-02  4814   0.120E-01    0.485E-02
RMM:   6    -0.413164870585E+03   -0.19366E-03   -0.25912E-03  5768   0.490E-02    0.319E-02
RMM:   7    -0.413164874878E+03   -0.42936E-05   -0.42183E-04  5752   0.187E-02    0.204E-02
RMM:   8    -0.413164871213E+03    0.36650E-05   -0.62928E-05  5080   0.850E-03    0.950E-03
RMM:   9    -0.413164871873E+03   -0.65974E-06   -0.12242E-05  3836   0.395E-03    0.703E-03
RMM:  10    -0.413164875726E+03   -0.38535E-05   -0.18733E-06  2572   0.216E-03    0.440E-03
RMM:  11    -0.413164879699E+03   -0.39723E-05   -0.13011E-06  2534   0.179E-03    0.233E-03
RMM:  12    -0.413164885380E+03   -0.56810E-05   -0.18032E-06  2583   0.194E-03    0.994E-04
RMM:  13    -0.413164886820E+03   -0.14400E-05   -0.54210E-07  2357   0.126E-03    0.666E-04
RMM:  14    -0.413164886781E+03    0.38333E-07   -0.23189E-07  1830   0.835E-04
    5 T=    61. E= -.41286680E+03 F= -.41316489E+03 E0= -.41314241E+03  EK= 0.29809E+00 SP= 0.00E+00 SK= 0.00E+00
       N       E                     dE             d eps       ncg     rms          rms(c)
RMM:   1    -0.413162738046E+03    0.21488E-02   -0.94644E+00  4247   0.653E-01    0.902E-01
RMM:   2    -0.413168364372E+03   -0.56263E-02   -0.11471E-01  4047   0.935E-02    0.646E-01
RMM:   3    -0.413165573271E+03    0.27911E-02   -0.13361E-02  4779   0.461E-02    0.106E-01
RMM:   4    -0.413187460984E+03   -0.21888E-01   -0.22377E-02  5147   0.125E-01    0.620E-01
RMM:   5    -0.413165200661E+03    0.22260E-01   -0.10808E-02  4821   0.103E-01    0.453E-02
RMM:   6    -0.413165350560E+03   -0.14990E-03   -0.19589E-03  5773   0.423E-02    0.314E-02
RMM:   7    -0.413165341520E+03    0.90406E-05   -0.35933E-04  5594   0.180E-02    0.194E-02
RMM:   8    -0.413165332287E+03    0.92324E-05   -0.48891E-05  4935   0.787E-03    0.903E-03
RMM:   9    -0.413165331056E+03    0.12309E-05   -0.97671E-06  3551   0.355E-03    0.690E-03
RMM:  10    -0.413165331552E+03   -0.49593E-06   -0.17146E-06  2545   0.218E-03
    6 T=    61. E= -.41286697E+03 F= -.41316533E+03 E0= -.41314287E+03  EK= 0.29836E+00 SP= 0.00E+00 SK= 0.00E+00
       N       E                     dE             d eps       ncg     rms          rms(c)
RMM:   1    -0.413162396567E+03    0.29345E-02   -0.94145E+00  4255   0.654E-01    0.897E-01
RMM:   2    -0.413168219866E+03   -0.58233E-02   -0.11404E-01  4243   0.928E-02    0.639E-01
RMM:   3    -0.413168847136E+03   -0.62727E-03   -0.15747E-02  5115   0.713E-02    0.273E-01
RMM:   4    -0.413195022902E+03   -0.26176E-01   -0.41563E-02  5114   0.173E-01    0.714E-01
RMM:   5    -0.413165037003E+03    0.29986E-01   -0.12351E-02  4738   0.117E-01    0.600E-02
RMM:   6    -0.413165105400E+03   -0.68397E-04   -0.22899E-03  5544   0.475E-02    0.314E-02
RMM:   7    -0.413165122989E+03   -0.17589E-04   -0.39319E-04  6012   0.173E-02    0.191E-02
RMM:   8    -0.413165118272E+03    0.47176E-05   -0.67324E-05  5195   0.912E-03    0.809E-03
RMM:   9    -0.413165114753E+03    0.35191E-05   -0.90340E-06  3441   0.366E-03    0.419E-03
RMM:  10    -0.413165114668E+03    0.85111E-07   -0.21897E-06  2588   0.223E-03
    7 T=    61. E= -.41286669E+03 F= -.41316511E+03 E0= -.41314267E+03  EK= 0.29843E+00 SP= 0.00E+00 SK= 0.00E+00
       N       E                     dE             d eps       ncg     rms          rms(c)
RMM:   1    -0.413166549961E+03   -0.14352E-02   -0.94704E+00  4263   0.691E-01    0.881E-01
RMM:   2    -0.413169206850E+03   -0.26569E-02   -0.11841E-01  4118   0.926E-02    0.646E-01
RMM:   3    -0.413166318524E+03    0.28883E-02   -0.13575E-02  4951   0.494E-02    0.131E-01
RMM:   4    -0.413201412204E+03   -0.35094E-01   -0.37732E-02  5141   0.162E-01    0.781E-01
RMM:   5    -0.413165473250E+03    0.35939E-01   -0.17161E-02  4804   0.130E-01    0.510E-02
RMM:   6    -0.413165673789E+03   -0.20054E-03   -0.28710E-03  5763   0.528E-02    0.329E-02
RMM:   7    -0.413165679153E+03   -0.53642E-05   -0.45781E-04  5799   0.193E-02    0.209E-02
RMM:   8    -0.413165676662E+03    0.24914E-05   -0.68562E-05  5176   0.889E-03    0.959E-03
RMM:   9    -0.413165676248E+03    0.41357E-06   -0.13469E-05  3920   0.412E-03    0.672E-03
RMM:  10    -0.413165679162E+03   -0.29138E-05   -0.20655E-06  2579   0.221E-03    0.423E-03
RMM:  11    -0.413165681841E+03   -0.26792E-05   -0.12184E-06  2525   0.173E-03    0.227E-03
RMM:  12    -0.413165685695E+03   -0.38538E-05   -0.18216E-06  2594   0.194E-03    0.973E-04
RMM:  13    -0.413165686818E+03   -0.11234E-05   -0.59235E-07  2368   0.127E-03    0.714E-04
RMM:  14    -0.413165686613E+03    0.20540E-06   -0.23798E-07  1841   0.844E-04
    8 T=    61. E= -.41286697E+03 F= -.41316569E+03 E0= -.41314326E+03  EK= 0.29872E+00 SP= 0.00E+00 SK= 0.00E+00
       N       E                     dE             d eps       ncg     rms          rms(c)
RMM:   1    -0.413163091636E+03    0.25952E-02   -0.94737E+00  4283   0.665E-01    0.897E-01
RMM:   2    -0.413169337256E+03   -0.62456E-02   -0.11517E-01  4131   0.929E-02    0.648E-01
RMM:   3    -0.413166163783E+03    0.31735E-02   -0.13501E-02  4812   0.468E-02    0.106E-01
RMM:   4    -0.413189867633E+03   -0.23704E-01   -0.24421E-02  5140   0.130E-01    0.644E-01
RMM:   5    -0.413165727024E+03    0.24141E-01   -0.11783E-02  4816   0.107E-01    0.455E-02
RMM:   6    -0.413165878188E+03   -0.15116E-03   -0.20474E-03  5797   0.434E-02    0.305E-02
RMM:   7    -0.413165876274E+03    0.19142E-05   -0.35358E-04  5624   0.179E-02    0.193E-02
RMM:   8    -0.413165867546E+03    0.87282E-05   -0.54701E-05  4957   0.818E-03    0.920E-03
RMM:   9    -0.413165866045E+03    0.15010E-05   -0.10889E-05  3708   0.374E-03    0.703E-03
RMM:  10    -0.413165866596E+03   -0.55102E-06   -0.16940E-06  2548   0.216E-03
    9 T=    61. E= -.41286692E+03 F= -.41316587E+03 E0= -.41314346E+03  EK= 0.29895E+00 SP= 0.00E+00 SK= 0.00E+00
       N       E                     dE             d eps       ncg     rms          rms(c)
RMM:   1    -0.413163398724E+03    0.24673E-02   -0.94498E+00  4296   0.668E-01    0.904E-01
RMM:   2    -0.413169107008E+03   -0.57083E-02   -0.11416E-01  4295   0.943E-02    0.641E-01
RMM:   3    -0.413169940279E+03   -0.83327E-03   -0.16035E-02  5099   0.741E-02    0.283E-01
RMM:   4    -0.413194669245E+03   -0.24729E-01   -0.40895E-02  5101   0.171E-01    0.700E-01
RMM:   5    -0.413165863639E+03    0.28806E-01   -0.11764E-02  4723   0.115E-01    0.594E-02
RMM:   6    -0.413165923105E+03   -0.59466E-04   -0.22096E-03  5535   0.464E-02    0.318E-02
RMM:   7    -0.413165932554E+03   -0.94491E-05   -0.37987E-04  5988   0.170E-02    0.191E-02
RMM:   8    -0.413165925685E+03    0.68694E-05   -0.65736E-05  5174   0.905E-03    0.806E-03
RMM:   9    -0.413165920751E+03    0.49334E-05   -0.88566E-06  3435   0.366E-03    0.417E-03
RMM:  10    -0.413165919530E+03    0.12213E-05   -0.21197E-06  2580   0.222E-03    0.276E-03
RMM:  11    -0.413165917708E+03    0.18214E-05   -0.12788E-06  2518   0.180E-03    0.149E-03
RMM:  12    -0.413165915822E+03    0.18862E-05   -0.77685E-07  2477   0.142E-03    0.558E-04
RMM:  13    -0.413165914807E+03    0.10154E-05   -0.38550E-07  2114   0.101E-03    0.320E-04
RMM:  14    -0.413165913830E+03    0.97697E-06   -0.23514E-07  1651   0.811E-04
   10 T=    61. E= -.41286671E+03 F= -.41316591E+03 E0= -.41314353E+03  EK= 0.29920E+00 SP= 0.00E+00 SK= 0.00E+00
       N       E                     dE             d eps       ncg     rms          rms(c)
RMM:   1    -0.413163760338E+03    0.21545E-02   -0.94243E+00  4290   0.676E-01    0.882E-01
RMM:   2    -0.413170090374E+03   -0.63300E-02   -0.11550E-01  4216   0.936E-02    0.643E-01
RMM:   3    -0.413167176328E+03    0.29140E-02   -0.13486E-02  4900   0.482E-02    0.121E-01
RMM:   4    -0.413198594711E+03   -0.31418E-01   -0.33352E-02  5133   0.152E-01    0.739E-01
RMM:   5    -0.413166493162E+03    0.32102E-01   -0.15490E-02  4803   0.123E-01    0.490E-02
RMM:   6    -0.413166682949E+03   -0.18979E-03   -0.25921E-03  5757   0.496E-02    0.327E-02
RMM:   7    -0.413166682381E+03    0.56814E-06   -0.42998E-04  5697   0.189E-02    0.205E-02
RMM:   8    -0.413166675795E+03    0.65859E-05   -0.63042E-05  5116   0.858E-03    0.946E-03
RMM:   9    -0.413166674173E+03    0.16219E-05   -0.12396E-05  3827   0.398E-03    0.690E-03
RMM:  10    -0.413166675339E+03   -0.11658E-05   -0.18595E-06  2565   0.215E-03    0.431E-03
RMM:  11    -0.413166676573E+03   -0.12335E-05   -0.12382E-06  2521   0.175E-03    0.225E-03
RMM:  12    -0.413166678159E+03   -0.15861E-05   -0.16326E-06  2565   0.188E-03    0.966E-04
RMM:  13    -0.413166678477E+03   -0.31820E-06   -0.50528E-07  2344   0.123E-03
   11 T=    61. E= -.41286698E+03 F= -.41316668E+03 E0= -.41314432E+03  EK= 0.29970E+00 SP= 0.00E+00 SK= 0.00E+00
       N       E                     dE             d eps       ncg     rms          rms(c)
RMM:   1    -0.413164004474E+03    0.26737E-02   -0.94982E+00  4292   0.684E-01    0.893E-01
RMM:   2    -0.413169994694E+03   -0.59902E-02   -0.11615E-01  4209   0.940E-02    0.650E-01
RMM:   3    -0.413166951892E+03    0.30428E-02   -0.13650E-02  4791   0.470E-02    0.106E-01
RMM:   4    -0.413192043604E+03   -0.25092E-01   -0.26072E-02  5128   0.134E-01    0.662E-01
RMM:   5    -0.413166475246E+03    0.25568E-01   -0.12399E-02  4807   0.109E-01    0.459E-02
RMM:   6    -0.413166637742E+03   -0.16250E-03   -0.21803E-03  5805   0.444E-02    0.302E-02
RMM:   7    -0.413166640107E+03   -0.23649E-05   -0.34952E-04  5669   0.179E-02    0.192E-02
RMM:   8    -0.413166631981E+03    0.81261E-05   -0.59580E-05  4958   0.840E-03    0.946E-03
RMM:   9    -0.413166630345E+03    0.16359E-05   -0.11713E-05  3823   0.392E-03    0.722E-03
RMM:  10    -0.413166631062E+03   -0.71653E-06   -0.17244E-06  2550   0.217E-03
   12 T=    61. E= -.41286667E+03 F= -.41316663E+03 E0= -.41314430E+03  EK= 0.29996E+00 SP= 0.00E+00 SK= 0.00E+00
       N       E                     dE             d eps       ncg     rms          rms(c)
RMM:   1    -0.413164796634E+03    0.18337E-02   -0.94905E+00  4302   0.681E-01    0.909E-01
RMM:   2    -0.413170001555E+03   -0.52049E-02   -0.11474E-01  4299   0.911E-02    0.644E-01
RMM:   3    -0.413171545406E+03   -0.15439E-02   -0.16442E-02  5126   0.745E-02    0.293E-01
RMM:   4    -0.413195046070E+03   -0.23501E-01   -0.40669E-02  5100   0.171E-01    0.689E-01
RMM:   5    -0.413167147725E+03    0.27898E-01   -0.11219E-02  4713   0.113E-01    0.591E-02
RMM:   6    -0.413167204596E+03   -0.56871E-04   -0.21345E-03  5536   0.456E-02    0.318E-02
RMM:   7    -0.413167211168E+03   -0.65722E-05   -0.36741E-04  5979   0.170E-02    0.191E-02
RMM:   8    -0.413167203791E+03    0.73778E-05   -0.65344E-05  5158   0.905E-03    0.803E-03
RMM:   9    -0.413167198155E+03    0.56355E-05   -0.87420E-06  3424   0.367E-03    0.415E-03
RMM:  10    -0.413167196267E+03    0.18876E-05   -0.20402E-06  2568   0.219E-03    0.274E-03
RMM:  11    -0.413167193358E+03    0.29090E-05   -0.12463E-06  2507   0.179E-03    0.149E-03
RMM:  12    -0.413167190566E+03    0.27923E-05   -0.74838E-07  2472   0.141E-03    0.559E-04
RMM:  13    -0.413167189086E+03    0.14803E-05   -0.37161E-07  2107   0.101E-03    0.328E-04
RMM:  14    -0.413167187670E+03    0.14162E-05   -0.22269E-07  1640   0.802E-04    0.223E-04
RMM:  15    -0.413167185529E+03    0.21409E-05   -0.20284E-07  1520   0.754E-04    0.137E-04
RMM:  16    -0.413167183284E+03    0.22452E-05   -0.17438E-07  1433   0.709E-04    0.139E-04
RMM:  17    -0.413167181255E+03    0.20285E-05   -0.13252E-07  1277   0.655E-04    0.763E-05
RMM:  18    -0.413167179865E+03    0.13898E-05   -0.83053E-08  1066   0.593E-04    0.319E-05
RMM:  19    -0.413167179174E+03    0.69119E-06   -0.44816E-08   875   0.551E-04
   13 T=    61. E= -.41286673E+03 F= -.41316718E+03 E0= -.41314488E+03  EK= 0.30045E+00 SP= 0.00E+00 SK= 0.00E+00
       N       E                     dE             d eps       ncg     rms          rms(c)
RMM:   1    -0.413165243137E+03    0.19367E-02   -0.94352E+00  4291   0.697E-01    0.885E-01
RMM:   2    -0.413171021643E+03   -0.57785E-02   -0.11678E-01  4231   0.912E-02    0.642E-01
RMM:   3    -0.413168440620E+03    0.25810E-02   -0.13349E-02  4956   0.467E-02    0.130E-01
RMM:   4    -0.413202239186E+03   -0.33799E-01   -0.36335E-02  5132   0.158E-01    0.766E-01
RMM:   5    -0.413167675163E+03    0.34564E-01   -0.16677E-02  4795   0.127E-01    0.504E-02
RMM:   6    -0.413167872111E+03   -0.19695E-03   -0.27952E-03  5749   0.513E-02    0.334E-02
RMM:   7    -0.413167870295E+03    0.18155E-05   -0.44841E-04  5698   0.193E-02    0.210E-02
RMM:   8    -0.413167863248E+03    0.70470E-05   -0.67269E-05  5147   0.884E-03    0.976E-03
RMM:   9    -0.413167860029E+03    0.32187E-05   -0.13412E-05  3963   0.415E-03    0.697E-03
RMM:  10    -0.413167859784E+03    0.24499E-06   -0.19415E-06  2562   0.218E-03
   14 T=    61. E= -.41286690E+03 F= -.41316786E+03 E0= -.41314559E+03  EK= 0.30096E+00 SP= 0.00E+00 SK= 0.00E+00
       N       E                     dE             d eps       ncg     rms          rms(c)
RMM:   1    -0.413165018351E+03    0.28417E-02   -0.95201E+00  4304   0.691E-01    0.891E-01
RMM:   2    -0.413171506860E+03   -0.64885E-02   -0.11662E-01  4319   0.925E-02    0.652E-01
RMM:   3    -0.413173781308E+03   -0.22744E-02   -0.18124E-02  5121   0.826E-02    0.333E-01
RMM:   4    -0.413194323257E+03   -0.20542E-01   -0.42313E-02  5085   0.175E-01    0.670E-01
RMM:   5    -0.413167841279E+03    0.26482E-01   -0.10143E-02  4686   0.109E-01    0.588E-02
RMM:   6    -0.413167873961E+03   -0.32682E-04   -0.19735E-03  5477   0.435E-02    0.297E-02
RMM:   7    -0.413167892958E+03   -0.18996E-04   -0.34250E-04  5972   0.168E-02    0.183E-02
RMM:   8    -0.413167891341E+03    0.16165E-05   -0.65415E-05  5154   0.905E-03    0.768E-03
RMM:   9    -0.413167889160E+03    0.21811E-05   -0.85012E-06  3388   0.371E-03    0.386E-03
RMM:  10    -0.413167890120E+03   -0.95987E-06   -0.17392E-06  2541   0.210E-03
   15 T=    61. E= -.41286659E+03 F= -.41316789E+03 E0= -.41314566E+03  EK= 0.30130E+00 SP= 0.00E+00 SK= 0.00E+00
       N       E                     dE             d eps       ncg     rms          rms(c)
RMM:   1    -0.413166455440E+03    0.14337E-02   -0.95270E+00  4301   0.693E-01    0.910E-01
RMM:   2    -0.413172259390E+03   -0.58039E-02   -0.11542E-01  4245   0.951E-02    0.647E-01
RMM:   3    -0.413169573423E+03    0.26860E-02   -0.13563E-02  4909   0.509E-02    0.137E-01
RMM:   4    -0.413204130930E+03   -0.34558E-01   -0.37095E-02  5125   0.160E-01    0.775E-01
RMM:   5    -0.413168761268E+03    0.35370E-01   -0.17024E-02  4802   0.129E-01    0.514E-02
RMM:   6    -0.413168968286E+03   -0.20702E-03   -0.29146E-03  5768   0.524E-02    0.346E-02
RMM:   7    -0.413168964200E+03    0.40864E-05   -0.46671E-04  5718   0.200E-02    0.219E-02
RMM:   8    -0.413168952612E+03    0.11588E-04   -0.71490E-05  5167   0.912E-03    0.104E-02
RMM:   9    -0.413168946642E+03    0.59697E-05   -0.13676E-05  3980   0.419E-03    0.741E-03
RMM:  10    -0.413168942941E+03    0.37011E-05   -0.20858E-06  2574   0.227E-03    0.460E-03
RMM:  11    -0.413168940088E+03    0.28528E-05   -0.11921E-06  2512   0.175E-03    0.259E-03
RMM:  12    -0.413168934824E+03    0.52642E-05   -0.18859E-06  2591   0.204E-03    0.108E-03
RMM:  13    -0.413168932136E+03    0.26876E-05   -0.62634E-07  2398   0.136E-03    0.841E-04
RMM:  14    -0.413168932322E+03   -0.18534E-06   -0.25141E-07  1940   0.881E-04
   16 T=    61. E= -.41286692E+03 F= -.41316893E+03 E0= -.41314673E+03  EK= 0.30201E+00 SP= 0.00E+00 SK= 0.00E+00
       N       E                     dE             d eps       ncg     rms          rms(c)
RMM:   1    -0.413166532946E+03    0.23992E-02   -0.94615E+00  4293   0.699E-01    0.891E-01
RMM:   2    -0.413172841659E+03   -0.63087E-02   -0.11524E-01  4256   0.961E-02    0.642E-01
RMM:   3    -0.413169765490E+03    0.30762E-02   -0.13195E-02  4814   0.495E-02    0.117E-01
RMM:   4    -0.413197640607E+03   -0.27875E-01   -0.29109E-02  5127   0.142E-01    0.697E-01
RMM:   5    -0.413169207339E+03    0.28433E-01   -0.13799E-02  4799   0.115E-01    0.477E-02
RMM:   6    -0.413169392620E+03   -0.18528E-03   -0.24530E-03  5803   0.466E-02    0.318E-02
RMM:   7    -0.413169389669E+03    0.29509E-05   -0.38060E-04  5650   0.185E-02    0.200E-02
RMM:   8    -0.413169377872E+03    0.11797E-04   -0.65526E-05  5013   0.874E-03    0.100E-02
RMM:   9    -0.413169373139E+03    0.47333E-05   -0.12791E-05  3963   0.409E-03    0.754E-03
RMM:  10    -0.413169370650E+03    0.24880E-05   -0.18410E-06  2560   0.220E-03    0.468E-03
RMM:  11    -0.413169368260E+03    0.23907E-05   -0.14480E-06  2527   0.192E-03    0.235E-03
RMM:  12    -0.413169365021E+03    0.32384E-05   -0.14863E-06  2532   0.188E-03    0.913E-04
RMM:  13    -0.413169363846E+03    0.11749E-05   -0.47901E-07  2307   0.122E-03    0.590E-04
RMM:  14    -0.413169363625E+03    0.22107E-06   -0.22397E-07  1831   0.831E-04
   17 T=    62. E= -.41286675E+03 F= -.41316936E+03 E0= -.41314720E+03  EK= 0.30261E+00 SP= 0.00E+00 SK= 0.00E+00
       N       E                     dE             d eps       ncg     rms          rms(c)
RMM:   1    -0.413166962645E+03    0.24012E-02   -0.95471E+00  4295   0.704E-01    0.889E-01
RMM:   2    -0.413173503464E+03   -0.65408E-02   -0.11742E-01  4263   0.953E-02    0.653E-01
RMM:   3    -0.413170322892E+03    0.31806E-02   -0.14008E-02  4860   0.497E-02    0.115E-01
RMM:   4    -0.413200733529E+03   -0.30411E-01   -0.32231E-02  5122   0.149E-01    0.727E-01
RMM:   5    -0.413169665688E+03    0.31068E-01   -0.15114E-02  4798   0.120E-01    0.484E-02
RMM:   6    -0.413169854241E+03   -0.18855E-03   -0.25546E-03  5786   0.486E-02    0.322E-02
RMM:   7    -0.413169854357E+03   -0.11516E-06   -0.41669E-04  5648   0.188E-02    0.203E-02
RMM:   8    -0.413169847184E+03    0.71726E-05   -0.62762E-05  5080   0.861E-03    0.950E-03
RMM:   9    -0.413169844685E+03    0.24985E-05   -0.12738E-05  3889   0.402E-03    0.698E-03
RMM:  10    -0.413169844946E+03   -0.26058E-06   -0.18141E-06  2555   0.213E-03
   18 T=    62. E= -.41286662E+03 F= -.41316984E+03 E0= -.41314773E+03  EK= 0.30322E+00 SP= 0.00E+00 SK= 0.00E+00
       N       E                     dE             d eps       ncg     rms          rms(c)
RMM:   1    -0.413168551222E+03    0.12935E-02   -0.95688E+00  4301   0.709E-01    0.910E-01
RMM:   2    -0.413174124982E+03   -0.55738E-02   -0.11652E-01  4315   0.915E-02    0.650E-01
RMM:   3    -0.413175964702E+03   -0.18397E-02   -0.17015E-02  5122   0.767E-02    0.309E-01
RMM:   4    -0.413198559381E+03   -0.22595E-01   -0.41699E-02  5086   0.173E-01    0.684E-01
RMM:   5    -0.413171021390E+03    0.27538E-01   -0.10900E-02  4693   0.111E-01    0.589E-02
RMM:   6    -0.413171071446E+03   -0.50056E-04   -0.20936E-03  5509   0.446E-02    0.315E-02
RMM:   7    -0.413171077030E+03   -0.55840E-05   -0.36281E-04  5968   0.171E-02    0.193E-02
RMM:   8    -0.413171068530E+03    0.85006E-05   -0.66475E-05  5150   0.910E-03    0.808E-03
RMM:   9    -0.413171061886E+03    0.66439E-05   -0.86906E-06  3428   0.370E-03    0.410E-03
RMM:  10    -0.413171059490E+03    0.23959E-05   -0.19341E-06  2558   0.217E-03    0.268E-03
RMM:  11    -0.413171055705E+03    0.37851E-05   -0.12316E-06  2505   0.179E-03    0.148E-03
RMM:  12    -0.413171052275E+03    0.34302E-05   -0.69136E-07  2461   0.139E-03    0.535E-04
RMM:  13    -0.413171050375E+03    0.18996E-05   -0.34352E-07  2075   0.988E-04    0.315E-04
RMM:  14    -0.413171048646E+03    0.17290E-05   -0.19938E-07  1593   0.784E-04    0.217E-04
RMM:  15    -0.413171045786E+03    0.28604E-05   -0.16776E-07  1406   0.728E-04    0.126E-04
RMM:  16    -0.413171043176E+03    0.26091E-05   -0.13145E-07  1335   0.684E-04    0.131E-04
RMM:  17    -0.413171040417E+03    0.27590E-05   -0.11176E-07  1253   0.652E-04    0.702E-05
RMM:  18    -0.413171038597E+03    0.18202E-05   -0.70632E-08  1061   0.595E-04    0.334E-05
RMM:  19    -0.413171037701E+03    0.89582E-06   -0.37747E-08   856   0.554E-04
   19 T=    62. E= -.41286699E+03 F= -.41317104E+03 E0= -.41314896E+03  EK= 0.30405E+00 SP= 0.00E+00 SK= 0.00E+00
       N       E                     dE             d eps       ncg     rms          rms(c)
RMM:   1    -0.413168750144E+03    0.22885E-02   -0.95163E+00  4298   0.707E-01    0.900E-01
RMM:   2    -0.413174321269E+03   -0.55711E-02   -0.11607E-01  4261   0.915E-02    0.644E-01
RMM:   3    -0.413172126879E+03    0.21944E-02   -0.13488E-02  4974   0.490E-02    0.142E-01
RMM:   4    -0.413208216250E+03   -0.36089E-01   -0.39326E-02  5127   0.165E-01    0.791E-01
RMM:   5    -0.413171234282E+03    0.36982E-01   -0.17854E-02  4792   0.131E-01    0.520E-02
RMM:   6    -0.413171440729E+03   -0.20645E-03   -0.29846E-03  5760   0.530E-02    0.348E-02
RMM:   7    -0.413171434017E+03    0.67120E-05   -0.47102E-04  5688   0.201E-02    0.219E-02
RMM:   8    -0.413171422987E+03    0.11030E-04   -0.73548E-05  5200   0.921E-03    0.103E-02
RMM:   9    -0.413171416757E+03    0.62306E-05   -0.14522E-05  4088   0.431E-03    0.720E-03
RMM:  10    -0.413171413236E+03    0.35211E-05   -0.21036E-06  2577   0.223E-03    0.452E-03
RMM:  11    -0.413171410636E+03    0.25995E-05   -0.11546E-06  2510   0.171E-03    0.253E-03
RMM:  12    -0.413171406082E+03    0.45540E-05   -0.16210E-06  2542   0.195E-03    0.102E-03
RMM:  13    -0.413171403762E+03    0.23203E-05   -0.58328E-07  2367   0.132E-03    0.825E-04
RMM:  14    -0.413171403952E+03   -0.19034E-06   -0.25060E-07  1926   0.875E-04
   20 T=    62. E= -.41286673E+03 F= -.41317140E+03 E0= -.41314937E+03  EK= 0.30467E+00 SP= 0.00E+00 SK= 0.00E+00
       N       E                     dE             d eps       ncg     rms          rms(c)
RMM:   1    -0.413169591690E+03    0.18121E-02   -0.95727E+00  4293   0.718E-01    0.889E-01
RMM:   2    -0.413176147337E+03   -0.65556E-02   -0.11818E-01  4269   0.928E-02    0.653E-01
RMM:   3    -0.413172954913E+03    0.31924E-02   -0.13921E-02  4882   0.474E-02    0.111E-01
RMM:   4    -0.413201141603E+03   -0.28187E-01   -0.29712E-02  5126   0.143E-01    0.701E-01
RMM:   5    -0.413172376743E+03    0.28765E-01   -0.14063E-02  4798   0.116E-01    0.471E-02
RMM:   6    -0.413172547644E+03   -0.17090E-03   -0.23927E-03  5816   0.464E-02    0.303E-02
RMM:   7    -0.413172550304E+03   -0.26608E-05   -0.35463E-04  5669   0.180E-02    0.189E-02
RMM:   8    -0.413172542435E+03    0.78698E-05   -0.68269E-05  5022   0.873E-03    0.996E-03
RMM:   9    -0.413172538359E+03    0.40756E-05   -0.13146E-05  4039   0.421E-03    0.733E-03
RMM:  10    -0.413172537697E+03    0.66214E-06   -0.18074E-06  2556   0.216E-03
   21 T=    62. E= -.41286694E+03 F= -.41317254E+03 E0= -.41315055E+03  EK= 0.30560E+00 SP= 0.00E+00 SK= 0.00E+00
       N       E                     dE             d eps       ncg     rms          rms(c)
RMM:   1    -0.413171769896E+03    0.76846E-03   -0.96262E+00  4301   0.744E-01    0.908E-01
RMM:   2    -0.413177021947E+03   -0.52521E-02   -0.11783E-01  4329   0.959E-02    0.654E-01
RMM:   3    -0.413178341838E+03   -0.13199E-02   -0.17023E-02  5108   0.771E-02    0.302E-01
RMM:   4    -0.413202914139E+03   -0.24572E-01   -0.43381E-02  5094   0.176E-01    0.705E-01
RMM:   5    -0.413173545828E+03    0.29368E-01   -0.11797E-02  4699   0.115E-01    0.583E-02
RMM:   6    -0.413173616977E+03   -0.71149E-04   -0.22507E-03  5569   0.461E-02    0.315E-02
RMM:   7    -0.413173625655E+03   -0.86779E-05   -0.37402E-04  5929   0.175E-02    0.194E-02
RMM:   8    -0.413173619399E+03    0.62561E-05   -0.67981E-05  5141   0.927E-03    0.820E-03
RMM:   9    -0.413173613021E+03    0.63781E-05   -0.98509E-06  3529   0.387E-03    0.418E-03
RMM:  10    -0.413173610628E+03    0.23928E-05   -0.20884E-06  2580   0.220E-03    0.275E-03
RMM:  11    -0.413173607185E+03    0.34431E-05   -0.11747E-06  2501   0.175E-03    0.145E-03
RMM:  12    -0.413173603611E+03    0.35737E-05   -0.69270E-07  2455   0.138E-03    0.501E-04
RMM:  13    -0.413173601585E+03    0.20261E-05   -0.34008E-07  2068   0.983E-04    0.297E-04
RMM:  14    -0.413173599826E+03    0.17589E-05   -0.19179E-07  1578   0.775E-04    0.198E-04
RMM:  15    -0.413173597097E+03    0.27286E-05   -0.14893E-07  1374   0.712E-04    0.119E-04
RMM:  16    -0.413173594360E+03    0.27370E-05   -0.11696E-07  1247   0.674E-04    0.129E-04
RMM:  17    -0.413173591978E+03    0.23822E-05   -0.90867E-08  1209   0.639E-04    0.756E-05
RMM:  18    -0.413173589745E+03    0.22335E-05   -0.68892E-08  1084   0.603E-04    0.323E-05
RMM:  19    -0.413173588720E+03    0.10246E-05   -0.36104E-08   866   0.557E-04    0.234E-05
RMM:  20    -0.413173588302E+03    0.41784E-06   -0.17895E-08   747   0.538E-04
   22 T=    62. E= -.41286701E+03 F= -.41317359E+03 E0= -.41315165E+03  EK= 0.30657E+00 SP= 0.00E+00 SK= 0.00E+00
       N       E                     dE             d eps       ncg     rms          rms(c)
RMM:   1    -0.413171720421E+03    0.18683E-02   -0.95950E+00  4296   0.721E-01    0.909E-01
RMM:   2    -0.413177632830E+03   -0.59124E-02   -0.11712E-01  4281   0.953E-02    0.648E-01
RMM:   3    -0.413174882236E+03    0.27506E-02   -0.13556E-02  4897   0.511E-02    0.136E-01
RMM:   4    -0.413209180900E+03   -0.34299E-01   -0.36774E-02  5121   0.159E-01    0.771E-01
RMM:   5    -0.413174114027E+03    0.35067E-01   -0.17088E-02  4794   0.128E-01    0.510E-02
RMM:   6    -0.413174309827E+03   -0.19580E-03   -0.28586E-03  5784   0.516E-02    0.345E-02
RMM:   7    -0.413174301019E+03    0.88086E-05   -0.44268E-04  5661   0.199E-02    0.214E-02
RMM:   8    -0.413174289177E+03    0.11842E-04   -0.75007E-05  5147   0.931E-03    0.106E-02
RMM:   9    -0.413174281908E+03    0.72684E-05   -0.14788E-05  4121   0.438E-03    0.748E-03
RMM:  10    -0.413174277294E+03    0.46146E-05   -0.21018E-06  2581   0.226E-03    0.465E-03
RMM:  11    -0.413174273625E+03    0.36684E-05   -0.12142E-06  2510   0.177E-03    0.257E-03
RMM:  12    -0.413174267454E+03    0.61711E-05   -0.17420E-06  2563   0.201E-03    0.107E-03
RMM:  13    -0.413174264591E+03    0.28628E-05   -0.55964E-07  2367   0.133E-03    0.800E-04
RMM:  14    -0.413174264788E+03   -0.19661E-06   -0.24702E-07  1937   0.874E-04
   23 T=    63. E= -.41286674E+03 F= -.41317426E+03 E0= -.41315237E+03  EK= 0.30753E+00 SP= 0.00E+00 SK= 0.00E+00
       N       E                     dE             d eps       ncg     rms          rms(c)
RMM:   1    -0.413172969017E+03    0.12956E-02   -0.96141E+00  4295   0.736E-01    0.892E-01
RMM:   2    -0.413179730772E+03   -0.67618E-02   -0.11891E-01  4282   0.983E-02    0.653E-01
RMM:   3    -0.413176133744E+03    0.35970E-02   -0.13700E-02  4774   0.486E-02    0.104E-01
RMM:   4    -0.413199631167E+03   -0.23497E-01   -0.24287E-02  5128   0.130E-01    0.641E-01
RMM:   5    -0.413175720181E+03    0.23911E-01   -0.11787E-02  4802   0.106E-01    0.453E-02
RMM:   6    -0.413175852525E+03   -0.13234E-03   -0.20340E-03  5823   0.420E-02    0.282E-02
RMM:   7    -0.413175855334E+03   -0.28088E-05   -0.26082E-04  5651   0.159E-02    0.153E-02
RMM:   8    -0.413175851028E+03    0.43057E-05   -0.56336E-05  4981   0.776E-03    0.980E-03
RMM:   9    -0.413175846190E+03    0.48380E-05   -0.11485E-05  3928   0.393E-03    0.725E-03
RMM:  10    -0.413175844564E+03    0.16256E-05   -0.17069E-06  2551   0.219E-03    0.445E-03
RMM:  11    -0.413175842794E+03    0.17706E-05   -0.15345E-06  2529   0.198E-03    0.227E-03
RMM:  12    -0.413175840224E+03    0.25696E-05   -0.13338E-06  2505   0.182E-03    0.878E-04
RMM:  13    -0.413175839374E+03    0.85027E-06   -0.44250E-07  2254   0.117E-03
   24 T=    63. E= -.41286698E+03 F= -.41317584E+03 E0= -.41315399E+03  EK= 0.30886E+00 SP= 0.00E+00 SK= 0.00E+00
       N       E                     dE             d eps       ncg     rms          rms(c)
RMM:   1    -0.413174401972E+03    0.14383E-02   -0.96977E+00  4296   0.746E-01    0.907E-01
RMM:   2    -0.413180597243E+03   -0.61953E-02   -0.12003E-01  4280   0.995E-02    0.659E-01
RMM:   3    -0.413177044594E+03    0.35526E-02   -0.13799E-02  4744   0.483E-02    0.103E-01
RMM:   4    -0.413198624528E+03   -0.21580E-01   -0.22163E-02  5136   0.124E-01    0.615E-01
RMM:   5    -0.413176689488E+03    0.21935E-01   -0.10833E-02  4810   0.101E-01    0.447E-02
RMM:   6    -0.413176804139E+03   -0.11465E-03   -0.18540E-03  5825   0.402E-02    0.274E-02
RMM:   7    -0.413176803436E+03    0.70343E-06   -0.22716E-04  5651   0.150E-02    0.141E-02
RMM:   8    -0.413176798801E+03    0.46349E-05   -0.47762E-05  4960   0.712E-03    0.945E-03
RMM:   9    -0.413176793993E+03    0.48077E-05   -0.99584E-06  3748   0.366E-03    0.706E-03
RMM:  10    -0.413176791676E+03    0.23174E-05   -0.15645E-06  2537   0.215E-03    0.432E-03
RMM:  11    -0.413176788753E+03    0.29226E-05   -0.15928E-06  2540   0.200E-03    0.216E-03
RMM:  12    -0.413176784960E+03    0.37928E-05   -0.11888E-06  2489   0.174E-03    0.873E-04
RMM:  13    -0.413176783920E+03    0.10399E-05   -0.40534E-07  2219   0.112E-03    0.598E-04
RMM:  14    -0.413176783408E+03    0.51218E-06   -0.18674E-07  1692   0.791E-04
   25 T=    63. E= -.41286674E+03 F= -.41317678E+03 E0= -.41315499E+03  EK= 0.31004E+00 SP= 0.00E+00 SK= 0.00E+00
       N       E                     dE             d eps       ncg     rms          rms(c)
RMM:   1    -0.413175790641E+03    0.99328E-03   -0.97021E+00  4294   0.739E-01    0.919E-01
RMM:   2    -0.413181358594E+03   -0.55680E-02   -0.11872E-01  4283   0.975E-02    0.653E-01
RMM:   3    -0.413178554246E+03    0.28043E-02   -0.13594E-02  4801   0.504E-02    0.122E-01
RMM:   4    -0.413206659017E+03   -0.28105E-01   -0.29285E-02  5133   0.142E-01    0.700E-01
RMM:   5    -0.413178027250E+03    0.28632E-01   -0.14193E-02  4803   0.116E-01    0.488E-02
RMM:   6    -0.413178181395E+03   -0.15415E-03   -0.24464E-03  5811   0.470E-02    0.332E-02
RMM:   7    -0.413178170772E+03    0.10623E-04   -0.39184E-04  5634   0.190E-02    0.203E-02
RMM:   8    -0.413178157089E+03    0.13683E-04   -0.67767E-05  5065   0.900E-03    0.104E-02
RMM:   9    -0.413178149757E+03    0.73321E-05   -0.12734E-05  3945   0.416E-03    0.762E-03
RMM:  10    -0.413178144016E+03    0.57406E-05   -0.19027E-06  2562   0.226E-03    0.469E-03
RMM:  11    -0.413178138619E+03    0.53971E-05   -0.13707E-06  2525   0.189E-03    0.242E-03
RMM:  12    -0.413178131070E+03    0.75493E-05   -0.14886E-06  2520   0.192E-03    0.967E-04
RMM:  13    -0.413178127943E+03    0.31262E-05   -0.50464E-07  2339   0.126E-03    0.640E-04
RMM:  14    -0.413178127700E+03    0.24360E-06   -0.23966E-07  1877   0.851E-04
   26 T=    63. E= -.41286676E+03 F= -.41317813E+03 E0= -.41315638E+03  EK= 0.31137E+00 SP= 0.00E+00 SK= 0.00E+00
       N       E                     dE             d eps       ncg     rms          rms(c)
RMM:   1    -0.413177964917E+03    0.16303E-03   -0.96885E+00  4297   0.777E-01    0.897E-01
RMM:   2    -0.413183256945E+03   -0.52920E-02   -0.12071E-01  4283   0.101E-01    0.654E-01
RMM:   3    -0.413180214028E+03    0.30429E-02   -0.13630E-02  4752   0.478E-02    0.103E-01
RMM:   4    -0.413200995034E+03   -0.20781E-01   -0.21365E-02  5140   0.122E-01    0.604E-01
RMM:   5    -0.413179880832E+03    0.21114E-01   -0.10518E-02  4809   0.996E-02    0.447E-02
RMM:   6    -0.413179981110E+03   -0.10028E-03   -0.18326E-03  5829   0.398E-02    0.279E-02
RMM:   7    -0.413179976139E+03    0.49703E-05   -0.23909E-04  5646   0.154E-02    0.148E-02
RMM:   8    -0.413179970599E+03    0.55402E-05   -0.49830E-05  4962   0.736E-03    0.957E-03
RMM:   9    -0.413179965355E+03    0.52442E-05   -0.10073E-05  3773   0.374E-03    0.711E-03
RMM:  10    -0.413179962551E+03    0.28035E-05   -0.15791E-06  2532   0.214E-03    0.428E-03
RMM:  11    -0.413179959518E+03    0.30337E-05   -0.13782E-06  2515   0.189E-03    0.221E-03
RMM:  12    -0.413179955314E+03    0.42039E-05   -0.12556E-06  2499   0.176E-03    0.867E-04
RMM:  13    -0.413179953938E+03    0.13760E-05   -0.42516E-07  2236   0.115E-03    0.575E-04
RMM:  14    -0.413179953440E+03    0.49734E-06   -0.19986E-07  1742   0.802E-04
   27 T=    64. E= -.41286706E+03 F= -.41317995E+03 E0= -.41315825E+03  EK= 0.31290E+00 SP= 0.00E+00 SK= 0.00E+00
       N       E                     dE             d eps       ncg     rms          rms(c)
RMM:   1    -0.413181312590E+03   -0.13587E-02   -0.98200E+00  4295   0.783E-01    0.907E-01
RMM:   2    -0.413184586453E+03   -0.32739E-02   -0.12400E-01  4277   0.102E-01    0.664E-01
RMM:   3    -0.413181416684E+03    0.31698E-02   -0.14113E-02  4793   0.506E-02    0.107E-01
RMM:   4    -0.413205508502E+03   -0.24092E-01   -0.24850E-02  5133   0.131E-01    0.649E-01
RMM:   5    -0.413181010324E+03    0.24498E-01   -0.12153E-02  4802   0.107E-01    0.462E-02
RMM:   6    -0.413181135157E+03   -0.12483E-03   -0.20997E-03  5816   0.432E-02    0.298E-02
RMM:   7    -0.413181132586E+03    0.25710E-05   -0.32022E-04  5653   0.173E-02    0.179E-02
RMM:   8    -0.413181124243E+03    0.83429E-05   -0.63642E-05  4987   0.849E-03    0.987E-03
RMM:   9    -0.413181118917E+03    0.53261E-05   -0.12014E-05  3969   0.409E-03    0.722E-03
RMM:  10    -0.413181116520E+03    0.23967E-05   -0.17293E-06  2553   0.218E-03    0.438E-03
RMM:  11    -0.413181114223E+03    0.22972E-05   -0.13472E-06  2517   0.186E-03    0.226E-03
RMM:  12    -0.413181110909E+03    0.33140E-05   -0.13166E-06  2501   0.180E-03    0.861E-04
RMM:  13    -0.413181109379E+03    0.15305E-05   -0.45080E-07  2270   0.118E-03    0.551E-04
RMM:  14    -0.413181109074E+03    0.30492E-06   -0.21533E-07  1785   0.816E-04
   28 T=    64. E= -.41286681E+03 F= -.41318111E+03 E0= -.41315946E+03  EK= 0.31429E+00 SP= 0.00E+00 SK= 0.00E+00
       N       E                     dE             d eps       ncg     rms          rms(c)
RMM:   1    -0.413180715204E+03    0.39417E-03   -0.98169E+00  4291   0.762E-01    0.926E-01
RMM:   2    -0.413186348531E+03   -0.56333E-02   -0.12092E-01  4272   0.103E-01    0.659E-01
RMM:   3    -0.413183212416E+03    0.31361E-02   -0.13856E-02  4595   0.505E-02    0.105E-01
RMM:   4    -0.413197639254E+03   -0.14427E-01   -0.14659E-02  5145   0.101E-01    0.505E-01
RMM:   5    -0.413183054930E+03    0.14584E-01   -0.73923E-03  4823   0.831E-02    0.433E-02
RMM:   6    -0.413183112717E+03   -0.57787E-04   -0.12881E-03  5829   0.334E-02    0.255E-02
RMM:   7    -0.413183108556E+03    0.41613E-05   -0.16207E-04  5506   0.135E-02    0.123E-02
RMM:   8    -0.413183099297E+03    0.92592E-05   -0.26504E-05  4609   0.555E-03    0.779E-03
RMM:   9    -0.413183096933E+03    0.23643E-05   -0.69782E-06  3365   0.312E-03    0.626E-03
RMM:  10    -0.413183091426E+03    0.55070E-05   -0.13033E-06  2514   0.205E-03    0.344E-03
RMM:  11    -0.413183085370E+03    0.60553E-05   -0.12572E-06  2504   0.182E-03    0.176E-03
RMM:  12    -0.413183078988E+03    0.63823E-05   -0.83896E-07  2437   0.150E-03    0.787E-04
RMM:  13    -0.413183076854E+03    0.21344E-05   -0.32328E-07  2132   0.995E-04    0.493E-04
RMM:  14    -0.413183075708E+03    0.11456E-05   -0.14817E-07  1499   0.723E-04    0.397E-04
RMM:  15    -0.413183070606E+03    0.51016E-05   -0.17789E-07  1944   0.792E-04    0.365E-04
RMM:  16    -0.413183068194E+03    0.24125E-05   -0.64467E-08  1115   0.602E-04    0.282E-04
RMM:  17    -0.413183064925E+03    0.32689E-05   -0.49044E-08   936   0.570E-04    0.201E-04
RMM:  18    -0.413183062526E+03    0.23987E-05   -0.41004E-08   923   0.570E-04    0.550E-05
RMM:  19    -0.413183060477E+03    0.20494E-05   -0.37416E-08   993   0.583E-04    0.911E-05
RMM:  20    -0.413183060305E+03    0.17178E-06   -0.10775E-08   674   0.526E-04
   29 T=    64. E= -.41286698E+03 F= -.41318306E+03 E0= -.41316146E+03  EK= 0.31608E+00 SP= 0.00E+00 SK= 0.00E+00
       N       E                     dE             d eps       ncg     rms          rms(c)
RMM:   1    -0.413182662501E+03    0.39798E-03   -0.97904E+00  4285   0.793E-01    0.907E-01
RMM:   2    -0.413188685217E+03   -0.60227E-02   -0.12232E-01  4265   0.111E-01    0.657E-01
RMM:   3    -0.413185006210E+03    0.36790E-02   -0.13756E-02  4526   0.521E-02    0.961E-02
RMM:   4    -0.413196074052E+03   -0.11068E-01   -0.11287E-02  5144   0.890E-02    0.443E-01
RMM:   5    -0.413184900977E+03    0.11173E-01   -0.56781E-03  4824   0.727E-02    0.414E-02
RMM:   6    -0.413184945415E+03   -0.44437E-04   -0.10328E-03  5822   0.298E-02    0.252E-02
RMM:   7    -0.413184948753E+03   -0.33385E-05   -0.22746E-04  5429   0.153E-02    0.168E-02
RMM:   8    -0.413184931973E+03    0.16780E-04   -0.29583E-05  4642   0.656E-03    0.763E-03
RMM:   9    -0.413184930049E+03    0.19243E-05   -0.57036E-06  3063   0.298E-03    0.554E-03
RMM:  10    -0.413184926764E+03    0.32851E-05   -0.15620E-06  2506   0.211E-03    0.300E-03
RMM:  11    -0.413184923545E+03    0.32192E-05   -0.97131E-07  2481   0.166E-03    0.154E-03
RMM:  12    -0.413184920209E+03    0.33360E-05   -0.62615E-07  2388   0.132E-03    0.802E-04
RMM:  13    -0.413184918642E+03    0.15665E-05   -0.28207E-07  1992   0.923E-04    0.347E-04
RMM:  14    -0.413184917058E+03    0.15843E-05   -0.15396E-07  1460   0.729E-04    0.217E-04
RMM:  15    -0.413184914452E+03    0.26053E-05   -0.10518E-07  1287   0.676E-04    0.102E-04
RMM:  16    -0.413184912452E+03    0.20006E-05   -0.64777E-08  1028   0.626E-04    0.807E-05
RMM:  17    -0.413184910816E+03    0.16353E-05   -0.43778E-08   928   0.598E-04    0.559E-05
RMM:  18    -0.413184907849E+03    0.29679E-05   -0.60813E-08  1148   0.621E-04    0.370E-05
RMM:  19    -0.413184907147E+03    0.70166E-06   -0.22908E-08   785   0.548E-04
   30 T=    65. E= -.41286696E+03 F= -.41318491E+03 E0= -.41316336E+03  EK= 0.31795E+00 SP= 0.00E+00 SK= 0.00E+00
       N       E                     dE             d eps       ncg     rms          rms(c)
RMM:   1    -0.413184817473E+03    0.90376E-04   -0.99209E+00  4292   0.805E-01    0.910E-01
RMM:   2    -0.413190971201E+03   -0.61537E-02   -0.12548E-01  4278   0.118E-01    0.669E-01
RMM:   3    -0.413186597345E+03    0.43739E-02   -0.14547E-02  4431   0.592E-02    0.830E-02
RMM:   4    -0.413194069231E+03   -0.74719E-02   -0.76831E-03  5157   0.736E-02    0.365E-01
RMM:   5    -0.413186540966E+03    0.75283E-02   -0.38500E-03  4830   0.599E-02    0.401E-02
RMM:   6    -0.413186575465E+03   -0.34499E-04   -0.78325E-04  5787   0.262E-02    0.259E-02
RMM:   7    -0.413186573873E+03    0.15920E-05   -0.24247E-04  5310   0.157E-02    0.172E-02
RMM:   8    -0.413186560027E+03    0.13846E-04   -0.22859E-05  4460   0.613E-03    0.733E-03
RMM:   9    -0.413186558979E+03    0.10477E-05   -0.39374E-06  2811   0.255E-03    0.488E-03
RMM:  10    -0.413186557442E+03    0.15374E-05   -0.14905E-06  2506   0.196E-03    0.265E-03
RMM:  11    -0.413186555819E+03    0.16227E-05   -0.94169E-07  2467   0.160E-03    0.126E-03
RMM:  12    -0.413186554226E+03    0.15927E-05   -0.48410E-07  2249   0.116E-03    0.612E-04
RMM:  13    -0.413186553174E+03    0.10525E-05   -0.24639E-07  1817   0.853E-04    0.295E-04
RMM:  14    -0.413186551813E+03    0.13611E-05   -0.13761E-07  1355   0.706E-04    0.180E-04
RMM:  15    -0.413186549708E+03    0.21051E-05   -0.96925E-08  1156   0.660E-04    0.938E-05
RMM:  16    -0.413186548406E+03    0.13012E-05   -0.57090E-08   952   0.612E-04    0.675E-05
RMM:  17    -0.413186546705E+03    0.17018E-05   -0.50173E-08   973   0.604E-04    0.395E-05
RMM:  18    -0.413186544712E+03    0.19930E-05   -0.46163E-08  1007   0.597E-04    0.291E-05
RMM:  19    -0.413186544157E+03    0.55419E-06   -0.17792E-08   727   0.545E-04
   31 T=    65. E= -.41286671E+03 F= -.41318654E+03 E0= -.41316505E+03  EK= 0.31983E+00 SP= 0.00E+00 SK= 0.00E+00
       N       E                     dE             d eps       ncg     rms          rms(c)
RMM:   1    -0.413188114341E+03   -0.15696E-02   -0.99720E+00  4289   0.810E-01    0.933E-01
RMM:   2    -0.413193016511E+03   -0.49022E-02   -0.12504E-01  4279   0.125E-01    0.667E-01
RMM:   3    -0.413189104162E+03    0.39123E-02   -0.14131E-02  4310   0.565E-02    0.946E-02
RMM:   4    -0.413190283741E+03   -0.11796E-02   -0.17211E-03  5126   0.345E-02    0.145E-01
RMM:   5    -0.413189173835E+03    0.11099E-02   -0.62816E-04  4811   0.249E-02    0.403E-02
RMM:   6    -0.413189193734E+03   -0.19899E-04   -0.40382E-04  5445   0.200E-02    0.298E-02
RMM:   7    -0.413189154408E+03    0.39327E-04   -0.20239E-04  4924   0.150E-02    0.166E-02
RMM:   8    -0.413189148430E+03    0.59780E-05   -0.23847E-05  4536   0.543E-03    0.630E-03
RMM:   9    -0.413189146871E+03    0.15584E-05   -0.31584E-06  2548   0.220E-03    0.304E-03
RMM:  10    -0.413189140991E+03    0.58804E-05   -0.94902E-07  2432   0.162E-03    0.146E-03
RMM:  11    -0.413189135751E+03    0.52400E-05   -0.49689E-07  2272   0.110E-03    0.520E-04
RMM:  12    -0.413189132109E+03    0.36422E-05   -0.23118E-07  1748   0.822E-04    0.268E-04
RMM:  13    -0.413189128924E+03    0.31843E-05   -0.13093E-07  1304   0.701E-04    0.197E-04
RMM:  14    -0.413189125519E+03    0.34057E-05   -0.81157E-08  1061   0.641E-04    0.101E-04
RMM:  15    -0.413189120706E+03    0.48130E-05   -0.82773E-08  1151   0.649E-04    0.972E-05
RMM:  16    -0.413189117269E+03    0.34367E-05   -0.54210E-08  1025   0.605E-04    0.766E-05
RMM:  17    -0.413189115541E+03    0.17277E-05   -0.34335E-08   848   0.556E-04    0.492E-05
RMM:  18    -0.413189114646E+03    0.89562E-06   -0.21701E-08   739   0.531E-04
   32 T=    66. E= -.41286703E+03 F= -.41318911E+03 E0= -.41316766E+03  EK= 0.32208E+00 SP= 0.00E+00 SK= 0.00E+00
       N       E                     dE             d eps       ncg     rms          rms(c)
RMM:   1    -0.413189407456E+03   -0.29191E-03   -0.99439E+00  4289   0.820E-01    0.920E-01
RMM:   2    -0.413194676440E+03   -0.52690E-02   -0.12594E-01  4273   0.122E-01    0.663E-01
RMM:   3    -0.413191108152E+03    0.35683E-02   -0.13995E-02  4252   0.594E-02    0.918E-02
RMM:   4    -0.413191248490E+03   -0.14034E-03   -0.73814E-04  4948   0.176E-02    0.517E-02
RMM:   5    -0.413191231753E+03    0.16737E-04   -0.17366E-04  4911   0.126E-02    0.509E-02
RMM:   6    -0.413191190452E+03    0.41301E-04   -0.35002E-04  5238   0.181E-02    0.292E-02
RMM:   7    -0.413191143886E+03    0.46566E-04   -0.18212E-04  4862   0.139E-02    0.143E-02
RMM:   8    -0.413191140552E+03    0.33335E-05   -0.21650E-05  4364   0.504E-03    0.552E-03
RMM:   9    -0.413191139380E+03    0.11725E-05   -0.34679E-06  2430   0.211E-03    0.188E-03
RMM:  10    -0.413191132463E+03    0.69170E-05   -0.89092E-07  2330   0.142E-03    0.813E-04
RMM:  11    -0.413191128854E+03    0.36085E-05   -0.22210E-07  1659   0.813E-04    0.442E-04
RMM:  12    -0.413191125401E+03    0.34532E-05   -0.14214E-07  1342   0.710E-04    0.254E-04
RMM:  13    -0.413191121603E+03    0.37983E-05   -0.12304E-07  1325   0.685E-04    0.177E-04
RMM:  14    -0.413191116729E+03    0.48737E-05   -0.10114E-07  1141   0.650E-04    0.146E-04
RMM:  15    -0.413191114637E+03    0.20922E-05   -0.36501E-08   687   0.563E-04    0.899E-05
RMM:  16    -0.413191110942E+03    0.36952E-05   -0.42857E-08   789   0.583E-04    0.506E-05
RMM:  17    -0.413191109976E+03    0.96521E-06   -0.17199E-08   598   0.540E-04
   33 T=    66. E= -.41286687E+03 F= -.41319111E+03 E0= -.41316971E+03  EK= 0.32424E+00 SP= 0.00E+00 SK= 0.00E+00
       N       E                     dE             d eps       ncg     rms          rms(c)
RMM:   1    -0.413196330417E+03   -0.52195E-02   -0.10103E+01  4298   0.869E-01    0.915E-01
RMM:   2    -0.413197179311E+03   -0.84889E-03   -0.13340E-01  4276   0.132E-01    0.675E-01
RMM:   3    -0.413193539839E+03    0.36395E-02   -0.14455E-02  4300   0.656E-02    0.855E-02
RMM:   4    -0.413194914054E+03   -0.13742E-02   -0.18833E-03  5155   0.357E-02    0.157E-01
RMM:   5    -0.413193593898E+03    0.13202E-02   -0.71214E-04  4816   0.264E-02    0.391E-02
RMM:   6    -0.413193613490E+03   -0.19592E-04   -0.40492E-04  5495   0.194E-02    0.279E-02
RMM:   7    -0.413193582848E+03    0.30642E-04   -0.20028E-04  4966   0.142E-02    0.179E-02
RMM:   8    -0.413193576243E+03    0.66054E-05   -0.22916E-05  4156   0.501E-03    0.564E-03
RMM:   9    -0.413193575648E+03    0.59496E-06   -0.24191E-06  2526   0.211E-03
   34 T=    66. E= -.41286694E+03 F= -.41319358E+03 E0= -.41317222E+03  EK= 0.32663E+00 SP= 0.00E+00 SK= 0.00E+00
       N       E                     dE             d eps       ncg     rms          rms(c)
RMM:   1    -0.413201068674E+03   -0.74924E-02   -0.10195E+01  4304   0.917E-01    0.937E-01
RMM:   2    -0.413199773438E+03    0.12952E-02   -0.13806E-01  4281   0.134E-01    0.677E-01
RMM:   3    -0.413196279373E+03    0.34941E-02   -0.13946E-02  4347   0.642E-02    0.104E-01
RMM:   4    -0.413197200742E+03   -0.92137E-03   -0.16337E-03  5153   0.333E-02    0.128E-01
RMM:   5    -0.413196364560E+03    0.83618E-03   -0.50693E-04  4808   0.229E-02    0.422E-02
RMM:   6    -0.413196361302E+03    0.32582E-05   -0.34894E-04  5380   0.189E-02    0.318E-02
RMM:   7    -0.413196329497E+03    0.31805E-04   -0.22273E-04  4818   0.138E-02    0.178E-02
RMM:   8    -0.413196323139E+03    0.63582E-05   -0.22275E-05  4229   0.491E-03    0.614E-03
RMM:   9    -0.413196321480E+03    0.16590E-05   -0.35606E-06  2457   0.213E-03    0.256E-03
RMM:  10    -0.413196313730E+03    0.77501E-05   -0.10285E-06  2341   0.159E-03    0.115E-03
RMM:  11    -0.413196308983E+03    0.47464E-05   -0.37673E-07  2009   0.101E-03    0.510E-04
RMM:  12    -0.413196303295E+03    0.56887E-05   -0.24348E-07  1661   0.839E-04    0.273E-04
RMM:  13    -0.413196298773E+03    0.45214E-05   -0.12950E-07  1233   0.688E-04    0.199E-04
RMM:  14    -0.413196292088E+03    0.66856E-05   -0.11848E-07  1176   0.671E-04    0.117E-04
RMM:  15    -0.413196285473E+03    0.66150E-05   -0.99134E-08  1153   0.647E-04    0.885E-05
RMM:  16    -0.413196282959E+03    0.25136E-05   -0.43066E-08   825   0.559E-04    0.542E-05
RMM:  17    -0.413196281339E+03    0.16195E-05   -0.24285E-08   651   0.525E-04    0.344E-05
RMM:  18    -0.413196280778E+03    0.56162E-06   -0.12854E-08   534   0.504E-04
   35 T=    67. E= -.41286713E+03 F= -.41319628E+03 E0= -.41317497E+03  EK= 0.32915E+00 SP= 0.00E+00 SK= 0.00E+00
       N       E                     dE             d eps       ncg     rms          rms(c)
RMM:   1    -0.413196502573E+03   -0.22123E-03   -0.10131E+01  4300   0.873E-01    0.936E-01
RMM:   2    -0.413201705456E+03   -0.52029E-02   -0.13055E-01  4260   0.132E-01    0.671E-01
RMM:   3    -0.413198431347E+03    0.32741E-02   -0.14285E-02  4414   0.656E-02    0.104E-01
RMM:   4    -0.413204122464E+03   -0.56911E-02   -0.60302E-03  5175   0.655E-02    0.320E-01
RMM:   5    -0.413198454795E+03    0.56677E-02   -0.29647E-03  4826   0.532E-02    0.417E-02
RMM:   6    -0.413198462977E+03   -0.81819E-05   -0.70362E-04  5678   0.265E-02    0.302E-02
RMM:   7    -0.413198439733E+03    0.23244E-04   -0.26765E-04  5184   0.165E-02    0.172E-02
RMM:   8    -0.413198428249E+03    0.11484E-04   -0.23775E-05  4548   0.591E-03    0.720E-03
RMM:   9    -0.413198425686E+03    0.25631E-05   -0.35438E-06  2722   0.242E-03    0.423E-03
RMM:  10    -0.413198420191E+03    0.54948E-05   -0.12113E-06  2488   0.184E-03    0.220E-03
RMM:  11    -0.413198415015E+03    0.51760E-05   -0.72153E-07  2418   0.138E-03    0.109E-03
RMM:  12    -0.413198409964E+03    0.50508E-05   -0.41082E-07  2180   0.107E-03    0.497E-04
RMM:  13    -0.413198406618E+03    0.33458E-05   -0.22322E-07  1749   0.819E-04    0.252E-04
RMM:  14    -0.413198402988E+03    0.36301E-05   -0.11190E-07  1219   0.678E-04    0.171E-04
RMM:  15    -0.413198398097E+03    0.48909E-05   -0.81267E-08  1100   0.647E-04    0.839E-05
RMM:  16    -0.413198395341E+03    0.27566E-05   -0.56888E-08  1053   0.611E-04    0.629E-05
RMM:  17    -0.413198392127E+03    0.32138E-05   -0.47791E-08  1058   0.599E-04    0.398E-05
RMM:  18    -0.413198389195E+03    0.29324E-05   -0.39069E-08  1017   0.580E-04    0.262E-05
RMM:  19    -0.413198388735E+03    0.45967E-06   -0.15633E-08   692   0.519E-04
   36 T=    67. E= -.41286690E+03 F= -.41319839E+03 E0= -.41317712E+03  EK= 0.33149E+00 SP= 0.00E+00 SK= 0.00E+00
       N       E                     dE             d eps       ncg     rms          rms(c)
RMM:   1    -0.413205064085E+03   -0.66749E-02   -0.10265E+01  4303   0.956E-01    0.922E-01
RMM:   2    -0.413205494749E+03   -0.43066E-03   -0.14296E-01  4248   0.139E-01    0.680E-01
RMM:   3    -0.413201411510E+03    0.40832E-02   -0.13983E-02  4553   0.622E-02    0.113E-01
RMM:   4    -0.413217336045E+03   -0.15925E-01   -0.16131E-02  5154   0.107E-01    0.530E-01
RMM:   5    -0.413201317148E+03    0.16019E-01   -0.81595E-03  4814   0.880E-02    0.447E-02
RMM:   6    -0.413201322587E+03   -0.54388E-05   -0.14122E-03  5828   0.363E-02    0.291E-02
RMM:   7    -0.413201333599E+03   -0.11013E-04   -0.31253E-04  5457   0.173E-02    0.187E-02
RMM:   8    -0.413201316529E+03    0.17070E-04   -0.46230E-05  4917   0.781E-03    0.845E-03
RMM:   9    -0.413201315467E+03    0.10619E-05   -0.87536E-06  3461   0.363E-03    0.579E-03
RMM:  10    -0.413201312697E+03    0.27704E-05   -0.15956E-06  2533   0.218E-03    0.319E-03
RMM:  11    -0.413201310047E+03    0.26499E-05   -0.10345E-06  2500   0.166E-03    0.168E-03
RMM:  12    -0.413201306352E+03    0.36942E-05   -0.89546E-07  2466   0.151E-03    0.883E-04
RMM:  13    -0.413201304536E+03    0.18168E-05   -0.35501E-07  2115   0.102E-03    0.441E-04
RMM:  14    -0.413201303481E+03    0.10551E-05   -0.17203E-07  1505   0.749E-04    0.302E-04
RMM:  15    -0.413201300794E+03    0.26863E-05   -0.11577E-07  1277   0.692E-04    0.116E-04
RMM:  16    -0.413201298737E+03    0.20575E-05   -0.75489E-08  1103   0.641E-04    0.877E-05
RMM:  17    -0.413201296826E+03    0.19105E-05   -0.53527E-08   997   0.610E-04    0.827E-05
RMM:  18    -0.413201294091E+03    0.27357E-05   -0.51433E-08  1081   0.606E-04    0.464E-05
RMM:  19    -0.413201292900E+03    0.11907E-05   -0.27365E-08   839   0.554E-04    0.293E-05
RMM:  20    -0.413201292482E+03    0.41834E-06   -0.15547E-08   717   0.535E-04
   37 T=    68. E= -.41286715E+03 F= -.41320129E+03 E0= -.41318007E+03  EK= 0.33414E+00 SP= 0.00E+00 SK= 0.00E+00
       N       E                     dE             d eps       ncg     rms          rms(c)
RMM:   1    -0.413215393709E+03   -0.14101E-01   -0.10449E+01  4305   0.104E+00    0.940E-01
RMM:   2    -0.413208098822E+03    0.72949E-02   -0.15486E-01  4247   0.136E-01    0.687E-01
RMM:   3    -0.413204271737E+03    0.38271E-02   -0.13572E-02  4827   0.598E-02    0.160E-01
RMM:   4    -0.413245399927E+03   -0.41128E-01   -0.42852E-02  5141   0.173E-01    0.842E-01
RMM:   5    -0.413203662038E+03    0.41738E-01   -0.20862E-02  4789   0.141E-01    0.543E-02
RMM:   6    -0.413203758416E+03   -0.96377E-04   -0.34564E-03  5841   0.555E-02    0.346E-02
RMM:   7    -0.413203767431E+03   -0.90149E-05   -0.40899E-04  5658   0.190E-02    0.178E-02
RMM:   8    -0.413203764834E+03    0.25965E-05   -0.62009E-05  4948   0.787E-03    0.103E-02
RMM:   9    -0.413203759889E+03    0.49446E-05   -0.20192E-05  4463   0.471E-03    0.765E-03
RMM:  10    -0.413203756502E+03    0.33879E-05   -0.44368E-06  2907   0.294E-03    0.454E-03
RMM:  11    -0.413203753533E+03    0.29683E-05   -0.17129E-06  2514   0.213E-03    0.278E-03
RMM:  12    -0.413203746436E+03    0.70972E-05   -0.19944E-06  2539   0.231E-03    0.114E-03
RMM:  13    -0.413203743081E+03    0.33553E-05   -0.70500E-07  2429   0.150E-03    0.908E-04
RMM:  14    -0.413203743168E+03   -0.87181E-07   -0.29371E-07  2107   0.961E-04
   38 T=    69. E= -.41286705E+03 F= -.41320374E+03 E0= -.41318256E+03  EK= 0.33669E+00 SP= 0.00E+00 SK= 0.00E+00
       N       E                     dE             d eps       ncg     rms          rms(c)
RMM:   1    -0.413205874271E+03   -0.21312E-02   -0.10354E+01  4306   0.979E-01    0.953E-01
RMM:   2    -0.413210368039E+03   -0.44938E-02   -0.13629E-01  4251   0.124E-01    0.680E-01
RMM:   3    -0.413206914494E+03    0.34535E-02   -0.14606E-02  4928   0.576E-02    0.154E-01
RMM:   4    -0.413247262383E+03   -0.40348E-01   -0.42860E-02  5135   0.173E-01    0.835E-01
RMM:   5    -0.413206212761E+03    0.41050E-01   -0.20362E-02  4792   0.140E-01    0.553E-02
RMM:   6    -0.413206308144E+03   -0.95382E-04   -0.34045E-03  5825   0.550E-02    0.347E-02
RMM:   7    -0.413206317007E+03   -0.88637E-05   -0.41449E-04  5667   0.190E-02    0.178E-02
RMM:   8    -0.413206307836E+03    0.91717E-05   -0.49683E-05  4758   0.712E-03    0.901E-03
RMM:   9    -0.413206301155E+03    0.66803E-05   -0.96175E-06  3244   0.338E-03    0.553E-03
RMM:  10    -0.413206296913E+03    0.42427E-05   -0.18882E-06  2546   0.208E-03    0.376E-03
RMM:  11    -0.413206290081E+03    0.68312E-05   -0.17135E-06  2521   0.211E-03    0.211E-03
RMM:  12    -0.413206280948E+03    0.91332E-05   -0.12990E-06  2491   0.191E-03    0.103E-03
RMM:  13    -0.413206277838E+03    0.31097E-05   -0.46987E-07  2332   0.123E-03    0.704E-04
RMM:  14    -0.413206277136E+03    0.70282E-06   -0.21658E-07  1846   0.832E-04
   39 T=    69. E= -.41286698E+03 F= -.41320628E+03 E0= -.41318513E+03  EK= 0.33930E+00 SP= 0.00E+00 SK= 0.00E+00
       N       E                     dE             d eps       ncg     rms          rms(c)
RMM:   1    -0.413227283674E+03   -0.21006E-01   -0.10566E+01  4310   0.114E+00    0.931E-01
RMM:   2    -0.413213867445E+03    0.13416E-01   -0.16383E-01  4260   0.135E-01    0.687E-01
RMM:   3    -0.413210480212E+03    0.33872E-02   -0.13342E-02  5008   0.614E-02    0.202E-01
RMM:   4    -0.413263631799E+03   -0.53152E-01   -0.58914E-02  5132   0.202E-01    0.956E-01
RMM:   5    -0.413209144417E+03    0.54487E-01   -0.26678E-02  4781   0.161E-01    0.608E-02
RMM:   6    -0.413209300149E+03   -0.15573E-03   -0.43869E-03  5816   0.627E-02    0.366E-02
RMM:   7    -0.413209316016E+03   -0.15867E-04   -0.54809E-04  5782   0.210E-02    0.216E-02
RMM:   8    -0.413209317479E+03   -0.14625E-05   -0.12310E-04  5252   0.109E-02    0.139E-02
RMM:   9    -0.413209304460E+03    0.13019E-04   -0.28607E-05  4732   0.614E-03    0.717E-03
RMM:  10    -0.413209300306E+03    0.41533E-05   -0.50611E-06  2929   0.303E-03    0.444E-03
RMM:  11    -0.413209297008E+03    0.32987E-05   -0.15756E-06  2507   0.208E-03    0.266E-03
RMM:  12    -0.413209290060E+03    0.69472E-05   -0.15538E-06  2520   0.205E-03    0.990E-04
RMM:  13    -0.413209285809E+03    0.42517E-05   -0.68453E-07  2425   0.143E-03    0.709E-04
RMM:  14    -0.413209285275E+03    0.53351E-06   -0.29623E-07  2076   0.958E-04
   40 T=    70. E= -.41286719E+03 F= -.41320929E+03 E0= -.41318818E+03  EK= 0.34209E+00 SP= 0.00E+00 SK= 0.00E+00
       N       E                     dE             d eps       ncg     rms          rms(c)
RMM:   1    -0.413222899184E+03   -0.13613E-01   -0.10636E+01  4309   0.113E+00    0.946E-01
RMM:   2    -0.413216126150E+03    0.67730E-02   -0.15251E-01  4261   0.138E-01    0.696E-01
RMM:   3    -0.413213134302E+03    0.29918E-02   -0.15239E-02  5018   0.666E-02    0.208E-01
RMM:   4    -0.413264725349E+03   -0.51591E-01   -0.59625E-02  5123   0.204E-01    0.945E-01
RMM:   5    -0.413211318696E+03    0.53407E-01   -0.25539E-02  4778   0.158E-01    0.607E-02
RMM:   6    -0.413211466759E+03   -0.14806E-03   -0.42902E-03  5815   0.617E-02    0.361E-02
RMM:   7    -0.413211482089E+03   -0.15330E-04   -0.53069E-04  5785   0.208E-02    0.214E-02
RMM:   8    -0.413211483743E+03   -0.16536E-05   -0.12054E-04  5250   0.108E-02    0.139E-02
RMM:   9    -0.413211470613E+03    0.13129E-04   -0.27194E-05  4716   0.600E-03    0.706E-03
RMM:  10    -0.413211466713E+03    0.39001E-05   -0.49468E-06  2924   0.301E-03    0.438E-03
RMM:  11    -0.413211463604E+03    0.31093E-05   -0.15306E-06  2504   0.206E-03    0.260E-03
RMM:  12    -0.413211457181E+03    0.64226E-05   -0.14406E-06  2510   0.198E-03    0.972E-04
RMM:  13    -0.413211453198E+03    0.39837E-05   -0.64156E-07  2419   0.139E-03    0.646E-04
RMM:  14    -0.413211452461E+03    0.73690E-06   -0.28474E-07  2056   0.935E-04
   41 T=    70. E= -.41286686E+03 F= -.41321145E+03 E0= -.41319038E+03  EK= 0.34460E+00 SP= 0.00E+00 SK= 0.00E+00
       N       E                     dE             d eps       ncg     rms          rms(c)
RMM:   1    -0.413219415629E+03   -0.79624E-02   -0.10607E+01  4310   0.115E+00    0.967E-01
RMM:   2    -0.413218278562E+03    0.11371E-02   -0.14567E-01  4294   0.133E-01    0.690E-01
RMM:   3    -0.413216948183E+03    0.13304E-02   -0.16481E-02  5068   0.733E-02    0.257E-01
RMM:   4    -0.413259246143E+03   -0.42298E-01   -0.55547E-02  5098   0.198E-01    0.873E-01
RMM:   5    -0.413213999293E+03    0.45247E-01   -0.20563E-02  4758   0.145E-01    0.612E-02
RMM:   6    -0.413214106600E+03   -0.10731E-03   -0.35921E-03  5776   0.568E-02    0.363E-02
RMM:   7    -0.413214117161E+03   -0.10561E-04   -0.48817E-04  5741   0.203E-02    0.220E-02
RMM:   8    -0.413214115609E+03    0.15520E-05   -0.13164E-04  5236   0.115E-02    0.137E-02
RMM:   9    -0.413214099882E+03    0.15727E-04   -0.23336E-05  4560   0.592E-03    0.607E-03
RMM:  10    -0.413214093858E+03    0.60242E-05   -0.51438E-06  2982   0.290E-03    0.387E-03
RMM:  11    -0.413214088528E+03    0.53300E-05   -0.12581E-06  2493   0.194E-03    0.218E-03
RMM:  12    -0.413214079110E+03    0.94177E-05   -0.98347E-07  2472   0.170E-03    0.815E-04
RMM:  13    -0.413214073401E+03    0.57091E-05   -0.46076E-07  2340   0.119E-03    0.466E-04
RMM:  14    -0.413214071974E+03    0.14272E-05   -0.22990E-07  1892   0.847E-04    0.312E-04
RMM:  15    -0.413214068242E+03    0.37322E-05   -0.12806E-07  1419   0.702E-04    0.152E-04
RMM:  16    -0.413214062271E+03    0.59706E-05   -0.97576E-08  1308   0.679E-04    0.169E-04
RMM:  17    -0.413214059364E+03    0.29075E-05   -0.57730E-08  1050   0.614E-04    0.105E-04
RMM:  18    -0.413214055074E+03    0.42897E-05   -0.58898E-08  1250   0.630E-04    0.815E-05
RMM:  19    -0.413214052412E+03    0.26624E-05   -0.39578E-08  1079   0.588E-04    0.440E-05
RMM:  20    -0.413214051745E+03    0.66624E-06   -0.21507E-08   836   0.539E-04
   42 T=    71. E= -.41286696E+03 F= -.41321405E+03 E0= -.41319301E+03  EK= 0.34709E+00 SP= 0.00E+00 SK= 0.00E+00
       N       E                     dE             d eps       ncg     rms          rms(c)
RMM:   1    -0.413252667830E+03   -0.38615E-01   -0.10895E+01  4311   0.137E+00    0.945E-01
RMM:   2    -0.413220560058E+03    0.32108E-01   -0.17138E-01  4308   0.148E-01    0.692E-01
RMM:   3    -0.413220306256E+03    0.25380E-03   -0.15864E-02  5080   0.797E-02    0.313E-01
RMM:   4    -0.413259889930E+03   -0.39584E-01   -0.57616E-02  5098   0.202E-01    0.861E-01
RMM:   5    -0.413216104932E+03    0.43785E-01   -0.19410E-02  4739   0.144E-01    0.630E-02
RMM:   6    -0.413216185511E+03   -0.80578E-04   -0.34270E-03  5749   0.556E-02    0.363E-02
RMM:   7    -0.413216192532E+03   -0.70211E-05   -0.50557E-04  5778   0.204E-02    0.238E-02
RMM:   8    -0.413216189495E+03    0.30363E-05   -0.13170E-04  5205   0.118E-02    0.128E-02
RMM:   9    -0.413216177299E+03    0.12197E-04   -0.21709E-05  4506   0.582E-03    0.514E-03
RMM:  10    -0.413216174042E+03    0.32567E-05   -0.47204E-06  2900   0.273E-03    0.332E-03
RMM:  11    -0.413216170313E+03    0.37292E-05   -0.13074E-06  2499   0.189E-03    0.181E-03
RMM:  12    -0.413216164841E+03    0.54715E-05   -0.81165E-07  2459   0.153E-03    0.653E-04
RMM:  13    -0.413216161529E+03    0.33128E-05   -0.39960E-07  2177   0.108E-03    0.324E-04
RMM:  14    -0.413216159801E+03    0.17276E-05   -0.21193E-07  1723   0.816E-04    0.220E-04
RMM:  15    -0.413216156239E+03    0.35616E-05   -0.13625E-07  1347   0.714E-04    0.111E-04
RMM:  16    -0.413216153611E+03    0.26281E-05   -0.86458E-08  1136   0.658E-04    0.849E-05
RMM:  17    -0.413216151194E+03    0.24175E-05   -0.66902E-08  1132   0.638E-04    0.580E-05
RMM:  18    -0.413216148665E+03    0.25288E-05   -0.54345E-08  1121   0.620E-04    0.368E-05
RMM:  19    -0.413216146773E+03    0.18917E-05   -0.37020E-08   998   0.586E-04    0.247E-05
RMM:  20    -0.413216146191E+03    0.58253E-06   -0.21376E-08   828   0.551E-04
   43 T=    71. E= -.41286696E+03 F= -.41321615E+03 E0= -.41319513E+03  EK= 0.34919E+00 SP= 0.00E+00 SK= 0.00E+00
       N       E                     dE             d eps       ncg     rms          rms(c)
RMM:   1    -0.413227219106E+03   -0.11072E-01   -0.10748E+01  4310   0.130E+00    0.950E-01
RMM:   2    -0.413222137949E+03    0.50812E-02   -0.15657E-01  4304   0.156E-01    0.703E-01
RMM:   3    -0.413222899617E+03   -0.76167E-03   -0.18800E-02  5069   0.907E-02    0.335E-01
RMM:   4    -0.413257006062E+03   -0.34106E-01   -0.55690E-02  5080   0.201E-01    0.817E-01
RMM:   5    -0.413217432496E+03    0.39574E-01   -0.16655E-02  4714   0.135E-01    0.608E-02
RMM:   6    -0.413217483674E+03   -0.51178E-04   -0.30479E-03  5735   0.524E-02    0.351E-02
RMM:   7    -0.413217485575E+03   -0.19002E-05   -0.44400E-04  5728   0.197E-02    0.228E-02
RMM:   8    -0.413217483981E+03    0.15935E-05   -0.11948E-04  5175   0.114E-02    0.119E-02
RMM:   9    -0.413217473638E+03    0.10343E-04   -0.19273E-05  4409   0.557E-03    0.484E-03
RMM:  10    -0.413217471275E+03    0.23632E-05   -0.40251E-06  2815   0.260E-03    0.305E-03
RMM:  11    -0.413217468503E+03    0.27715E-05   -0.12549E-06  2498   0.185E-03    0.164E-03
RMM:  12    -0.413217464304E+03    0.41991E-05   -0.81175E-07  2456   0.150E-03    0.615E-04
RMM:  13    -0.413217461715E+03    0.25891E-05   -0.39804E-07  2116   0.106E-03    0.300E-04
RMM:  14    -0.413217460158E+03    0.15567E-05   -0.21563E-07  1649   0.809E-04    0.200E-04
RMM:  15    -0.413217456721E+03    0.34371E-05   -0.15389E-07  1345   0.727E-04    0.117E-04
RMM:  16    -0.413217454885E+03    0.18362E-05   -0.93089E-08  1119   0.660E-04    0.808E-05
RMM:  17    -0.413217452768E+03    0.21169E-05   -0.73887E-08  1141   0.646E-04    0.532E-05
RMM:  18    -0.413217450532E+03    0.22357E-05   -0.59124E-08  1124   0.626E-04    0.349E-05
RMM:  19    -0.413217448930E+03    0.16021E-05   -0.41673E-08  1028   0.590E-04    0.212E-05
RMM:  20    -0.413217448314E+03    0.61576E-06   -0.22830E-08   794   0.548E-04
   44 T=    71. E= -.41286673E+03 F= -.41321745E+03 E0= -.41319646E+03  EK= 0.35072E+00 SP= 0.00E+00 SK= 0.00E+00
       N       E                     dE             d eps       ncg     rms          rms(c)
RMM:   1    -0.413254242369E+03   -0.36793E-01   -0.11000E+01  4310   0.149E+00    0.974E-01
RMM:   2    -0.413223050878E+03    0.31191E-01   -0.17407E-01  4338   0.167E-01    0.701E-01
RMM:   3    -0.413227576806E+03   -0.45259E-02   -0.20231E-02  5119   0.103E-01    0.426E-01
RMM:   4    -0.413246657277E+03   -0.19080E-01   -0.47929E-02  5058   0.188E-01    0.693E-01
RMM:   5    -0.413219034577E+03    0.27623E-01   -0.10861E-02  4667   0.116E-01    0.601E-02
RMM:   6    -0.413219022520E+03    0.12057E-04   -0.21374E-03  5632   0.447E-02    0.350E-02
RMM:   7    -0.413219015954E+03    0.65660E-05   -0.36369E-04  5642   0.184E-02    0.230E-02
RMM:   8    -0.413219007750E+03    0.82039E-05   -0.11931E-04  5082   0.116E-02    0.110E-02
RMM:   9    -0.413218994617E+03    0.13133E-04   -0.16824E-05  4351   0.561E-03    0.448E-03
RMM:  10    -0.413218990708E+03    0.39090E-05   -0.33094E-06  2759   0.239E-03    0.261E-03
RMM:  11    -0.413218984956E+03    0.57520E-05   -0.12082E-06  2486   0.182E-03    0.141E-03
RMM:  12    -0.413218978792E+03    0.61634E-05   -0.63109E-07  2429   0.137E-03    0.605E-04
RMM:  13    -0.413218975183E+03    0.36094E-05   -0.30198E-07  1938   0.945E-04    0.298E-04
RMM:  14    -0.413218971955E+03    0.32279E-05   -0.17245E-07  1502   0.752E-04    0.173E-04
RMM:  15    -0.413218966809E+03    0.51459E-05   -0.12903E-07  1309   0.705E-04    0.124E-04
RMM:  16    -0.413218964153E+03    0.26563E-05   -0.81228E-08  1139   0.645E-04    0.865E-05
RMM:  17    -0.413218959840E+03    0.43132E-05   -0.78229E-08  1313   0.654E-04    0.603E-05
RMM:  18    -0.413218957824E+03    0.20162E-05   -0.45626E-08  1030   0.581E-04    0.444E-05
RMM:  19    -0.413218956159E+03    0.16647E-05   -0.30527E-08   905   0.555E-04    0.232E-05
RMM:  20    -0.413218955882E+03    0.27676E-06   -0.16310E-08   724   0.525E-04
   45 T=    72. E= -.41286710E+03 F= -.41321896E+03 E0= -.41319799E+03  EK= 0.35186E+00 SP= 0.00E+00 SK= 0.00E+00
       N       E                     dE             d eps       ncg     rms          rms(c)
RMM:   1    -0.413257359001E+03   -0.38403E-01   -0.10940E+01  4310   0.159E+00    0.956E-01
RMM:   2    -0.413223112947E+03    0.34246E-01   -0.17898E-01  4361   0.182E-01    0.696E-01
RMM:   3    -0.413230173285E+03   -0.70603E-02   -0.21628E-02  5116   0.112E-01    0.479E-01
RMM:   4    -0.413241836595E+03   -0.11663E-01   -0.45368E-02  5037   0.185E-01    0.632E-01
RMM:   5    -0.413219152897E+03    0.22684E-01   -0.85127E-03  4615   0.107E-01    0.589E-02
RMM:   6    -0.413219120669E+03    0.32228E-04   -0.17501E-03  5525   0.407E-02    0.337E-02
RMM:   7    -0.413219115603E+03    0.50663E-05   -0.31413E-04  5599   0.173E-02    0.226E-02
RMM:   8    -0.413219104781E+03    0.10822E-04   -0.12348E-04  5075   0.116E-02    0.105E-02
RMM:   9    -0.413219091743E+03    0.13038E-04   -0.16466E-05  4334   0.561E-03    0.431E-03
RMM:  10    -0.413219088403E+03    0.33407E-05   -0.28886E-06  2715   0.228E-03    0.247E-03
RMM:  11    -0.413219082900E+03    0.55029E-05   -0.12283E-06  2484   0.180E-03    0.133E-03
RMM:  12    -0.413219077862E+03    0.50382E-05   -0.60088E-07  2432   0.134E-03    0.647E-04
RMM:  13    -0.413219074520E+03    0.33416E-05   -0.28607E-07  1860   0.916E-04    0.317E-04
RMM:  14    -0.413219071239E+03    0.32805E-05   -0.16261E-07  1398   0.730E-04    0.174E-04
RMM:  15    -0.413219067080E+03    0.41591E-05   -0.12340E-07  1282   0.691E-04    0.121E-04
RMM:  16    -0.413219064492E+03    0.25879E-05   -0.80527E-08  1141   0.640E-04    0.970E-05
RMM:  17    -0.413219060450E+03    0.40429E-05   -0.83588E-08  1360   0.655E-04    0.661E-05
RMM:  18    -0.413219058686E+03    0.17633E-05   -0.41742E-08   950   0.564E-04    0.431E-05
RMM:  19    -0.413219057629E+03    0.10569E-05   -0.28098E-08   845   0.539E-04    0.261E-05
RMM:  20    -0.413219056979E+03    0.65018E-06   -0.18859E-08   754   0.527E-04
   46 T=    72. E= -.41286702E+03 F= -.41321906E+03 E0= -.41319811E+03  EK= 0.35203E+00 SP= 0.00E+00 SK= 0.00E+00
       N       E                     dE             d eps       ncg     rms          rms(c)
RMM:   1    -0.413238746477E+03   -0.19689E-01   -0.10797E+01  4310   0.157E+00    0.945E-01
RMM:   2    -0.413223003504E+03    0.15743E-01   -0.17484E-01  4370   0.190E-01    0.707E-01
RMM:   3    -0.413231549077E+03   -0.85456E-02   -0.23836E-02  5103   0.124E-01    0.507E-01
RMM:   4    -0.413241071911E+03   -0.95228E-02   -0.47454E-02  5029   0.190E-01    0.625E-01
RMM:   5    -0.413218610441E+03    0.22461E-01   -0.80402E-03  4606   0.106E-01    0.586E-02
RMM:   6    -0.413218571877E+03    0.38565E-04   -0.16502E-03  5473   0.397E-02    0.325E-02
RMM:   7    -0.413218567832E+03    0.40447E-05   -0.29302E-04  5625   0.168E-02    0.221E-02
RMM:   8    -0.413218559195E+03    0.86374E-05   -0.12632E-04  5080   0.117E-02    0.102E-02
RMM:   9    -0.413218547523E+03    0.11671E-04   -0.16261E-05  4290   0.559E-03    0.413E-03
RMM:  10    -0.413218545408E+03    0.21156E-05   -0.29010E-06  2722   0.227E-03    0.239E-03
RMM:  11    -0.413218541587E+03    0.38207E-05   -0.13072E-06  2508   0.182E-03    0.130E-03
RMM:  12    -0.413218538290E+03    0.32970E-05   -0.61452E-07  2421   0.134E-03    0.662E-04
RMM:  13    -0.413218535809E+03    0.24815E-05   -0.30492E-07  1832   0.925E-04    0.325E-04
RMM:  14    -0.413218533364E+03    0.24449E-05   -0.18025E-07  1404   0.743E-04    0.177E-04
RMM:  15    -0.413218530382E+03    0.29821E-05   -0.14165E-07  1300   0.702E-04    0.122E-04
RMM:  16    -0.413218528481E+03    0.19003E-05   -0.89184E-08  1145   0.643E-04    0.966E-05
RMM:  17    -0.413218525354E+03    0.31276E-05   -0.94331E-08  1352   0.661E-04    0.622E-05
RMM:  18    -0.413218523954E+03    0.14001E-05   -0.47024E-08   961   0.569E-04    0.412E-05
RMM:  19    -0.413218523237E+03    0.71662E-06   -0.27844E-08   827   0.534E-04
   47 T=    72. E= -.41286713E+03 F= -.41321852E+03 E0= -.41319759E+03  EK= 0.35140E+00 SP= 0.00E+00 SK= 0.00E+00
       N       E                     dE             d eps       ncg     rms          rms(c)
RMM:   1    -0.413245746252E+03   -0.27222E-01   -0.10816E+01  4305   0.171E+00    0.967E-01
RMM:   2    -0.413221408585E+03    0.24338E-01   -0.17767E-01  4417   0.202E-01    0.703E-01
RMM:   3    -0.413236604121E+03   -0.15196E-01   -0.29172E-02  5137   0.142E-01    0.613E-01
RMM:   4    -0.413231404393E+03    0.51997E-02   -0.42989E-02  4986   0.184E-01    0.506E-01
RMM:   5    -0.413217269713E+03    0.14135E-01   -0.49973E-03  4545   0.921E-02    0.577E-02
RMM:   6    -0.413217180113E+03    0.89600E-04   -0.84389E-04  5044   0.313E-02    0.310E-02
RMM:   7    -0.413217167066E+03    0.13047E-04   -0.17392E-04  5638   0.128E-02    0.141E-02
RMM:   8    -0.413217169748E+03   -0.26819E-05   -0.10307E-04  5260   0.103E-02    0.119E-02
RMM:   9    -0.413217153714E+03    0.16034E-04   -0.23491E-05  4596   0.597E-03    0.451E-03
RMM:  10    -0.413217151103E+03    0.26106E-05   -0.33180E-06  2743   0.250E-03    0.239E-03
RMM:  11    -0.413217145173E+03    0.59297E-05   -0.15305E-06  2449   0.202E-03    0.133E-03
RMM:  12    -0.413217140871E+03    0.43019E-05   -0.67063E-07  2379   0.144E-03    0.800E-04
RMM:  13    -0.413217136819E+03    0.40528E-05   -0.30884E-07  1877   0.992E-04    0.438E-04
RMM:  14    -0.413217132566E+03    0.42522E-05   -0.16531E-07  1546   0.752E-04    0.260E-04
RMM:  15    -0.413217128480E+03    0.40863E-05   -0.10573E-07  1128   0.644E-04    0.151E-04
RMM:  16    -0.413217126060E+03    0.24204E-05   -0.72896E-08  1073   0.605E-04    0.123E-04
RMM:  17    -0.413217122758E+03    0.33012E-05   -0.69406E-08  1138   0.611E-04    0.817E-05
RMM:  18    -0.413217120697E+03    0.20612E-05   -0.39258E-08   919   0.559E-04    0.585E-05
RMM:  19    -0.413217119868E+03    0.82907E-06   -0.20050E-08   705   0.513E-04
   48 T=    71. E= -.41286738E+03 F= -.41321712E+03 E0= -.41319619E+03  EK= 0.34974E+00 SP= 0.00E+00 SK= 0.00E+00
       N       E                     dE             d eps       ncg     rms          rms(c)
RMM:   1    -0.413247665737E+03   -0.30545E-01   -0.10698E+01  4303   0.184E+00    0.958E-01
RMM:   2    -0.413217834225E+03    0.29832E-01   -0.17945E-01  4483   0.214E-01    0.694E-01
RMM:   3    -0.413239685928E+03   -0.21852E-01   -0.34362E-02  5150   0.159E-01    0.702E-01
RMM:   4    -0.413223460387E+03    0.16226E-01   -0.41514E-02  4964   0.184E-01    0.428E-01
RMM:   5    -0.413213884416E+03    0.95760E-02   -0.42132E-03  4551   0.877E-02    0.616E-02
RMM:   6    -0.413213734683E+03    0.14973E-03   -0.50361E-04  4745   0.286E-02    0.328E-02
RMM:   7    -0.413213741109E+03   -0.64269E-05   -0.29552E-04  5779   0.176E-02    0.225E-02
RMM:   8    -0.413213710186E+03    0.30923E-04   -0.10691E-04  5071   0.117E-02    0.923E-03
RMM:   9    -0.413213703279E+03    0.69071E-05   -0.15631E-05  4503   0.537E-03    0.473E-03
RMM:  10    -0.413213699135E+03    0.41444E-05   -0.20671E-06  2602   0.232E-03    0.247E-03
RMM:  11    -0.413213692940E+03    0.61950E-05   -0.13563E-06  2489   0.189E-03    0.171E-03
RMM:  12    -0.413213689422E+03    0.35176E-05   -0.43725E-07  2376   0.122E-03    0.882E-04
RMM:  13    -0.413213684447E+03    0.49757E-05   -0.29571E-07  1976   0.916E-04    0.456E-04
RMM:  14    -0.413213679036E+03    0.54105E-05   -0.22732E-07  1766   0.806E-04    0.391E-04
RMM:  15    -0.413213674741E+03    0.42957E-05   -0.12577E-07  1163   0.648E-04    0.155E-04
RMM:  16    -0.413213672341E+03    0.23992E-05   -0.79746E-08  1101   0.611E-04    0.998E-05
RMM:  17    -0.413213668951E+03    0.33899E-05   -0.80120E-08  1214   0.623E-04    0.932E-05
RMM:  18    -0.413213667892E+03    0.10591E-05   -0.40080E-08   928   0.547E-04    0.790E-05
RMM:  19    -0.413213666311E+03    0.15813E-05   -0.38140E-08   967   0.548E-04    0.374E-05
[...]
       N       E                     dE             d eps       ncg     rms          rms(c)
RMM:   1    -0.413677366296E+03   -0.18346E+00   -0.21405E+01  4300   0.837E+00    0.118E+00
RMM:   2    -0.413530632692E+03    0.14673E+00   -0.60016E-01  5407   0.905E-01    0.126E+00
RMM:   3    -0.413513389039E+03    0.17244E-01   -0.12012E-01  5578   0.388E-01    0.110E+00
RMM:   4    -0.413491094806E+03    0.22294E-01   -0.56483E-02  5338   0.279E-01    0.590E-01
RMM:   5    -0.413490156820E+03    0.93799E-03   -0.37024E-02  4875   0.248E-01    0.327E-01
RMM:   6    -0.413489101786E+03    0.10550E-02   -0.23038E-02  5105   0.183E-01    0.194E-01
RMM:   7    -0.413487049968E+03    0.20518E-02   -0.37918E-03  4679   0.891E-02    0.685E-02
RMM:   8    -0.413487070797E+03   -0.20829E-04   -0.16719E-03  5903   0.446E-02    0.507E-02
RMM:   9    -0.413487026608E+03    0.44189E-04   -0.33268E-04  5040   0.225E-02    0.273E-02
RMM:  10    -0.413487017696E+03    0.89119E-05   -0.11140E-04  5678   0.130E-02    0.125E-02
RMM:  11    -0.413487021579E+03   -0.38834E-05   -0.45949E-05  5450   0.800E-03    0.841E-03
RMM:  12    -0.413487023952E+03   -0.23721E-05   -0.67121E-06  3281   0.379E-03    0.347E-03
RMM:  13    -0.413487025962E+03   -0.20103E-05   -0.24256E-06  2705   0.232E-03    0.144E-03
RMM:  14    -0.413487028582E+03   -0.26197E-05   -0.12207E-06  2525   0.179E-03    0.747E-04
RMM:  15    -0.413487030383E+03   -0.18010E-05   -0.66552E-07  2287   0.131E-03    0.416E-04
RMM:  16    -0.413487031735E+03   -0.13528E-05   -0.42552E-07  2002   0.100E-03    0.238E-04
RMM:  17    -0.413487032882E+03   -0.11464E-05   -0.34261E-07  1773   0.884E-04    0.157E-04
RMM:  18    -0.413487033834E+03   -0.95196E-06   -0.30653E-07  1732   0.827E-04
  140 T=   200. E= -.41250592E+03 F= -.41348703E+03 E0= -.41346302E+03  EK= 0.98111E+00 SP= 0.00E+00 SK= 0.00E+00
       N       E                     dE             d eps       ncg     rms          rms(c)
RMM:   1    -0.413554476088E+03   -0.67443E-01   -0.20058E+01  4299   0.839E+00    0.971E-01
RMM:   2    -0.413454124732E+03    0.10035E+00   -0.52206E-01  5394   0.878E-01    0.101E+00
RMM:   3    -0.413462566462E+03   -0.84417E-02   -0.92613E-02  5768   0.334E-01    0.102E+00
RMM:   4    -0.413439089579E+03    0.23477E-01   -0.31000E-02  5218   0.208E-01    0.582E-01
RMM:   5    -0.413438804749E+03    0.28483E-03   -0.22887E-02  4690   0.201E-01    0.318E-01
RMM:   6    -0.413438600482E+03    0.20427E-03   -0.17802E-02  5119   0.161E-01    0.167E-01
RMM:   7    -0.413437125210E+03    0.14753E-02   -0.39358E-03  5129   0.821E-02    0.855E-02
RMM:   8    -0.413436995939E+03    0.12927E-03   -0.10844E-03  5668   0.389E-02    0.515E-02
RMM:   9    -0.413436946103E+03    0.49836E-04   -0.48484E-04  4845   0.263E-02    0.202E-02
RMM:  10    -0.413436951339E+03   -0.52362E-05   -0.11804E-04  5808   0.130E-02    0.145E-02
RMM:  11    -0.413436951428E+03   -0.88563E-07   -0.29818E-05  4584   0.733E-03    0.705E-03
RMM:  12    -0.413436956845E+03   -0.54169E-05   -0.74486E-06  3321   0.378E-03    0.317E-03
RMM:  13    -0.413436960766E+03   -0.39215E-05   -0.21301E-06  2655   0.227E-03    0.173E-03
RMM:  14    -0.413436966247E+03   -0.54811E-05   -0.15313E-06  2602   0.194E-03    0.100E-03
RMM:  15    -0.413436969219E+03   -0.29716E-05   -0.71914E-07  2362   0.128E-03    0.532E-04
RMM:  16    -0.413436972274E+03   -0.30554E-05   -0.60815E-07  2157   0.111E-03    0.286E-04
RMM:  17    -0.413436974924E+03   -0.26500E-05   -0.53423E-07  2012   0.991E-04    0.194E-04
RMM:  18    -0.413436976793E+03   -0.18688E-05   -0.37317E-07  1725   0.837E-04    0.120E-04
RMM:  19    -0.413436978103E+03   -0.13102E-05   -0.24470E-07  1466   0.723E-04    0.681E-05
RMM:  20    -0.413436979084E+03   -0.98114E-06   -0.15214E-07  1265   0.644E-04
  141 T=   189. E= -.41250795E+03 F= -.41343698E+03 E0= -.41341310E+03  EK= 0.92903E+00 SP= 0.00E+00 SK= 0.00E+00
       N       E                     dE             d eps       ncg     rms          rms(c)
RMM:   1    -0.413381525757E+03    0.55452E-01   -0.18477E+01  4299   0.814E+00    0.127E+00
RMM:   2    -0.413305876470E+03    0.75649E-01   -0.47032E-01  5361   0.868E-01    0.115E+00
RMM:   3    -0.413307052542E+03   -0.11761E-02   -0.68188E-02  5526   0.309E-01    0.786E-01
RMM:   4    -0.413458569260E+03   -0.15152E+00   -0.15796E-01  5234   0.366E-01    0.165E+00
RMM:   5    -0.413304854728E+03    0.15371E+00   -0.90392E-02  4938   0.336E-01    0.258E-01
RMM:   6    -0.413302889701E+03    0.19650E-02   -0.15920E-02  5578   0.148E-01    0.899E-02
RMM:   7    -0.413303018429E+03   -0.12873E-03   -0.38808E-03  5948   0.622E-02    0.721E-02
RMM:   8    -0.413302892544E+03    0.12588E-03   -0.90555E-04  5287   0.332E-02    0.416E-02
RMM:   9    -0.413302868866E+03    0.23678E-04   -0.32442E-04  5141   0.224E-02    0.168E-02
RMM:  10    -0.413302877254E+03   -0.83884E-05   -0.10193E-04  5950   0.112E-02    0.116E-02
RMM:  11    -0.413302878618E+03   -0.13636E-05   -0.21699E-05  4680   0.561E-03    0.623E-03
RMM:  12    -0.413302884372E+03   -0.57542E-05   -0.66706E-06  3265   0.369E-03    0.292E-03
RMM:  13    -0.413302889324E+03   -0.49525E-05   -0.18320E-06  2634   0.220E-03    0.167E-03
RMM:  14    -0.413302895796E+03   -0.64715E-05   -0.15631E-06  2611   0.193E-03    0.740E-04
RMM:  15    -0.413302898979E+03   -0.31833E-05   -0.76293E-07  2310   0.123E-03    0.494E-04
RMM:  16    -0.413302902530E+03   -0.35507E-05   -0.76402E-07  2297   0.118E-03    0.283E-04
RMM:  17    -0.413302905274E+03   -0.27439E-05   -0.65282E-07  2066   0.104E-03    0.199E-04
RMM:  18    -0.413302906916E+03   -0.16420E-05   -0.39711E-07  1685   0.844E-04    0.124E-04
RMM:  19    -0.413302907955E+03   -0.10389E-05   -0.24665E-07  1445   0.730E-04    0.832E-05
RMM:  20    -0.413302908727E+03   -0.77270E-06   -0.15923E-07  1303   0.656E-04
  142 T=   160. E= -.41251807E+03 F= -.41330291E+03 E0= -.41327921E+03  EK= 0.78483E+00 SP= 0.00E+00 SK= 0.00E+00
       N       E                     dE             d eps       ncg     rms          rms(c)
RMM:   1    -0.413037130999E+03    0.26578E+00   -0.13549E+01  4295   0.702E+00    0.152E+00
RMM:   2    -0.413015896058E+03    0.21235E-01   -0.37651E-01  5343   0.772E-01    0.140E+00
RMM:   3    -0.413066796518E+03   -0.50900E-01   -0.12326E-01  5617   0.362E-01    0.153E+00
RMM:   4    -0.413009232598E+03    0.57564E-01   -0.77646E-02  5108   0.321E-01    0.652E-01
RMM:   5    -0.413005779183E+03    0.34534E-02   -0.48311E-02  4842   0.289E-01    0.251E-01
RMM:   6    -0.413003430349E+03    0.23488E-02   -0.72128E-03  4939   0.116E-01    0.116E-01
RMM:   7    -0.413002947227E+03    0.48312E-03   -0.16587E-03  5026   0.538E-02    0.671E-02
RMM:   8    -0.413002847598E+03    0.99630E-04   -0.74627E-04  5311   0.346E-02    0.340E-02
RMM:   9    -0.413002841068E+03    0.65301E-05   -0.26530E-04  5603   0.197E-02    0.191E-02
RMM:  10    -0.413002837205E+03    0.38630E-05   -0.56420E-05  5534   0.918E-03    0.900E-03
RMM:  11    -0.413002839593E+03   -0.23882E-05   -0.20588E-05  4656   0.529E-03    0.605E-03
RMM:  12    -0.413002842748E+03   -0.31552E-05   -0.37575E-06  2910   0.312E-03    0.274E-03
RMM:  13    -0.413002846472E+03   -0.37244E-05   -0.16433E-06  2609   0.208E-03    0.141E-03
RMM:  14    -0.413002849794E+03   -0.33214E-05   -0.97768E-07  2534   0.157E-03    0.624E-04
RMM:  15    -0.413002851834E+03   -0.20400E-05   -0.55584E-07  2087   0.108E-03    0.401E-04
RMM:  16    -0.413002854012E+03   -0.21784E-05   -0.56633E-07  2133   0.106E-03    0.212E-04
RMM:  17    -0.413002855241E+03   -0.12292E-05   -0.35367E-07  1684   0.843E-04    0.147E-04
RMM:  18    -0.413002856303E+03   -0.10616E-05   -0.34481E-07  1717   0.827E-04    0.801E-05
RMM:  19    -0.413002856766E+03   -0.46298E-06   -0.17646E-07  1256   0.667E-04
  143 T=   102. E= -.41250043E+03 F= -.41300286E+03 E0= -.41297937E+03  EK= 0.50242E+00 SP= 0.00E+00 SK= 0.00E+00
       N       E                     dE             d eps       ncg     rms          rms(c)
RMM:   1    -0.412856718030E+03    0.14614E+00   -0.58178E+00  4274   0.473E+00    0.618E-01
RMM:   2    -0.412858162586E+03   -0.14446E-02   -0.14213E-01  5334   0.437E-01    0.515E-01
RMM:   3    -0.412877880169E+03   -0.19718E-01   -0.36479E-02  5697   0.194E-01    0.696E-01
RMM:   4    -0.412859156567E+03    0.18724E-01   -0.18528E-02  5060   0.154E-01    0.266E-01
RMM:   5    -0.412858357599E+03    0.79897E-03   -0.10392E-02  5110   0.130E-01    0.113E-01
RMM:   6    -0.412857949486E+03    0.40811E-03   -0.15974E-03  5025   0.542E-02    0.518E-02
RMM:   7    -0.412857905421E+03    0.44065E-04   -0.63554E-04  5403   0.299E-02    0.383E-02
RMM:   8    -0.412857877266E+03    0.28155E-04   -0.24206E-04  5264   0.189E-02    0.227E-02
RMM:   9    -0.412857870317E+03    0.69492E-05   -0.63759E-05  5121   0.105E-02    0.114E-02
RMM:  10    -0.412857868758E+03    0.15593E-05   -0.25323E-05  5205   0.591E-03    0.555E-03
RMM:  11    -0.412857868810E+03   -0.52620E-07   -0.53330E-06  3088   0.300E-03
  144 T=    78. E= -.41247355E+03 F= -.41285787E+03 E0= -.41283449E+03  EK= 0.38432E+00 SP= 0.00E+00 SK= 0.00E+00
       N       E                     dE             d eps       ncg     rms          rms(c)
RMM:   1    -0.413208253154E+03   -0.35038E+00   -0.91945E+00  4285   0.581E+00    0.129E+00
RMM:   2    -0.413222583286E+03   -0.14330E-01   -0.33593E-01  5389   0.724E-01    0.134E+00
RMM:   3    -0.413222867036E+03   -0.28375E-03   -0.11432E-01  5403   0.366E-01    0.128E+00
RMM:   4    -0.413180128821E+03    0.42738E-01   -0.77598E-02  5186   0.325E-01    0.571E-01
RMM:   5    -0.413178481160E+03    0.16477E-02   -0.33746E-02  4924   0.243E-01    0.254E-01
RMM:   6    -0.413175450643E+03    0.30305E-02   -0.12592E-02  4912   0.140E-01    0.118E-01
RMM:   7    -0.413175033874E+03    0.41677E-03   -0.16597E-03  5110   0.581E-02    0.624E-02
RMM:   8    -0.413174987507E+03    0.46367E-04   -0.32320E-04  4732   0.242E-02    0.363E-02
RMM:   9    -0.413174980711E+03    0.67958E-05   -0.17321E-04  4833   0.164E-02    0.163E-02
RMM:  10    -0.413174979093E+03    0.16190E-05   -0.56691E-05  5709   0.858E-03    0.923E-03
RMM:  11    -0.413174979026E+03    0.66459E-07   -0.23393E-05  5173   0.564E-03    0.501E-03
RMM:  12    -0.413174980284E+03   -0.12581E-05   -0.40080E-06  2923   0.305E-03    0.273E-03
RMM:  13    -0.413174981596E+03   -0.13116E-05   -0.17099E-06  2566   0.214E-03    0.152E-03
RMM:  14    -0.413174982995E+03   -0.13993E-05   -0.75696E-07  2445   0.148E-03    0.655E-04
RMM:  15    -0.413174983992E+03   -0.99682E-06   -0.39704E-07  2007   0.102E-03
  145 T=   135. E= -.41251282E+03 F= -.41317498E+03 E0= -.41315143E+03  EK= 0.66217E+00 SP= 0.00E+00 SK= 0.00E+00
       N       E                     dE             d eps       ncg     rms          rms(c)
RMM:   1    -0.413611884116E+03   -0.43690E+00   -0.18922E+01  4294   0.811E+00    0.202E+00
RMM:   2    -0.413559720766E+03    0.52163E-01   -0.74385E-01  5388   0.110E+00    0.204E+00
RMM:   3    -0.413587439764E+03   -0.27719E-01   -0.25955E-01  5420   0.555E-01    0.200E+00
RMM:   4    -0.413483353385E+03    0.10409E+00   -0.17960E-01  5247   0.486E-01    0.948E-01
RMM:   5    -0.413476070574E+03    0.72828E-02   -0.70933E-02  4826   0.359E-01    0.372E-01
RMM:   6    -0.413471912348E+03    0.41582E-02   -0.33103E-02  4997   0.220E-01    0.201E-01
RMM:   7    -0.413469845184E+03    0.20672E-02   -0.46098E-03  4736   0.980E-02    0.851E-02
RMM:   8    -0.413469741016E+03    0.10417E-03   -0.88475E-04  5083   0.390E-02    0.520E-02
RMM:   9    -0.413469702074E+03    0.38943E-04   -0.42769E-04  4787   0.256E-02    0.220E-02
RMM:  10    -0.413469701391E+03    0.68236E-06   -0.13065E-04  5864   0.131E-02    0.132E-02
RMM:  11    -0.413469700475E+03    0.91594E-06   -0.37109E-05  5346   0.733E-03    0.707E-03
RMM:  12    -0.413469703859E+03   -0.33834E-05   -0.10586E-05  3914   0.441E-03    0.459E-03
RMM:  13    -0.413469707238E+03   -0.33789E-05   -0.35278E-06  2858   0.278E-03    0.241E-03
RMM:  14    -0.413469710597E+03   -0.33596E-05   -0.12704E-06  2528   0.188E-03    0.110E-03
RMM:  15    -0.413469713539E+03   -0.29418E-05   -0.73806E-07  2439   0.136E-03    0.576E-04
RMM:  16    -0.413469716846E+03   -0.33068E-05   -0.63062E-07  2201   0.110E-03    0.364E-04
RMM:  17    -0.413469719473E+03   -0.26271E-05   -0.45487E-07  1796   0.920E-04    0.206E-04
RMM:  18    -0.413469722250E+03   -0.27772E-05   -0.52692E-07  2049   0.940E-04    0.196E-04
RMM:  19    -0.413469723870E+03   -0.16202E-05   -0.29350E-07  1392   0.729E-04    0.115E-04
RMM:  20    -0.413469725570E+03   -0.16998E-05   -0.28142E-07  1492   0.743E-04    0.105E-04
RMM:  21    -0.413469726499E+03   -0.92905E-06   -0.14562E-07  1169   0.634E-04
  146 T=   193. E= -.41251961E+03 F= -.41346973E+03 E0= -.41344557E+03  EK= 0.95012E+00 SP= 0.00E+00 SK= 0.00E+00
       N       E                     dE             d eps       ncg     rms          rms(c)
RMM:   1    -0.413715723459E+03   -0.24600E+00   -0.23223E+01  4283   0.892E+00    0.157E+00
RMM:   2    -0.413584116669E+03    0.13161E+00   -0.85093E-01  5394   0.114E+00    0.163E+00
RMM:   3    -0.413622427625E+03   -0.38311E-01   -0.18611E-01  5614   0.476E-01    0.166E+00
RMM:   4    -0.413555201583E+03    0.67226E-01   -0.82660E-02  5246   0.333E-01    0.947E-01
RMM:   5    -0.413550138692E+03    0.50629E-02   -0.51407E-02  4471   0.318E-01    0.347E-01
RMM:   6    -0.413548256542E+03    0.18821E-02   -0.23152E-02  5014   0.188E-01    0.180E-01
RMM:   7    -0.413546559271E+03    0.16973E-02   -0.54862E-03  5164   0.960E-02    0.973E-02
RMM:   8    -0.413546303451E+03    0.25582E-03   -0.88784E-04  4925   0.404E-02    0.606E-02
RMM:   9    -0.413546214252E+03    0.89199E-04   -0.71680E-04  4520   0.339E-02    0.175E-02
RMM:  10    -0.413546226454E+03   -0.12201E-04   -0.19756E-04  5989   0.157E-02    0.164E-02
RMM:  11    -0.413546221492E+03    0.49615E-05   -0.35058E-05  4736   0.758E-03    0.722E-03
RMM:  12    -0.413546225531E+03   -0.40393E-05   -0.13775E-05  4187   0.483E-03    0.426E-03
RMM:  13    -0.413546230907E+03   -0.53755E-05   -0.27508E-06  2781   0.258E-03    0.164E-03
RMM:  14    -0.413546235253E+03   -0.43467E-05   -0.12517E-06  2569   0.166E-03    0.958E-04
RMM:  15    -0.413546239757E+03   -0.45034E-05   -0.93690E-07  2446   0.142E-03    0.573E-04
RMM:  16    -0.413546244293E+03   -0.45361E-05   -0.84993E-07  2288   0.121E-03    0.340E-04
RMM:  17    -0.413546247910E+03   -0.36171E-05   -0.64317E-07  1987   0.102E-03    0.268E-04
RMM:  18    -0.413546252226E+03   -0.43161E-05   -0.85995E-07  2197   0.109E-03    0.198E-04
RMM:  19    -0.413546254124E+03   -0.18973E-05   -0.35997E-07  1387   0.780E-04    0.123E-04
RMM:  20    -0.413546255951E+03   -0.18276E-05   -0.27648E-07  1434   0.750E-04    0.931E-05
RMM:  21    -0.413546257088E+03   -0.11370E-05   -0.16377E-07  1242   0.663E-04    0.646E-05
RMM:  22    -0.413546257561E+03   -0.47309E-06   -0.86596E-08  1041   0.596E-04
  147 T=   210. E= -.41251348E+03 F= -.41354626E+03 E0= -.41352153E+03  EK= 0.10328E+01 SP= 0.00E+00 SK= 0.00E+00
       N       E                     dE             d eps       ncg     rms          rms(c)
RMM:   1    -0.413603353653E+03   -0.57097E-01   -0.22986E+01  4268   0.885E+00    0.161E+00
RMM:   2    -0.413473758110E+03    0.12960E+00   -0.90516E-01  5375   0.109E+00    0.154E+00
RMM:   3    -0.413479146988E+03   -0.53889E-02   -0.11189E-01  5567   0.388E-01    0.115E+00
RMM:   4    -0.413623995939E+03   -0.14485E+00   -0.18816E-01  5234   0.407E-01    0.170E+00
RMM:   5    -0.413473803756E+03    0.15019E+00   -0.12363E-01  4817   0.419E-01    0.367E-01
RMM:   6    -0.413469275282E+03    0.45285E-02   -0.26593E-02  5389   0.201E-01    0.125E-01
RMM:   7    -0.413469243070E+03    0.32211E-04   -0.61150E-03  5829   0.806E-02    0.880E-02
RMM:   8    -0.413469102326E+03    0.14074E-03   -0.14246E-03  5404   0.412E-02    0.569E-02
RMM:   9    -0.413469006904E+03    0.95422E-04   -0.54817E-04  4596   0.313E-02    0.198E-02
RMM:  10    -0.413469016249E+03   -0.93445E-05   -0.17535E-04  5923   0.152E-02    0.156E-02
RMM:  11    -0.413469014481E+03    0.17677E-05   -0.39428E-05  5166   0.732E-03    0.918E-03
RMM:  12    -0.413469016452E+03   -0.19708E-05   -0.13008E-05  4051   0.482E-03    0.477E-03
RMM:  13    -0.413469019394E+03   -0.29426E-05   -0.35822E-06  2894   0.299E-03    0.222E-03
RMM:  14    -0.413469022633E+03   -0.32387E-05   -0.15585E-06  2582   0.193E-03    0.127E-03
RMM:  15    -0.413469025964E+03   -0.33313E-05   -0.85838E-07  2477   0.143E-03    0.787E-04
RMM:  16    -0.413469028532E+03   -0.25673E-05   -0.56896E-07  2068   0.106E-03    0.383E-04
RMM:  17    -0.413469031329E+03   -0.27971E-05   -0.56424E-07  2040   0.101E-03    0.235E-04
RMM:  18    -0.413469034152E+03   -0.28234E-05   -0.57467E-07  1964   0.960E-04    0.196E-04
RMM:  19    -0.413469035881E+03   -0.17290E-05   -0.35476E-07  1501   0.784E-04    0.131E-04
RMM:  20    -0.413469037695E+03   -0.18139E-05   -0.31392E-07  1528   0.763E-04    0.734E-05
RMM:  21    -0.413469038394E+03   -0.69903E-06   -0.14667E-07  1170   0.632E-04
  148 T=   196. E= -.41250801E+03 F= -.41346904E+03 E0= -.41344427E+03  EK= 0.96103E+00 SP= 0.00E+00 SK= 0.00E+00
       N       E                     dE             d eps       ncg     rms          rms(c)
RMM:   1    -0.413418885200E+03    0.50152E-01   -0.19740E+01  4265   0.822E+00    0.153E+00
RMM:   2    -0.413341571427E+03    0.77314E-01   -0.81228E-01  5386   0.960E-01    0.143E+00
RMM:   3    -0.413396643298E+03   -0.55072E-01   -0.14388E-01  5766   0.394E-01    0.149E+00
RMM:   4    -0.413347173308E+03    0.49470E-01   -0.71203E-02  5070   0.301E-01    0.815E-01
RMM:   5    -0.413345168286E+03    0.20050E-02   -0.70173E-02  4921   0.335E-01    0.374E-01
RMM:   6    -0.413338973151E+03    0.61951E-02   -0.12003E-02  4618   0.158E-01    0.116E-01
RMM:   7    -0.413338783024E+03    0.19013E-03   -0.38248E-03  5634   0.733E-02    0.762E-02
RMM:   8    -0.413338687193E+03    0.95831E-04   -0.12358E-03  5338   0.412E-02    0.467E-02
RMM:   9    -0.413338645037E+03    0.42157E-04   -0.31083E-04  4915   0.233E-02    0.218E-02
RMM:  10    -0.413338643358E+03    0.16789E-05   -0.91202E-05  5767   0.110E-02    0.124E-02
RMM:  11    -0.413338641915E+03    0.14430E-05   -0.20709E-05  4585   0.564E-03    0.692E-03
RMM:  12    -0.413338642398E+03   -0.48323E-06   -0.56324E-06  3133   0.334E-03
  149 T=   172. E= -.41249426E+03 F= -.41333864E+03 E0= -.41331442E+03  EK= 0.84438E+00 SP= 0.00E+00 SK= 0.00E+00
       N       E                     dE             d eps       ncg     rms          rms(c)
RMM:   1    -0.413410744547E+03   -0.72103E-01   -0.17710E+01  4265   0.772E+00    0.109E+00
RMM:   2    -0.413336619082E+03    0.74125E-01   -0.67131E-01  5424   0.833E-01    0.904E-01
RMM:   3    -0.413394786811E+03   -0.58168E-01   -0.13370E-01  5723   0.378E-01    0.118E+00
RMM:   4    -0.413339283700E+03    0.55503E-01   -0.58654E-02  5070   0.285E-01    0.458E-01
RMM:   5    -0.413337964737E+03    0.13190E-02   -0.36506E-02  5094   0.239E-01    0.215E-01
RMM:   6    -0.413336594539E+03    0.13702E-02   -0.65191E-03  5079   0.108E-01    0.114E-01
RMM:   7    -0.413336283461E+03    0.31108E-03   -0.19149E-03  5334   0.543E-02    0.671E-02
RMM:   8    -0.413336314438E+03   -0.30977E-04   -0.95689E-04  5531   0.385E-02    0.457E-02
RMM:   9    -0.413336275171E+03    0.39267E-04   -0.22196E-04  5052   0.195E-02    0.272E-02
RMM:  10    -0.413336266993E+03    0.81779E-05   -0.13473E-04  5745   0.135E-02    0.103E-02
RMM:  11    -0.413336268685E+03   -0.16929E-05   -0.31597E-05  5169   0.605E-03    0.767E-03
RMM:  12    -0.413336268380E+03    0.30537E-06   -0.10582E-05  4107   0.446E-03    0.303E-03
RMM:  13    -0.413336269089E+03   -0.70894E-06   -0.18048E-06  2593   0.223E-03
  150 T=   171. E= -.41249656E+03 F= -.41333627E+03 E0= -.41331298E+03  EK= 0.83971E+00 SP= 0.00E+00 SK= 0.00E+00
