       N       E                     dE             d eps       ncg     rms          rms(c)
RMM:   1     0.220103639703E+04    0.22010E+04   -0.52446E+04  2132   0.654E+02
RMM:   2     0.705688302652E+03   -0.14953E+04   -0.16260E+04  2132   0.177E+02
RMM:   3     0.137567234854E+03   -0.56812E+03   -0.65727E+03  2132   0.117E+02
RMM:   4    -0.159368156309E+03   -0.29694E+03   -0.27851E+03  2132   0.936E+01
RMM:   5    -0.287485323767E+03   -0.12812E+03   -0.11438E+03  2132   0.595E+01
RMM:   6    -0.349754999062E+03   -0.62270E+02   -0.55148E+02  2132   0.423E+01
RMM:   7    -0.382685715711E+03   -0.32931E+02   -0.30456E+02  2132   0.293E+01
RMM:   8    -0.404212188528E+03   -0.21526E+02   -0.18433E+02  2132   0.233E+01
RMM:   9    -0.435972073049E+03   -0.31760E+02   -0.30651E+02  6098   0.173E+01
RMM:  10    -0.441266868664E+03   -0.52948E+01   -0.63263E+01  6385   0.540E+00
RMM:  11    -0.442522929310E+03   -0.12561E+01   -0.11232E+01  6218   0.174E+00
RMM:  12    -0.442892135074E+03   -0.36921E+00   -0.27534E+00  6368   0.608E-01    0.134E+02
RMM:  13    -0.425633718895E+03    0.17258E+02   -0.81178E+01  4674   0.119E+01    0.712E+01
RMM:  14    -0.499647659877E+03   -0.74014E+02   -0.54248E+02  5420   0.233E+01    0.307E+01
RMM:  15    -0.415452792429E+03    0.84195E+02   -0.19898E+02  5080   0.163E+01    0.668E+00
RMM:  16    -0.414044127201E+03    0.14087E+01   -0.39316E+01  6090   0.608E+00    0.429E+00
RMM:  17    -0.413217533115E+03    0.82659E+00   -0.24119E+00  5388   0.185E+00    0.245E+00
RMM:  18    -0.413172917759E+03    0.44615E-01   -0.80362E-01  5978   0.924E-01    0.164E+00
RMM:  19    -0.413168284601E+03    0.46332E-02   -0.28808E-01  5712   0.573E-01    0.852E-01
RMM:  20    -0.413183518488E+03   -0.15234E-01   -0.21371E-01  5510   0.495E-01    0.537E-01
RMM:  21    -0.413168214881E+03    0.15304E-01   -0.31305E-02  5033   0.221E-01    0.253E-01
RMM:  22    -0.413166113932E+03    0.21009E-02   -0.15165E-02  6044   0.108E-01    0.139E-01
RMM:  23    -0.413164748930E+03    0.13650E-02   -0.52259E-03  5928   0.656E-02    0.827E-02
RMM:  24    -0.413163305856E+03    0.14431E-02   -0.16184E-03  5425   0.399E-02    0.426E-02
RMM:  25    -0.413162901844E+03    0.40401E-03   -0.86702E-04  5520   0.264E-02    0.329E-02
RMM:  26    -0.413163070893E+03   -0.16905E-03   -0.82783E-04  5870   0.290E-02    0.352E-02
RMM:  27    -0.413163475038E+03   -0.40414E-03   -0.20376E-04  4571   0.199E-02    0.194E-02
RMM:  28    -0.413163936040E+03   -0.46100E-03   -0.20719E-04  5338   0.198E-02    0.875E-03
RMM:  29    -0.413164312975E+03   -0.37693E-03   -0.10866E-04  4400   0.151E-02    0.481E-03
RMM:  30    -0.413164526634E+03   -0.21366E-03   -0.77883E-05  4150   0.985E-03    0.351E-03
RMM:  31    -0.413164643369E+03   -0.11673E-03   -0.52155E-05  3158   0.657E-03    0.300E-03
RMM:  32    -0.413164665579E+03   -0.22211E-04   -0.21523E-05  2965   0.304E-03    0.148E-03
RMM:  33    -0.413164673863E+03   -0.82837E-05   -0.88558E-06  2774   0.215E-03    0.480E-04
RMM:  34    -0.413164675403E+03   -0.15405E-05   -0.47068E-06  2657   0.169E-03    0.799E-04
RMM:  35    -0.413164674264E+03    0.11394E-05   -0.22533E-06  2275   0.116E-03    0.751E-04
RMM:  36    -0.413164673114E+03    0.11498E-05   -0.12185E-06  1510   0.835E-04    0.439E-04
RMM:  37    -0.413164672862E+03    0.25221E-06   -0.32074E-06  1747   0.809E-04
    1 T=    61. E= -.41286687E+03 F= -.41316467E+03 E0= -.41314217E+03  EK= 0.29780E+00 SP= 0.00E+00 SK= 0.00E+00
       N       E                     dE             d eps       ncg     rms          rms(c)
RMM:   1    -0.413165495478E+03   -0.82236E-03   -0.84180E+00  3973   0.595E-01    0.888E-01
RMM:   2    -0.413169301284E+03   -0.38058E-02   -0.10390E-01  4017   0.881E-02    0.654E-01
RMM:   3    -0.413165034015E+03    0.42673E-02   -0.21705E-02  4877   0.566E-02    0.123E-01
RMM:   4    -0.413191709387E+03   -0.26675E-01   -0.29486E-02  5179   0.143E-01    0.685E-01
RMM:   5    -0.413164165894E+03    0.27543E-01   -0.13183E-02  4835   0.115E-01    0.493E-02
RMM:   6    -0.413164360307E+03   -0.19441E-03   -0.24344E-03  5757   0.480E-02    0.348E-02
RMM:   7    -0.413164359356E+03    0.95052E-06   -0.44899E-04  5644   0.196E-02    0.220E-02
RMM:   8    -0.413164355508E+03    0.38483E-05   -0.58466E-05  5208   0.851E-03    0.984E-03
RMM:   9    -0.413164357377E+03   -0.18694E-05   -0.12209E-05  3723   0.374E-03    0.720E-03
RMM:  10    -0.413164362421E+03   -0.50434E-05   -0.23498E-06  2606   0.230E-03    0.429E-03
RMM:  11    -0.413164366311E+03   -0.38905E-05   -0.13016E-06  2530   0.171E-03    0.243E-03
RMM:  12    -0.413164372942E+03   -0.66304E-05   -0.17896E-06  2574   0.191E-03    0.106E-03
RMM:  13    -0.413164376185E+03   -0.32437E-05   -0.75115E-07  2417   0.133E-03    0.842E-04
RMM:  14    -0.413164375973E+03    0.21191E-06   -0.34297E-07  1940   0.876E-04
    2 T=    61. E= -.41286664E+03 F= -.41316438E+03 E0= -.41314188E+03  EK= 0.29774E+00 SP= 0.00E+00 SK= 0.00E+00
       N       E                     dE             d eps       ncg     rms          rms(c)
RMM:   1    -0.413166476164E+03   -0.21000E-02   -0.84031E+00  4189   0.600E-01    0.905E-01
RMM:   2    -0.413169484577E+03   -0.30084E-02   -0.10317E-01  4111   0.883E-02    0.651E-01
RMM:   3    -0.413165512187E+03    0.39724E-02   -0.20193E-02  4893   0.513E-02    0.112E-01
RMM:   4    -0.413191717685E+03   -0.26205E-01   -0.27990E-02  5160   0.140E-01    0.679E-01
RMM:   5    -0.413164800650E+03    0.26917E-01   -0.12761E-02  4822   0.113E-01    0.495E-02
RMM:   6    -0.413164981351E+03   -0.18070E-03   -0.24143E-03  5763   0.473E-02    0.355E-02
RMM:   7    -0.413164968932E+03    0.12419E-04   -0.43557E-04  5596   0.199E-02    0.222E-02
RMM:   8    -0.413164958254E+03    0.10678E-04   -0.58673E-05  5094   0.874E-03    0.104E-02
RMM:   9    -0.413164956356E+03    0.18976E-05   -0.11911E-05  3730   0.383E-03    0.768E-03
RMM:  10    -0.413164956418E+03   -0.61656E-07   -0.21897E-06  2590   0.238E-03
    3 T=    61. E= -.41286703E+03 F= -.41316496E+03 E0= -.41314246E+03  EK= 0.29793E+00 SP= 0.00E+00 SK= 0.00E+00
       N       E                     dE             d eps       ncg     rms          rms(c)
RMM:   1    -0.413165903868E+03   -0.94751E-03   -0.83380E+00  4220   0.601E-01    0.891E-01
RMM:   2    -0.413168928960E+03   -0.30251E-02   -0.10268E-01  4250   0.852E-02    0.645E-01
RMM:   3    -0.413171949259E+03   -0.30203E-02   -0.24928E-02  5171   0.904E-02    0.362E-01
RMM:   4    -0.413185336970E+03   -0.13388E-01   -0.37111E-02  5094   0.166E-01    0.593E-01
RMM:   5    -0.413164738067E+03    0.20599E-01   -0.74445E-03  4670   0.973E-02    0.585E-02
RMM:   6    -0.413164728055E+03    0.10012E-04   -0.15168E-03  5396   0.398E-02    0.322E-02
RMM:   7    -0.413164740337E+03   -0.12282E-04   -0.31963E-04  5928   0.166E-02    0.190E-02
RMM:   8    -0.413164735736E+03    0.46004E-05   -0.55910E-05  5133   0.873E-03    0.765E-03
RMM:   9    -0.413164734090E+03    0.16465E-05   -0.68059E-06  3244   0.342E-03    0.390E-03
RMM:  10    -0.413164735125E+03   -0.10351E-05   -0.15362E-06  2533   0.210E-03    0.243E-03
RMM:  11    -0.413164736543E+03   -0.14182E-05   -0.12169E-06  2526   0.175E-03    0.136E-03
RMM:  12    -0.413164737277E+03   -0.73368E-06   -0.72022E-07  2471   0.136E-03
    4 T=    61. E= -.41286687E+03 F= -.41316474E+03 E0= -.41314225E+03  EK= 0.29787E+00 SP= 0.00E+00 SK= 0.00E+00
       N       E                     dE             d eps       ncg     rms          rms(c)
RMM:   1    -0.413165866034E+03   -0.11295E-02   -0.84050E+00  4235   0.603E-01    0.886E-01
RMM:   2    -0.413169388292E+03   -0.35223E-02   -0.10393E-01  4064   0.833E-02    0.653E-01
RMM:   3    -0.413165803872E+03    0.35844E-02   -0.21872E-02  4990   0.540E-02    0.141E-01
RMM:   4    -0.413196699940E+03   -0.30896E-01   -0.34424E-02  5136   0.155E-01    0.738E-01
RMM:   5    -0.413164664302E+03    0.32036E-01   -0.14897E-02  4808   0.123E-01    0.511E-02
RMM:   6    -0.413164872673E+03   -0.20837E-03   -0.27076E-03  5733   0.507E-02    0.349E-02
RMM:   7    -0.413164875407E+03   -0.27342E-05   -0.46316E-04  5701   0.203E-02    0.223E-02
RMM:   8    -0.413164869772E+03    0.56355E-05   -0.64864E-05  5172   0.896E-03    0.102E-02
RMM:   9    -0.413164870199E+03   -0.42751E-06   -0.12522E-05  3836   0.399E-03    0.733E-03
RMM:  10    -0.413164874394E+03   -0.41943E-05   -0.21504E-06  2588   0.234E-03    0.442E-03
RMM:  11    -0.413164877806E+03   -0.34122E-05   -0.11937E-06  2525   0.175E-03    0.246E-03
RMM:  12    -0.413164883379E+03   -0.55734E-05   -0.19183E-06  2601   0.200E-03    0.111E-03
RMM:  13    -0.413164885553E+03   -0.21736E-05   -0.66080E-07  2424   0.135E-03    0.830E-04
RMM:  14    -0.413164885420E+03    0.13327E-06   -0.25574E-07  1945   0.873E-04
    5 T=    61. E= -.41286689E+03 F= -.41316489E+03 E0= -.41314241E+03  EK= 0.29800E+00 SP= 0.00E+00 SK= 0.00E+00
       N       E                     dE             d eps       ncg     rms          rms(c)
RMM:   1    -0.413166713854E+03   -0.18283E-02   -0.84063E+00  4245   0.607E-01    0.902E-01
RMM:   2    -0.413169639943E+03   -0.29261E-02   -0.10345E-01  4062   0.830E-02    0.652E-01
RMM:   3    -0.413165906895E+03    0.37330E-02   -0.20432E-02  4920   0.486E-02    0.111E-01
RMM:   4    -0.413191378721E+03   -0.25472E-01   -0.27135E-02  5137   0.138E-01    0.670E-01
RMM:   5    -0.413165194170E+03    0.26185E-01   -0.12395E-02  4807   0.111E-01    0.491E-02
RMM:   6    -0.413165381394E+03   -0.18722E-03   -0.23691E-03  5753   0.464E-02    0.349E-02
RMM:   7    -0.413165372279E+03    0.91154E-05   -0.42200E-04  5597   0.197E-02    0.220E-02
RMM:   8    -0.413165361499E+03    0.10780E-04   -0.56195E-05  5019   0.857E-03    0.103E-02
RMM:   9    -0.413165359905E+03    0.15942E-05   -0.11184E-05  3681   0.378E-03    0.766E-03
RMM:  10    -0.413165360262E+03   -0.35706E-06   -0.20559E-06  2562   0.235E-03
    6 T=    61. E= -.41286705E+03 F= -.41316536E+03 E0= -.41314290E+03  EK= 0.29831E+00 SP= 0.00E+00 SK= 0.00E+00
       N       E                     dE             d eps       ncg     rms          rms(c)
RMM:   1    -0.413166476660E+03   -0.11168E-02   -0.83603E+00  4258   0.616E-01    0.897E-01
RMM:   2    -0.413169411631E+03   -0.29350E-02   -0.10298E-01  4285   0.833E-02    0.646E-01
RMM:   3    -0.413171857845E+03   -0.24462E-02   -0.24510E-02  5149   0.877E-02    0.351E-01
RMM:   4    -0.413186425976E+03   -0.14568E-01   -0.37374E-02  5087   0.166E-01    0.604E-01
RMM:   5    -0.413165086331E+03    0.21340E-01   -0.78204E-03  4673   0.987E-02    0.587E-02
RMM:   6    -0.413165085760E+03    0.57048E-06   -0.16153E-03  5408   0.405E-02    0.327E-02
RMM:   7    -0.413165101854E+03   -0.16094E-04   -0.32677E-04  5920   0.168E-02    0.193E-02
RMM:   8    -0.413165096086E+03    0.57689E-05   -0.55991E-05  5113   0.875E-03    0.774E-03
RMM:   9    -0.413165093166E+03    0.29199E-05   -0.66308E-06  3205   0.339E-03    0.401E-03
RMM:  10    -0.413165093111E+03    0.54686E-07   -0.16078E-06  2536   0.211E-03
    7 T=    61. E= -.41286667E+03 F= -.41316509E+03 E0= -.41314265E+03  EK= 0.29842E+00 SP= 0.00E+00 SK= 0.00E+00
       N       E                     dE             d eps       ncg     rms          rms(c)
RMM:   1    -0.413166667720E+03   -0.15746E-02   -0.83940E+00  4267   0.616E-01    0.884E-01
RMM:   2    -0.413170496547E+03   -0.38288E-02   -0.10356E-01  4137   0.850E-02    0.651E-01
RMM:   3    -0.413166759936E+03    0.37366E-02   -0.21648E-02  4973   0.571E-02    0.147E-01
RMM:   4    -0.413198979555E+03   -0.32220E-01   -0.36323E-02  5130   0.159E-01    0.754E-01
RMM:   5    -0.413165512306E+03    0.33467E-01   -0.15589E-02  4798   0.125E-01    0.521E-02
RMM:   6    -0.413165705544E+03   -0.19324E-03   -0.27782E-03  5735   0.518E-02    0.353E-02
RMM:   7    -0.413165705092E+03    0.45200E-06   -0.47546E-04  5728   0.201E-02    0.224E-02
RMM:   8    -0.413165701096E+03    0.39955E-05   -0.65161E-05  5210   0.892E-03    0.101E-02
RMM:   9    -0.413165700846E+03    0.25010E-06   -0.12558E-05  3855   0.397E-03    0.712E-03
RMM:  10    -0.413165703736E+03   -0.28892E-05   -0.21242E-06  2582   0.230E-03    0.429E-03
RMM:  11    -0.413165705890E+03   -0.21548E-05   -0.11000E-06  2521   0.168E-03    0.245E-03
RMM:  12    -0.413165709485E+03   -0.35951E-05   -0.18432E-06  2589   0.197E-03    0.110E-03
RMM:  13    -0.413165710929E+03   -0.14437E-05   -0.72899E-07  2432   0.137E-03    0.916E-04
RMM:  14    -0.413165710657E+03    0.27249E-06   -0.25700E-07  1937   0.880E-04
    8 T=    61. E= -.41286693E+03 F= -.41316571E+03 E0= -.41314328E+03  EK= 0.29878E+00 SP= 0.00E+00 SK= 0.00E+00
       N       E                     dE             d eps       ncg     rms          rms(c)
RMM:   1    -0.413167408522E+03   -0.16976E-02   -0.84275E+00  4281   0.629E-01    0.899E-01
RMM:   2    -0.413170596363E+03   -0.31878E-02   -0.10345E-01  4169   0.863E-02    0.654E-01
RMM:   3    -0.413166497349E+03    0.40990E-02   -0.20938E-02  4872   0.537E-02    0.116E-01
RMM:   4    -0.413193090635E+03   -0.26593E-01   -0.28412E-02  5129   0.141E-01    0.684E-01
RMM:   5    -0.413165714133E+03    0.27377E-01   -0.12972E-02  4803   0.113E-01    0.490E-02
RMM:   6    -0.413165894658E+03   -0.18052E-03   -0.24157E-03  5768   0.471E-02    0.343E-02
RMM:   7    -0.413165889188E+03    0.54698E-05   -0.41467E-04  5618   0.195E-02    0.218E-02
RMM:   8    -0.413165879531E+03    0.96571E-05   -0.59436E-05  5028   0.870E-03    0.104E-02
RMM:   9    -0.413165877710E+03    0.18203E-05   -0.11669E-05  3768   0.387E-03    0.766E-03
RMM:  10    -0.413165878166E+03   -0.45589E-06   -0.20462E-06  2566   0.234E-03
    9 T=    61. E= -.41286687E+03 F= -.41316588E+03 E0= -.41314347E+03  EK= 0.29901E+00 SP= 0.00E+00 SK= 0.00E+00
       N       E                     dE             d eps       ncg     rms          rms(c)
RMM:   1    -0.413167362212E+03   -0.14845E-02   -0.83940E+00  4290   0.626E-01    0.903E-01
RMM:   2    -0.413170420088E+03   -0.30579E-02   -0.10316E-01  4298   0.888E-02    0.648E-01
RMM:   3    -0.413173104818E+03   -0.26847E-02   -0.24875E-02  5136   0.915E-02    0.361E-01
RMM:   4    -0.413186409184E+03   -0.13304E-01   -0.36881E-02  5073   0.165E-01    0.591E-01
RMM:   5    -0.413165932693E+03    0.20476E-01   -0.73694E-03  4658   0.964E-02    0.583E-02
RMM:   6    -0.413165935762E+03   -0.30688E-05   -0.15531E-03  5395   0.395E-02    0.330E-02
RMM:   7    -0.413165945140E+03   -0.93774E-05   -0.31627E-04  5890   0.167E-02    0.191E-02
RMM:   8    -0.413165937465E+03    0.76744E-05   -0.54534E-05  5082   0.878E-03    0.765E-03
RMM:   9    -0.413165933382E+03    0.40837E-05   -0.68159E-06  3200   0.340E-03    0.396E-03
RMM:  10    -0.413165932132E+03    0.12496E-05   -0.15684E-06  2532   0.209E-03    0.245E-03
RMM:  11    -0.413165930198E+03    0.19343E-05   -0.11349E-06  2510   0.171E-03    0.133E-03
RMM:  12    -0.413165928300E+03    0.18977E-05   -0.71760E-07  2457   0.135E-03    0.565E-04
RMM:  13    -0.413165927092E+03    0.12076E-05   -0.37249E-07  2089   0.992E-04    0.332E-04
RMM:  14    -0.413165925851E+03    0.12416E-05   -0.22580E-07  1599   0.790E-04    0.218E-04
RMM:  15    -0.413165923650E+03    0.22010E-05   -0.25223E-07  1563   0.769E-04    0.188E-04
RMM:  16    -0.413165921666E+03    0.19839E-05   -0.18261E-07  1336   0.691E-04    0.147E-04
RMM:  17    -0.413165919867E+03    0.17983E-05   -0.14286E-07  1268   0.655E-04    0.762E-05
RMM:  18    -0.413165918688E+03    0.11794E-05   -0.85414E-08  1071   0.591E-04    0.477E-05
RMM:  19    -0.413165917985E+03    0.70340E-06   -0.45704E-08   847   0.546E-04
   10 T=    61. E= -.41286672E+03 F= -.41316592E+03 E0= -.41314353E+03  EK= 0.29920E+00 SP= 0.00E+00 SK= 0.00E+00
       N       E                     dE             d eps       ncg     rms          rms(c)
RMM:   1    -0.413167650376E+03   -0.17317E-02   -0.83841E+00  4292   0.629E-01    0.884E-01
RMM:   2    -0.413171207733E+03   -0.35574E-02   -0.10358E-01  4216   0.866E-02    0.649E-01
RMM:   3    -0.413167710189E+03    0.34975E-02   -0.21213E-02  4947   0.567E-02    0.143E-01
RMM:   4    -0.413199724781E+03   -0.32015E-01   -0.35853E-02  5123   0.158E-01    0.751E-01
RMM:   5    -0.413166525962E+03    0.33199E-01   -0.15607E-02  4788   0.124E-01    0.519E-02
RMM:   6    -0.413166734242E+03   -0.20828E-03   -0.27690E-03  5727   0.512E-02    0.357E-02
RMM:   7    -0.413166729219E+03    0.50238E-05   -0.46792E-04  5621   0.202E-02    0.224E-02
RMM:   8    -0.413166720305E+03    0.89140E-05   -0.65340E-05  5188   0.914E-03    0.101E-02
RMM:   9    -0.413166718655E+03    0.16491E-05   -0.13133E-05  3891   0.408E-03    0.717E-03
RMM:  10    -0.413166720342E+03   -0.16869E-05   -0.21237E-06  2575   0.234E-03    0.434E-03
RMM:  11    -0.413166721630E+03   -0.12874E-05   -0.10728E-06  2502   0.167E-03    0.248E-03
RMM:  12    -0.413166723759E+03   -0.21296E-05   -0.16201E-06  2551   0.193E-03    0.109E-03
RMM:  13    -0.413166724493E+03   -0.73394E-06   -0.64355E-07  2390   0.134E-03
   11 T=    61. E= -.41286707E+03 F= -.41316672E+03 E0= -.41314436E+03  EK= 0.29965E+00 SP= 0.00E+00 SK= 0.00E+00
       N       E                     dE             d eps       ncg     rms          rms(c)
RMM:   1    -0.413167831784E+03   -0.11080E-02   -0.84495E+00  4292   0.633E-01    0.895E-01
RMM:   2    -0.413171151196E+03   -0.33194E-02   -0.10422E-01  4220   0.861E-02    0.656E-01
RMM:   3    -0.413167345499E+03    0.38057E-02   -0.21357E-02  4858   0.540E-02    0.122E-01
RMM:   4    -0.413194876164E+03   -0.27531E-01   -0.29729E-02  5120   0.144E-01    0.696E-01
RMM:   5    -0.413166465732E+03    0.28410E-01   -0.13407E-02  4792   0.115E-01    0.493E-02
RMM:   6    -0.413166668288E+03   -0.20256E-03   -0.25340E-03  5771   0.478E-02    0.338E-02
RMM:   7    -0.413166668531E+03   -0.24270E-06   -0.41836E-04  5645   0.195E-02    0.218E-02
RMM:   8    -0.413166658194E+03    0.10336E-04   -0.62965E-05  5005   0.883E-03    0.106E-02
RMM:   9    -0.413166656062E+03    0.21319E-05   -0.12620E-05  3865   0.401E-03    0.783E-03
RMM:  10    -0.413166656762E+03   -0.70016E-06   -0.20745E-06  2562   0.236E-03
   12 T=    61. E= -.41286671E+03 F= -.41316666E+03 E0= -.41314433E+03  EK= 0.29994E+00 SP= 0.00E+00 SK= 0.00E+00
       N       E                     dE             d eps       ncg     rms          rms(c)
RMM:   1    -0.413168783084E+03   -0.21270E-02   -0.84339E+00  4307   0.640E-01    0.908E-01
RMM:   2    -0.413171338381E+03   -0.25553E-02   -0.10383E-01  4308   0.845E-02    0.651E-01
RMM:   3    -0.413175100345E+03   -0.37620E-02   -0.25444E-02  5141   0.919E-02    0.378E-01
RMM:   4    -0.413186715974E+03   -0.11616E-01   -0.36916E-02  5066   0.165E-01    0.576E-01
RMM:   5    -0.413167273715E+03    0.19442E-01   -0.68756E-03  4636   0.941E-02    0.580E-02
RMM:   6    -0.413167261567E+03    0.12148E-04   -0.14668E-03  5367   0.383E-02    0.330E-02
RMM:   7    -0.413167268299E+03   -0.67327E-05   -0.30028E-04  5856   0.164E-02    0.189E-02
RMM:   8    -0.413167261154E+03    0.71448E-05   -0.53298E-05  5079   0.864E-03    0.752E-03
RMM:   9    -0.413167256352E+03    0.48028E-05   -0.63134E-06  3153   0.333E-03    0.387E-03
RMM:  10    -0.413167254444E+03    0.19073E-05   -0.14755E-06  2512   0.206E-03    0.239E-03
RMM:  11    -0.413167251471E+03    0.29733E-05   -0.11193E-06  2500   0.168E-03    0.131E-03
RMM:  12    -0.413167248862E+03    0.26089E-05   -0.65802E-07  2447   0.132E-03    0.569E-04
RMM:  13    -0.413167247060E+03    0.18020E-05   -0.34623E-07  2053   0.972E-04    0.333E-04
RMM:  14    -0.413167245324E+03    0.17360E-05   -0.20487E-07  1539   0.773E-04    0.217E-04
RMM:  15    -0.413167242206E+03    0.31182E-05   -0.23288E-07  1609   0.770E-04    0.204E-04
RMM:  16    -0.413167239572E+03    0.26337E-05   -0.16179E-07  1282   0.672E-04    0.141E-04
RMM:  17    -0.413167237381E+03    0.21909E-05   -0.12060E-07  1235   0.642E-04    0.736E-05
RMM:  18    -0.413167236055E+03    0.13260E-05   -0.68450E-08   992   0.579E-04    0.534E-05
RMM:  19    -0.413167235155E+03    0.90076E-06   -0.40406E-08   841   0.547E-04
   13 T=    61. E= -.41286673E+03 F= -.41316724E+03 E0= -.41314493E+03  EK= 0.30051E+00 SP= 0.00E+00 SK= 0.00E+00
       N       E                     dE             d eps       ncg     rms          rms(c)
RMM:   1    -0.413169034096E+03   -0.17980E-02   -0.83966E+00  4293   0.645E-01    0.887E-01
RMM:   2    -0.413172269304E+03   -0.32352E-02   -0.10370E-01  4230   0.832E-02    0.648E-01
RMM:   3    -0.413168902296E+03    0.33670E-02   -0.20834E-02  4986   0.533E-02    0.143E-01
RMM:   4    -0.413201509167E+03   -0.32607E-01   -0.36729E-02  5125   0.160E-01    0.757E-01
RMM:   5    -0.413167713213E+03    0.33796E-01   -0.15895E-02  4787   0.125E-01    0.522E-02
RMM:   6    -0.413167913766E+03   -0.20055E-03   -0.27671E-03  5733   0.517E-02    0.360E-02
RMM:   7    -0.413167905062E+03    0.87042E-05   -0.47400E-04  5618   0.203E-02    0.226E-02
RMM:   8    -0.413167897867E+03    0.71950E-05   -0.67055E-05  5203   0.918E-03    0.103E-02
RMM:   9    -0.413167895195E+03    0.26722E-05   -0.13016E-05  3900   0.407E-03    0.723E-03
RMM:  10    -0.413167895235E+03   -0.39723E-07   -0.21335E-06  2574   0.231E-03
   14 T=    61. E= -.41286683E+03 F= -.41316790E+03 E0= -.41314563E+03  EK= 0.30106E+00 SP= 0.00E+00 SK= 0.00E+00
       N       E                     dE             d eps       ncg     rms          rms(c)
RMM:   1    -0.413169027646E+03   -0.11325E-02   -0.84858E+00  4301   0.648E-01    0.893E-01
RMM:   2    -0.413172741257E+03   -0.37136E-02   -0.10474E-01  4309   0.857E-02    0.658E-01
RMM:   3    -0.413175759776E+03   -0.30185E-02   -0.26901E-02  5128   0.936E-02    0.377E-01
RMM:   4    -0.413189561535E+03   -0.13802E-01   -0.39481E-02  5065   0.171E-01    0.608E-01
RMM:   5    -0.413167903487E+03    0.21658E-01   -0.78850E-03  4645   0.997E-02    0.573E-02
RMM:   6    -0.413167914845E+03   -0.11358E-04   -0.16090E-03  5394   0.397E-02    0.316E-02
RMM:   7    -0.413167926438E+03   -0.11592E-04   -0.31575E-04  5906   0.164E-02    0.188E-02
RMM:   8    -0.413167924704E+03    0.17338E-05   -0.56115E-05  5111   0.868E-03    0.755E-03
RMM:   9    -0.413167923199E+03    0.15051E-05   -0.65583E-06  3178   0.337E-03    0.388E-03
RMM:  10    -0.413167924370E+03   -0.11710E-05   -0.14898E-06  2513   0.204E-03    0.241E-03
RMM:  11    -0.413167925733E+03   -0.13630E-05   -0.11378E-06  2499   0.168E-03    0.131E-03
RMM:  12    -0.413167926213E+03   -0.48054E-06   -0.66440E-07  2443   0.132E-03
   15 T=    61. E= -.41286653E+03 F= -.41316793E+03 E0= -.41314569E+03  EK= 0.30140E+00 SP= 0.00E+00 SK= 0.00E+00
       N       E                     dE             d eps       ncg     rms          rms(c)
RMM:   1    -0.413171038291E+03   -0.31126E-02   -0.84833E+00  4295   0.672E-01    0.911E-01
RMM:   2    -0.413173557163E+03   -0.25189E-02   -0.10453E-01  4250   0.892E-02    0.653E-01
RMM:   3    -0.413169983748E+03    0.35734E-02   -0.20429E-02  4957   0.569E-02    0.144E-01
RMM:   4    -0.413203616480E+03   -0.33633E-01   -0.37736E-02  5121   0.162E-01    0.768E-01
RMM:   5    -0.413168796099E+03    0.34820E-01   -0.16322E-02  4781   0.127E-01    0.532E-02
RMM:   6    -0.413169007185E+03   -0.21109E-03   -0.29537E-03  5751   0.528E-02    0.373E-02
RMM:   7    -0.413168993684E+03    0.13501E-04   -0.49635E-04  5666   0.209E-02    0.236E-02
RMM:   8    -0.413168979848E+03    0.13836E-04   -0.71328E-05  5194   0.944E-03    0.111E-02
RMM:   9    -0.413168973669E+03    0.61796E-05   -0.13868E-05  3977   0.421E-03    0.777E-03
RMM:  10    -0.413168969768E+03    0.39013E-05   -0.23161E-06  2593   0.242E-03    0.461E-03
RMM:  11    -0.413168967300E+03    0.24678E-05   -0.11655E-06  2508   0.174E-03    0.270E-03
RMM:  12    -0.413168962168E+03    0.51314E-05   -0.19024E-06  2582   0.208E-03    0.121E-03
RMM:  13    -0.413168958863E+03    0.33058E-05   -0.73570E-07  2436   0.144E-03    0.982E-04
RMM:  14    -0.413168958942E+03   -0.79686E-07   -0.27897E-07  2028   0.930E-04
   16 T=    61. E= -.41286689E+03 F= -.41316896E+03 E0= -.41314676E+03  EK= 0.30207E+00 SP= 0.00E+00 SK= 0.00E+00
       N       E                     dE             d eps       ncg     rms          rms(c)
RMM:   1    -0.413170692579E+03   -0.17337E-02   -0.84249E+00  4295   0.663E-01    0.892E-01
RMM:   2    -0.413174040321E+03   -0.33477E-02   -0.10454E-01  4250   0.917E-02    0.648E-01
RMM:   3    -0.413170186140E+03    0.38542E-02   -0.20266E-02  4891   0.550E-02    0.126E-01
RMM:   4    -0.413200295744E+03   -0.30110E-01   -0.32807E-02  5119   0.151E-01    0.727E-01
RMM:   5    -0.413169254199E+03    0.31042E-01   -0.14676E-02  4787   0.120E-01    0.509E-02
RMM:   6    -0.413169455399E+03   -0.20120E-03   -0.27400E-03  5784   0.496E-02    0.355E-02
RMM:   7    -0.413169447333E+03    0.80658E-05   -0.44328E-04  5610   0.201E-02    0.225E-02
RMM:   8    -0.413169433613E+03    0.13721E-04   -0.67098E-05  5069   0.920E-03    0.109E-02
RMM:   9    -0.413169428685E+03    0.49275E-05   -0.13287E-05  3939   0.414E-03    0.793E-03
RMM:  10    -0.413169426102E+03    0.25833E-05   -0.21966E-06  2578   0.238E-03    0.472E-03
RMM:  11    -0.413169424374E+03    0.17277E-05   -0.12373E-06  2508   0.180E-03    0.269E-03
RMM:  12    -0.413169421085E+03    0.32889E-05   -0.18448E-06  2569   0.207E-03    0.117E-03
RMM:  13    -0.413169419071E+03    0.20147E-05   -0.62706E-07  2391   0.138E-03    0.882E-04
RMM:  14    -0.413169419061E+03    0.93423E-08   -0.26391E-07  1990   0.898E-04
   17 T=    62. E= -.41286687E+03 F= -.41316942E+03 E0= -.41314726E+03  EK= 0.30255E+00 SP= 0.00E+00 SK= 0.00E+00
       N       E                     dE             d eps       ncg     rms          rms(c)
RMM:   1    -0.413171065781E+03   -0.16467E-02   -0.85176E+00  4296   0.665E-01    0.892E-01
RMM:   2    -0.413174594660E+03   -0.35289E-02   -0.10580E-01  4253   0.903E-02    0.658E-01
RMM:   3    -0.413170793829E+03    0.38008E-02   -0.21845E-02  4911   0.554E-02    0.132E-01
RMM:   4    -0.413200702280E+03   -0.29908E-01   -0.32894E-02  5118   0.152E-01    0.726E-01
RMM:   5    -0.413169752186E+03    0.30950E-01   -0.14672E-02  4785   0.120E-01    0.504E-02
RMM:   6    -0.413169955684E+03   -0.20350E-03   -0.27011E-03  5770   0.495E-02    0.344E-02
RMM:   7    -0.413169954626E+03    0.10581E-05   -0.43436E-04  5619   0.199E-02    0.221E-02
RMM:   8    -0.413169945412E+03    0.92136E-05   -0.66738E-05  5084   0.911E-03    0.106E-02
RMM:   9    -0.413169942712E+03    0.27005E-05   -0.12979E-05  3923   0.416E-03    0.768E-03
RMM:  10    -0.413169943000E+03   -0.28858E-06   -0.21123E-06  2573   0.238E-03
   18 T=    62. E= -.41286678E+03 F= -.41316994E+03 E0= -.41314782E+03  EK= 0.30316E+00 SP= 0.00E+00 SK= 0.00E+00
       N       E                     dE             d eps       ncg     rms          rms(c)
RMM:   1    -0.413173201121E+03   -0.32584E-02   -0.85313E+00  4301   0.678E-01    0.910E-01
RMM:   2    -0.413175415486E+03   -0.22144E-02   -0.10700E-01  4318   0.901E-02    0.657E-01
RMM:   3    -0.413178981696E+03   -0.35662E-02   -0.25614E-02  5124   0.932E-02    0.377E-01
RMM:   4    -0.413191785182E+03   -0.12803E-01   -0.38421E-02  5058   0.168E-01    0.593E-01
RMM:   5    -0.413171138536E+03    0.20647E-01   -0.73425E-03  4642   0.966E-02    0.578E-02
RMM:   6    -0.413171138320E+03    0.21618E-06   -0.15590E-03  5398   0.389E-02    0.329E-02
RMM:   7    -0.413171143656E+03   -0.53360E-05   -0.30939E-04  5846   0.167E-02    0.191E-02
RMM:   8    -0.413171135448E+03    0.82079E-05   -0.54887E-05  5084   0.873E-03    0.761E-03
RMM:   9    -0.413171129814E+03    0.56339E-05   -0.67169E-06  3187   0.342E-03    0.393E-03
RMM:  10    -0.413171127463E+03    0.23510E-05   -0.14900E-06  2516   0.207E-03    0.245E-03
RMM:  11    -0.413171123846E+03    0.36169E-05   -0.10723E-06  2494   0.169E-03    0.134E-03
RMM:  12    -0.413171120453E+03    0.33929E-05   -0.65206E-07  2445   0.133E-03    0.552E-04
RMM:  13    -0.413171118262E+03    0.21912E-05   -0.33407E-07  2060   0.971E-04    0.327E-04
RMM:  14    -0.413171116243E+03    0.20189E-05   -0.18789E-07  1531   0.763E-04    0.219E-04
RMM:  15    -0.413171112421E+03    0.38224E-05   -0.19230E-07  1507   0.747E-04    0.185E-04
RMM:  16    -0.413171109383E+03    0.30379E-05   -0.12784E-07  1240   0.659E-04    0.151E-04
RMM:  17    -0.413171106394E+03    0.29886E-05   -0.10991E-07  1224   0.642E-04    0.768E-05
RMM:  18    -0.413171104432E+03    0.19626E-05   -0.64023E-08   987   0.584E-04    0.463E-05
RMM:  19    -0.413171103441E+03    0.99048E-06   -0.36201E-08   835   0.548E-04
   19 T=    62. E= -.41286702E+03 F= -.41317110E+03 E0= -.41314903E+03  EK= 0.30408E+00 SP= 0.00E+00 SK= 0.00E+00
       N       E                     dE             d eps       ncg     rms          rms(c)
RMM:   1    -0.413177149821E+03   -0.60454E-02   -0.85271E+00  4294   0.710E-01    0.900E-01
RMM:   2    -0.413175653140E+03    0.14967E-02   -0.10498E-01  4256   0.854E-02    0.650E-01
RMM:   3    -0.413172566755E+03    0.30864E-02   -0.20409E-02  4991   0.535E-02    0.146E-01
RMM:   4    -0.413206387300E+03   -0.33821E-01   -0.38469E-02  5122   0.163E-01    0.771E-01
RMM:   5    -0.413171336770E+03    0.35051E-01   -0.16553E-02  4783   0.127E-01    0.535E-02
RMM:   6    -0.413171538017E+03   -0.20125E-03   -0.29336E-03  5735   0.525E-02    0.372E-02
RMM:   7    -0.413171524248E+03    0.13770E-04   -0.49198E-04  5622   0.209E-02    0.234E-02
RMM:   8    -0.413171512876E+03    0.11372E-04   -0.71788E-05  5215   0.954E-03    0.108E-02
RMM:   9    -0.413171507100E+03    0.57756E-05   -0.14027E-05  4013   0.426E-03    0.750E-03
RMM:  10    -0.413171503689E+03    0.34108E-05   -0.22961E-06  2596   0.239E-03    0.453E-03
RMM:  11    -0.413171501664E+03    0.20258E-05   -0.10483E-06  2497   0.168E-03    0.271E-03
RMM:  12    -0.413171497381E+03    0.42821E-05   -0.17256E-06  2555   0.202E-03    0.121E-03
RMM:  13    -0.413171494632E+03    0.27498E-05   -0.72219E-07  2412   0.143E-03    0.980E-04
RMM:  14    -0.413171494594E+03    0.37351E-07   -0.28167E-07  2037   0.934E-04
   20 T=    62. E= -.41286669E+03 F= -.41317149E+03 E0= -.41314946E+03  EK= 0.30480E+00 SP= 0.00E+00 SK= 0.00E+00
       N       E                     dE             d eps       ncg     rms          rms(c)
RMM:   1    -0.413173543764E+03   -0.20491E-02   -0.85587E+00  4292   0.671E-01    0.892E-01
RMM:   2    -0.413177245982E+03   -0.37022E-02   -0.10627E-01  4255   0.863E-02    0.658E-01
RMM:   3    -0.413173281220E+03    0.39648E-02   -0.21628E-02  4902   0.524E-02    0.123E-01
RMM:   4    -0.413200944497E+03   -0.27663E-01   -0.29994E-02  5114   0.145E-01    0.698E-01
RMM:   5    -0.413172418452E+03    0.28526E-01   -0.13642E-02  4788   0.115E-01    0.491E-02
RMM:   6    -0.413172587343E+03   -0.16889E-03   -0.24618E-03  5806   0.471E-02    0.329E-02
RMM:   7    -0.413172588528E+03   -0.11857E-05   -0.38290E-04  5605   0.192E-02    0.208E-02
RMM:   8    -0.413172579864E+03    0.86645E-05   -0.66637E-05  5028   0.901E-03    0.106E-02
RMM:   9    -0.413172576373E+03    0.34910E-05   -0.12927E-05  3930   0.414E-03    0.773E-03
RMM:  10    -0.413172576163E+03    0.20969E-06   -0.20072E-06  2561   0.231E-03
   21 T=    62. E= -.41286677E+03 F= -.41317258E+03 E0= -.41315059E+03  EK= 0.30581E+00 SP= 0.00E+00 SK= 0.00E+00
       N       E                     dE             d eps       ncg     rms          rms(c)
RMM:   1    -0.413175193478E+03   -0.26171E-02   -0.85951E+00  4300   0.683E-01    0.910E-01
RMM:   2    -0.413178383889E+03   -0.31904E-02   -0.10626E-01  4329   0.874E-02    0.660E-01
RMM:   3    -0.413180378559E+03   -0.19947E-02   -0.25156E-02  5119   0.881E-02    0.348E-01
RMM:   4    -0.413197414789E+03   -0.17036E-01   -0.40194E-02  5072   0.171E-01    0.635E-01
RMM:   5    -0.413173692766E+03    0.23722E-01   -0.88728E-03  4664   0.104E-01    0.574E-02
RMM:   6    -0.413173727542E+03   -0.34776E-04   -0.18348E-03  5474   0.419E-02    0.331E-02
RMM:   7    -0.413173729227E+03   -0.16854E-05   -0.34238E-04  5847   0.172E-02    0.199E-02
RMM:   8    -0.413173723486E+03    0.57414E-05   -0.58140E-05  5093   0.883E-03    0.803E-03
RMM:   9    -0.413173718257E+03    0.52293E-05   -0.73339E-06  3274   0.348E-03    0.423E-03
RMM:  10    -0.413173715924E+03    0.23324E-05   -0.16885E-06  2535   0.212E-03    0.266E-03
RMM:  11    -0.413173712823E+03    0.31010E-05   -0.10230E-06  2485   0.166E-03    0.137E-03
RMM:  12    -0.413173709224E+03    0.35990E-05   -0.68752E-07  2450   0.135E-03    0.532E-04
RMM:  13    -0.413173707113E+03    0.21111E-05   -0.34204E-07  2109   0.987E-04    0.325E-04
RMM:  14    -0.413173705425E+03    0.16883E-05   -0.18693E-07  1612   0.767E-04    0.223E-04
RMM:  15    -0.413173701918E+03    0.35064E-05   -0.16443E-07  1446   0.727E-04    0.175E-04
RMM:  16    -0.413173698838E+03    0.30798E-05   -0.11544E-07  1223   0.656E-04    0.165E-04
RMM:  17    -0.413173696308E+03    0.25309E-05   -0.82100E-08  1113   0.618E-04    0.819E-05
RMM:  18    -0.413173693681E+03    0.26267E-05   -0.67868E-08  1057   0.602E-04    0.397E-05
RMM:  19    -0.413173692572E+03    0.11090E-05   -0.32243E-08   835   0.557E-04    0.332E-05
RMM:  20    -0.413173692125E+03    0.44722E-06   -0.16130E-08   718   0.539E-04
   22 T=    62. E= -.41286687E+03 F= -.41317369E+03 E0= -.41315175E+03  EK= 0.30682E+00 SP= 0.00E+00 SK= 0.00E+00
       N       E                     dE             d eps       ncg     rms          rms(c)
RMM:   1    -0.413175948010E+03   -0.22554E-02   -0.85740E+00  4293   0.691E-01    0.910E-01
RMM:   2    -0.413178928101E+03   -0.29801E-02   -0.10612E-01  4279   0.899E-02    0.654E-01
RMM:   3    -0.413175290603E+03    0.36375E-02   -0.20202E-02  4935   0.558E-02    0.137E-01
RMM:   4    -0.413208658765E+03   -0.33368E-01   -0.37034E-02  5121   0.160E-01    0.764E-01
RMM:   5    -0.413174217204E+03    0.34442E-01   -0.16400E-02  4787   0.127E-01    0.529E-02
RMM:   6    -0.413174417940E+03   -0.20074E-03   -0.29186E-03  5762   0.524E-02    0.372E-02
RMM:   7    -0.413174405683E+03    0.12257E-04   -0.48626E-04  5617   0.210E-02    0.234E-02
RMM:   8    -0.413174393180E+03    0.12503E-04   -0.73953E-05  5179   0.965E-03    0.112E-02
RMM:   9    -0.413174386373E+03    0.68075E-05   -0.14164E-05  4037   0.431E-03    0.789E-03
RMM:  10    -0.413174381839E+03    0.45337E-05   -0.23138E-06  2595   0.243E-03    0.475E-03
RMM:  11    -0.413174378923E+03    0.29157E-05   -0.11405E-06  2498   0.174E-03    0.281E-03
RMM:  12    -0.413174373056E+03    0.58670E-05   -0.18769E-06  2575   0.210E-03    0.125E-03
RMM:  13    -0.413174369395E+03    0.36609E-05   -0.71417E-07  2411   0.145E-03    0.100E-03
RMM:  14    -0.413174369470E+03   -0.74902E-07   -0.28465E-07  2052   0.935E-04
   23 T=    63. E= -.41286669E+03 F= -.41317437E+03 E0= -.41315247E+03  EK= 0.30768E+00 SP= 0.00E+00 SK= 0.00E+00
       N       E                     dE             d eps       ncg     rms          rms(c)
RMM:   1    -0.413176948845E+03   -0.25794E-02   -0.86061E+00  4294   0.688E-01    0.894E-01
RMM:   2    -0.413180966756E+03   -0.40179E-02   -0.10700E-01  4277   0.902E-02    0.658E-01
RMM:   3    -0.413176497018E+03    0.44697E-02   -0.21203E-02  4812   0.539E-02    0.108E-01
RMM:   4    -0.413199992128E+03   -0.23495E-01   -0.24739E-02  5118   0.132E-01    0.644E-01
RMM:   5    -0.413175854303E+03    0.24138E-01   -0.11725E-02  4796   0.106E-01    0.472E-02
RMM:   6    -0.413175993717E+03   -0.13941E-03   -0.21038E-03  5827   0.431E-02    0.303E-02
RMM:   7    -0.413175991705E+03    0.20118E-05   -0.27518E-04  5647   0.167E-02    0.168E-02
RMM:   8    -0.413175985731E+03    0.59741E-05   -0.56326E-05  4976   0.794E-03    0.104E-02
RMM:   9    -0.413175980905E+03    0.48263E-05   -0.11206E-05  3852   0.391E-03    0.760E-03
RMM:  10    -0.413175979420E+03    0.14848E-05   -0.18812E-06  2553   0.229E-03    0.446E-03
RMM:  11    -0.413175978060E+03    0.13604E-05   -0.14779E-06  2523   0.194E-03    0.234E-03
RMM:  12    -0.413175975872E+03    0.21872E-05   -0.14164E-06  2508   0.187E-03    0.103E-03
RMM:  13    -0.413175974837E+03    0.10354E-05   -0.48514E-07  2301   0.123E-03    0.657E-04
RMM:  14    -0.413175974428E+03    0.40900E-06   -0.22222E-07  1816   0.835E-04
   24 T=    63. E= -.41286711E+03 F= -.41317597E+03 E0= -.41315413E+03  EK= 0.30887E+00 SP= 0.00E+00 SK= 0.00E+00
       N       E                     dE             d eps       ncg     rms          rms(c)
RMM:   1    -0.413178254086E+03   -0.22792E-02   -0.86765E+00  4299   0.694E-01    0.908E-01
RMM:   2    -0.413181835355E+03   -0.35813E-02   -0.10778E-01  4283   0.917E-02    0.664E-01
RMM:   3    -0.413177781082E+03    0.40543E-02   -0.21269E-02  4891   0.579E-02    0.128E-01
RMM:   4    -0.413208553338E+03   -0.30772E-01   -0.33468E-02  5116   0.153E-01    0.734E-01
RMM:   5    -0.413176831169E+03    0.31722E-01   -0.15098E-02  4788   0.121E-01    0.512E-02
RMM:   6    -0.413177023361E+03   -0.19219E-03   -0.27439E-03  5789   0.502E-02    0.354E-02
RMM:   7    -0.413177010450E+03    0.12911E-04   -0.45388E-04  5608   0.203E-02    0.225E-02
RMM:   8    -0.413176996118E+03    0.14332E-04   -0.68948E-05  5070   0.955E-03    0.109E-02
RMM:   9    -0.413176990832E+03    0.52859E-05   -0.13809E-05  3944   0.425E-03    0.780E-03
RMM:  10    -0.413176988057E+03    0.27757E-05   -0.22193E-06  2586   0.240E-03    0.465E-03
RMM:  11    -0.413176986061E+03    0.19953E-05   -0.12390E-06  2506   0.180E-03    0.260E-03
RMM:  12    -0.413176982466E+03    0.35951E-05   -0.17704E-06  2555   0.204E-03    0.115E-03
RMM:  13    -0.413176980125E+03    0.23415E-05   -0.59991E-07  2384   0.136E-03    0.876E-04
RMM:  14    -0.413176980105E+03    0.19940E-07   -0.26058E-07  1965   0.890E-04
   25 T=    63. E= -.41286703E+03 F= -.41317698E+03 E0= -.41315518E+03  EK= 0.30995E+00 SP= 0.00E+00 SK= 0.00E+00
       N       E                     dE             d eps       ncg     rms          rms(c)
RMM:   1    -0.413179983970E+03   -0.30038E-02   -0.86767E+00  4297   0.710E-01    0.918E-01
RMM:   2    -0.413182755735E+03   -0.27718E-02   -0.10800E-01  4273   0.942E-02    0.659E-01
RMM:   3    -0.413178889936E+03    0.38658E-02   -0.20004E-02  4820   0.562E-02    0.115E-01
RMM:   4    -0.413207438086E+03   -0.28548E-01   -0.30310E-02  5117   0.145E-01    0.706E-01
RMM:   5    -0.413178165959E+03    0.29272E-01   -0.14191E-02  4791   0.117E-01    0.504E-02
RMM:   6    -0.413178328143E+03   -0.16218E-03   -0.25459E-03  5810   0.480E-02    0.344E-02
RMM:   7    -0.413178317052E+03    0.11091E-04   -0.38905E-04  5618   0.195E-02    0.210E-02
RMM:   8    -0.413178303062E+03    0.13990E-04   -0.70331E-05  5021   0.922E-03    0.112E-02
RMM:   9    -0.413178295723E+03    0.73399E-05   -0.13562E-05  4055   0.427E-03    0.814E-03
RMM:  10    -0.413178290188E+03    0.55341E-05   -0.21553E-06  2583   0.239E-03    0.482E-03
RMM:  11    -0.413178285680E+03    0.45085E-05   -0.13568E-06  2519   0.187E-03    0.270E-03
RMM:  12    -0.413178277974E+03    0.77062E-05   -0.18059E-06  2563   0.207E-03    0.119E-03
RMM:  13    -0.413178273570E+03    0.44036E-05   -0.58754E-07  2377   0.136E-03    0.831E-04
RMM:  14    -0.413178273689E+03   -0.11854E-06   -0.26109E-07  1948   0.887E-04
   26 T=    63. E= -.41286700E+03 F= -.41317827E+03 E0= -.41315653E+03  EK= 0.31127E+00 SP= 0.00E+00 SK= 0.00E+00
       N       E                     dE             d eps       ncg     rms          rms(c)
RMM:   1    -0.413181383961E+03   -0.31104E-02   -0.86766E+00  4298   0.713E-01    0.899E-01
RMM:   2    -0.413184674511E+03   -0.32906E-02   -0.10851E-01  4281   0.939E-02    0.659E-01
RMM:   3    -0.413180721414E+03    0.39531E-02   -0.20760E-02  4853   0.549E-02    0.111E-01
RMM:   4    -0.413206782243E+03   -0.26061E-01   -0.27564E-02  5126   0.139E-01    0.677E-01
RMM:   5    -0.413180034537E+03    0.26748E-01   -0.13021E-02  4795   0.112E-01    0.487E-02
RMM:   6    -0.413180176848E+03   -0.14231E-03   -0.23215E-03  5822   0.458E-02    0.323E-02
RMM:   7    -0.413180174177E+03    0.26719E-05   -0.34440E-04  5630   0.184E-02    0.194E-02
RMM:   8    -0.413180164792E+03    0.93849E-05   -0.65570E-05  4993   0.877E-03    0.108E-02
RMM:   9    -0.413180159254E+03    0.55382E-05   -0.12697E-05  3993   0.416E-03    0.785E-03
RMM:  10    -0.413180156250E+03    0.30030E-05   -0.19852E-06  2560   0.233E-03    0.463E-03
RMM:  11    -0.413180153745E+03    0.25057E-05   -0.13660E-06  2519   0.187E-03    0.254E-03
RMM:  12    -0.413180149654E+03    0.40909E-05   -0.16246E-06  2538   0.196E-03    0.110E-03
RMM:  13    -0.413180147329E+03    0.23244E-05   -0.52439E-07  2335   0.128E-03    0.710E-04
RMM:  14    -0.413180147093E+03    0.23652E-06   -0.23919E-07  1864   0.856E-04
   27 T=    64. E= -.41286723E+03 F= -.41318015E+03 E0= -.41315845E+03  EK= 0.31291E+00 SP= 0.00E+00 SK= 0.00E+00
       N       E                     dE             d eps       ncg     rms          rms(c)
RMM:   1    -0.413182344007E+03   -0.21967E-02   -0.87877E+00  4299   0.711E-01    0.909E-01
RMM:   2    -0.413185891242E+03   -0.35472E-02   -0.10995E-01  4280   0.956E-02    0.669E-01
RMM:   3    -0.413181731911E+03    0.41593E-02   -0.21656E-02  4807   0.558E-02    0.108E-01
RMM:   4    -0.413205809018E+03   -0.24077E-01   -0.25244E-02  5131   0.133E-01    0.651E-01
RMM:   5    -0.413181085306E+03    0.24724E-01   -0.12081E-02  4799   0.108E-01    0.478E-02
RMM:   6    -0.413181223329E+03   -0.13802E-03   -0.21666E-03  5828   0.441E-02    0.316E-02
RMM:   7    -0.413181220849E+03    0.24795E-05   -0.31972E-04  5628   0.179E-02    0.187E-02
RMM:   8    -0.413181213165E+03    0.76842E-05   -0.61249E-05  4977   0.850E-03    0.106E-02
RMM:   9    -0.413181208343E+03    0.48226E-05   -0.11639E-05  3888   0.403E-03    0.767E-03
RMM:  10    -0.413181206318E+03    0.20241E-05   -0.19315E-06  2557   0.233E-03    0.447E-03
RMM:  11    -0.413181204404E+03    0.19145E-05   -0.14199E-06  2525   0.190E-03    0.236E-03
RMM:  12    -0.413181201385E+03    0.30189E-05   -0.14741E-06  2518   0.189E-03    0.104E-03
RMM:  13    -0.413181199684E+03    0.17009E-05   -0.49681E-07  2315   0.124E-03    0.658E-04
RMM:  14    -0.413181199299E+03    0.38491E-06   -0.22935E-07  1829   0.840E-04
   28 T=    64. E= -.41286683E+03 F= -.41318120E+03 E0= -.41315955E+03  EK= 0.31437E+00 SP= 0.00E+00 SK= 0.00E+00
       N       E                     dE             d eps       ncg     rms          rms(c)
RMM:   1    -0.413186169906E+03   -0.49702E-02   -0.88186E+00  4293   0.753E-01    0.927E-01
RMM:   2    -0.413187822236E+03   -0.16523E-02   -0.11164E-01  4274   0.100E-01    0.666E-01
RMM:   3    -0.413183492535E+03    0.43297E-02   -0.20043E-02  4683   0.519E-02    0.880E-02
RMM:   4    -0.413200202640E+03   -0.16710E-01   -0.17043E-02  5137   0.109E-01    0.544E-01
RMM:   5    -0.413183164059E+03    0.17039E-01   -0.85109E-03  4815   0.894E-02    0.459E-02
RMM:   6    -0.413183247393E+03   -0.83333E-04   -0.15457E-03  5832   0.366E-02    0.288E-02
RMM:   7    -0.413183240500E+03    0.68929E-05   -0.17687E-04  5467   0.144E-02    0.134E-02
RMM:   8    -0.413183233011E+03    0.74890E-05   -0.24107E-05  4354   0.533E-03    0.835E-03
RMM:   9    -0.413183227104E+03    0.59070E-05   -0.43053E-06  2824   0.275E-03    0.459E-03
RMM:  10    -0.413183223872E+03    0.32319E-05   -0.11459E-06  2493   0.176E-03    0.302E-03
RMM:  11    -0.413183216178E+03    0.76936E-05   -0.18263E-06  2559   0.215E-03    0.180E-03
RMM:  12    -0.413183213632E+03    0.25463E-05   -0.70489E-07  2394   0.146E-03    0.946E-04
RMM:  13    -0.413183211421E+03    0.22111E-05   -0.30064E-07  2090   0.971E-04    0.529E-04
RMM:  14    -0.413183209297E+03    0.21242E-05   -0.16124E-07  1576   0.746E-04    0.298E-04
RMM:  15    -0.413183204592E+03    0.47050E-05   -0.17763E-07  1828   0.776E-04    0.331E-04
RMM:  16    -0.413183201771E+03    0.28201E-05   -0.75189E-08  1115   0.623E-04    0.203E-04
RMM:  17    -0.413183197687E+03    0.40845E-05   -0.64986E-08  1032   0.605E-04    0.162E-04
RMM:  18    -0.413183194303E+03    0.33841E-05   -0.54669E-08   992   0.594E-04    0.753E-05
RMM:  19    -0.413183192935E+03    0.13680E-05   -0.29727E-08   892   0.568E-04    0.101E-04
RMM:  20    -0.413183192792E+03    0.14275E-06   -0.11565E-08   681   0.532E-04
   29 T=    64. E= -.41286705E+03 F= -.41318319E+03 E0= -.41316159E+03  EK= 0.31614E+00 SP= 0.00E+00 SK= 0.00E+00
       N       E                     dE             d eps       ncg     rms          rms(c)
RMM:   1    -0.413188734585E+03   -0.55416E-02   -0.88106E+00  4291   0.770E-01    0.907E-01
RMM:   2    -0.413190035027E+03   -0.13004E-02   -0.11648E-01  4271   0.110E-01    0.663E-01
RMM:   3    -0.413185218196E+03    0.48168E-02   -0.19782E-02  4566   0.567E-02    0.798E-02
RMM:   4    -0.413198071373E+03   -0.12853E-01   -0.12967E-02  5136   0.956E-02    0.479E-01
RMM:   5    -0.413184971116E+03    0.13100E-01   -0.65920E-03  4820   0.785E-02    0.439E-02
RMM:   6    -0.413185037980E+03   -0.66864E-04   -0.12352E-03  5831   0.324E-02    0.271E-02
RMM:   7    -0.413185038969E+03   -0.98842E-06   -0.18080E-04  5467   0.144E-02    0.149E-02
RMM:   8    -0.413185027986E+03    0.10983E-04   -0.29162E-05  4649   0.601E-03    0.833E-03
RMM:   9    -0.413185026641E+03    0.13451E-05   -0.61527E-06  3143   0.306E-03    0.633E-03
RMM:  10    -0.413185023579E+03    0.30621E-05   -0.14962E-06  2505   0.212E-03    0.339E-03
RMM:  11    -0.413185020822E+03    0.27566E-05   -0.10857E-06  2497   0.170E-03    0.178E-03
RMM:  12    -0.413185017584E+03    0.32386E-05   -0.81577E-07  2452   0.146E-03    0.979E-04
RMM:  13    -0.413185016129E+03    0.14550E-05   -0.33069E-07  2142   0.100E-03    0.462E-04
RMM:  14    -0.413185015072E+03    0.10570E-05   -0.15883E-07  1503   0.737E-04    0.321E-04
RMM:  15    -0.413185012441E+03    0.26311E-05   -0.12884E-07  1546   0.711E-04    0.161E-04
RMM:  16    -0.413185009837E+03    0.26036E-05   -0.78985E-08  1181   0.635E-04    0.169E-04
RMM:  17    -0.413185008131E+03    0.17061E-05   -0.39873E-08   862   0.570E-04    0.109E-04
RMM:  18    -0.413185004694E+03    0.34366E-05   -0.51858E-08   920   0.589E-04    0.464E-05
RMM:  19    -0.413185003984E+03    0.71040E-06   -0.18064E-08   721   0.550E-04
   30 T=    65. E= -.41286707E+03 F= -.41318500E+03 E0= -.41316346E+03  EK= 0.31793E+00 SP= 0.00E+00 SK= 0.00E+00
       N       E                     dE             d eps       ncg     rms          rms(c)
RMM:   1    -0.413187724438E+03   -0.27197E-02   -0.89167E+00  4293   0.745E-01    0.913E-01
RMM:   2    -0.413192130053E+03   -0.44056E-02   -0.11277E-01  4280   0.112E-01    0.674E-01
RMM:   3    -0.413186900617E+03    0.52294E-02   -0.22019E-02  4520   0.623E-02    0.811E-02
RMM:   4    -0.413197664122E+03   -0.10764E-01   -0.10825E-02  5142   0.884E-02    0.440E-01
RMM:   5    -0.413186625745E+03    0.11038E-01   -0.54991E-03  4817   0.719E-02    0.428E-02
RMM:   6    -0.413186682425E+03   -0.56680E-04   -0.10903E-03  5835   0.304E-02    0.270E-02
RMM:   7    -0.413186687592E+03   -0.51672E-05   -0.22003E-04  5413   0.154E-02    0.174E-02
RMM:   8    -0.413186672595E+03    0.14997E-04   -0.28425E-05  4616   0.644E-03    0.815E-03
RMM:   9    -0.413186671861E+03    0.73408E-06   -0.52975E-06  2983   0.291E-03
   31 T=    65. E= -.41286687E+03 F= -.41318667E+03 E0= -.41316517E+03  EK= 0.31981E+00 SP= 0.00E+00 SK= 0.00E+00
       N       E                     dE             d eps       ncg     rms          rms(c)
RMM:   1    -0.413195333778E+03   -0.86612E-02   -0.89959E+00  4295   0.829E-01    0.933E-01
RMM:   2    -0.413194363146E+03    0.97063E-03   -0.11754E-01  4297   0.119E-01    0.674E-01
RMM:   3    -0.413191990282E+03    0.23729E-02   -0.21922E-02  4975   0.840E-02    0.227E-01
RMM:   4    -0.413228040262E+03   -0.36050E-01   -0.47183E-02  5094   0.183E-01    0.808E-01
RMM:   5    -0.413189107068E+03    0.38933E-01   -0.17258E-02  4761   0.133E-01    0.573E-02
RMM:   6    -0.413189304374E+03   -0.19731E-03   -0.33246E-03  5774   0.553E-02    0.379E-02
RMM:   7    -0.413189303723E+03    0.65028E-06   -0.51073E-04  5653   0.212E-02    0.245E-02
RMM:   8    -0.413189294008E+03    0.97151E-05   -0.95264E-05  5206   0.108E-02    0.123E-02
RMM:   9    -0.413189284003E+03    0.10005E-04   -0.14800E-05  4059   0.474E-03    0.704E-03
RMM:  10    -0.413189278040E+03    0.59632E-05   -0.31445E-06  2709   0.266E-03    0.443E-03
RMM:  11    -0.413189273713E+03    0.43272E-05   -0.11765E-06  2498   0.182E-03    0.254E-03
RMM:  12    -0.413189265275E+03    0.84379E-05   -0.14870E-06  2515   0.196E-03    0.100E-03
RMM:  13    -0.413189260780E+03    0.44944E-05   -0.68724E-07  2402   0.140E-03    0.701E-04
RMM:  14    -0.413189259623E+03    0.11577E-05   -0.31038E-07  2076   0.959E-04    0.489E-04
RMM:  15    -0.413189257844E+03    0.17792E-05   -0.15562E-07  1509   0.733E-04    0.319E-04
RMM:  16    -0.413189251870E+03    0.59735E-05   -0.16615E-07  1779   0.765E-04    0.377E-04
RMM:  17    -0.413189249143E+03    0.27270E-05   -0.76129E-08  1127   0.605E-04    0.318E-04
RMM:  18    -0.413189243592E+03    0.55506E-05   -0.83279E-08  1131   0.613E-04    0.200E-04
RMM:  19    -0.413189242247E+03    0.13453E-05   -0.44433E-08   924   0.559E-04    0.478E-05
RMM:  20    -0.413189240613E+03    0.16345E-05   -0.40449E-08   978   0.576E-04    0.138E-04
RMM:  21    -0.413189240503E+03    0.10918E-06   -0.13494E-08   698   0.528E-04
   32 T=    66. E= -.41286714E+03 F= -.41318924E+03 E0= -.41316779E+03  EK= 0.32210E+00 SP= 0.00E+00 SK= 0.00E+00
       N       E                     dE             d eps       ncg     rms          rms(c)
RMM:   1    -0.413201824925E+03   -0.12584E-01   -0.90313E+00  4298   0.875E-01    0.920E-01
RMM:   2    -0.413195953251E+03    0.58717E-02   -0.12114E-01  4281   0.122E-01    0.669E-01
RMM:   3    -0.413191284439E+03    0.46688E-02   -0.19878E-02  4385   0.659E-02    0.688E-02
RMM:   4    -0.413195858192E+03   -0.45738E-02   -0.47386E-03  5150   0.581E-02    0.289E-01
RMM:   5    -0.413191214508E+03    0.46437E-02   -0.24039E-03  4825   0.477E-02    0.423E-02
RMM:   6    -0.413191257896E+03   -0.43388E-04   -0.73969E-04  5677   0.252E-02    0.308E-02
RMM:   7    -0.413191231083E+03    0.26813E-04   -0.25045E-04  5170   0.163E-02    0.185E-02
RMM:   8    -0.413191219054E+03    0.12028E-04   -0.23070E-05  4427   0.584E-03    0.751E-03
RMM:   9    -0.413191216849E+03    0.22050E-05   -0.29840E-06  2665   0.232E-03    0.491E-03
RMM:  10    -0.413191212637E+03    0.42128E-05   -0.12287E-06  2483   0.182E-03    0.264E-03
RMM:  11    -0.413191208754E+03    0.38827E-05   -0.84065E-07  2438   0.146E-03    0.120E-03
RMM:  12    -0.413191205090E+03    0.36639E-05   -0.46393E-07  2243   0.112E-03    0.530E-04
RMM:  13    -0.413191202551E+03    0.25389E-05   -0.25220E-07  1837   0.852E-04    0.282E-04
RMM:  14    -0.413191199623E+03    0.29283E-05   -0.12748E-07  1279   0.689E-04    0.193E-04
RMM:  15    -0.413191195850E+03    0.37731E-05   -0.84306E-08  1104   0.641E-04    0.917E-05
RMM:  16    -0.413191192992E+03    0.28574E-05   -0.56970E-08   984   0.611E-04    0.700E-05
RMM:  17    -0.413191189861E+03    0.31310E-05   -0.53983E-08  1064   0.606E-04    0.517E-05
RMM:  18    -0.413191187386E+03    0.24751E-05   -0.38035E-08   943   0.572E-04    0.361E-05
RMM:  19    -0.413191186645E+03    0.74080E-06   -0.16440E-08   697   0.531E-04
   33 T=    66. E= -.41286692E+03 F= -.41319119E+03 E0= -.41316979E+03  EK= 0.32426E+00 SP= 0.00E+00 SK= 0.00E+00
       N       E                     dE             d eps       ncg     rms          rms(c)
RMM:   1    -0.413194770540E+03   -0.35832E-02   -0.90675E+00  4302   0.786E-01    0.918E-01
RMM:   2    -0.413198478456E+03   -0.37079E-02   -0.11694E-01  4277   0.123E-01    0.679E-01
RMM:   3    -0.413193702794E+03    0.47757E-02   -0.22058E-02  4396   0.717E-02    0.702E-02
RMM:   4    -0.413199451236E+03   -0.57484E-02   -0.58408E-03  5147   0.651E-02    0.325E-01
RMM:   5    -0.413193544041E+03    0.59072E-02   -0.30133E-03  4824   0.532E-02    0.417E-02
RMM:   6    -0.413193589550E+03   -0.45510E-04   -0.80650E-04  5718   0.260E-02    0.294E-02
RMM:   7    -0.413193576509E+03    0.13041E-04   -0.25254E-04  5229   0.163E-02    0.189E-02
RMM:   8    -0.413193563549E+03    0.12960E-04   -0.22319E-05  4350   0.591E-03    0.776E-03
RMM:   9    -0.413193562399E+03    0.11496E-05   -0.31979E-06  2704   0.239E-03    0.510E-03
RMM:  10    -0.413193560884E+03    0.15158E-05   -0.14698E-06  2496   0.194E-03    0.265E-03
RMM:  11    -0.413193559548E+03    0.13361E-05   -0.91301E-07  2450   0.155E-03    0.128E-03
RMM:  12    -0.413193557870E+03    0.16775E-05   -0.51767E-07  2262   0.118E-03    0.579E-04
RMM:  13    -0.413193556592E+03    0.12777E-05   -0.27134E-07  1896   0.880E-04    0.302E-04
RMM:  14    -0.413193554859E+03    0.17334E-05   -0.14186E-07  1353   0.705E-04    0.209E-04
RMM:  15    -0.413193552320E+03    0.25389E-05   -0.97525E-08  1122   0.652E-04    0.103E-04
RMM:  16    -0.413193550475E+03    0.18452E-05   -0.61875E-08   986   0.614E-04    0.698E-05
RMM:  17    -0.413193547865E+03    0.26103E-05   -0.56089E-08  1016   0.609E-04    0.436E-05
RMM:  18    -0.413193546000E+03    0.18648E-05   -0.38984E-08   919   0.575E-04    0.319E-05
RMM:  19    -0.413193545263E+03    0.73685E-06   -0.14848E-08   675   0.539E-04
   34 T=    66. E= -.41286693E+03 F= -.41319355E+03 E0= -.41317219E+03  EK= 0.32661E+00 SP= 0.00E+00 SK= 0.00E+00
       N       E                     dE             d eps       ncg     rms          rms(c)
RMM:   1    -0.413201530883E+03   -0.79849E-02   -0.91644E+00  4302   0.851E-01    0.938E-01
RMM:   2    -0.413200846993E+03    0.68389E-03   -0.12436E-01  4270   0.130E-01    0.682E-01
RMM:   3    -0.413196313323E+03    0.45337E-02   -0.20311E-02  4275   0.740E-02    0.631E-02
RMM:   4    -0.413196564105E+03   -0.25078E-03   -0.58223E-04  5152   0.184E-02    0.768E-02
RMM:   5    -0.413196335084E+03    0.22902E-03   -0.24591E-04  4868   0.153E-02    0.466E-02
RMM:   6    -0.413196357459E+03   -0.22374E-04   -0.47622E-04  5293   0.209E-02    0.327E-02
RMM:   7    -0.413196304492E+03    0.52966E-04   -0.19097E-04  4794   0.151E-02    0.176E-02
RMM:   8    -0.413196300313E+03    0.41790E-05   -0.32793E-05  4677   0.563E-03    0.601E-03
RMM:   9    -0.413196299284E+03    0.10294E-05   -0.38755E-06  2494   0.215E-03    0.219E-03
RMM:  10    -0.413196293579E+03    0.57052E-05   -0.10068E-06  2387   0.157E-03    0.983E-04
RMM:  11    -0.413196290320E+03    0.32583E-05   -0.27270E-07  1907   0.895E-04    0.638E-04
RMM:  12    -0.413196286709E+03    0.36112E-05   -0.15340E-07  1386   0.724E-04    0.477E-04
RMM:  13    -0.413196282964E+03    0.37446E-05   -0.14030E-07  1437   0.702E-04    0.270E-04
RMM:  14    -0.413196277674E+03    0.52902E-05   -0.12495E-07  1232   0.686E-04    0.209E-04
RMM:  15    -0.413196275182E+03    0.24919E-05   -0.42188E-08   736   0.580E-04    0.164E-04
RMM:  16    -0.413196271050E+03    0.41325E-05   -0.44416E-08   882   0.599E-04    0.864E-05
RMM:  17    -0.413196269334E+03    0.17159E-05   -0.23586E-08   720   0.550E-04    0.618E-05
RMM:  18    -0.413196268369E+03    0.96505E-06   -0.12250E-08   595   0.529E-04
   35 T=    67. E= -.41286714E+03 F= -.41319627E+03 E0= -.41317496E+03  EK= 0.32913E+00 SP= 0.00E+00 SK= 0.00E+00
       N       E                     dE             d eps       ncg     rms          rms(c)
RMM:   1    -0.413206142351E+03   -0.98730E-02   -0.91945E+00  4300   0.902E-01    0.936E-01
RMM:   2    -0.413202792930E+03    0.33494E-02   -0.12493E-01  4263   0.134E-01    0.677E-01
RMM:   3    -0.413198408018E+03    0.43849E-02   -0.19898E-02  4327   0.726E-02    0.687E-02
RMM:   4    -0.413199854130E+03   -0.14461E-02   -0.17489E-03  5190   0.354E-02    0.166E-01
RMM:   5    -0.413198413928E+03    0.14402E-02   -0.83827E-04  4830   0.285E-02    0.431E-02
RMM:   6    -0.413198451835E+03   -0.37907E-04   -0.53955E-04  5449   0.229E-02    0.336E-02
RMM:   7    -0.413198407498E+03    0.44337E-04   -0.23303E-04  4923   0.164E-02    0.189E-02
RMM:   8    -0.413198399891E+03    0.76075E-05   -0.32611E-05  4843   0.599E-03    0.719E-03
RMM:   9    -0.413198398139E+03    0.17522E-05   -0.41614E-06  2604   0.232E-03    0.327E-03
RMM:  10    -0.413198392964E+03    0.51747E-05   -0.98227E-07  2439   0.166E-03    0.185E-03
RMM:  11    -0.413198388255E+03    0.47092E-05   -0.52387E-07  2272   0.113E-03    0.710E-04
RMM:  12    -0.413198383576E+03    0.46791E-05   -0.27343E-07  1746   0.876E-04    0.264E-04
RMM:  13    -0.413198379193E+03    0.43825E-05   -0.15616E-07  1378   0.738E-04    0.237E-04
RMM:  14    -0.413198375735E+03    0.34581E-05   -0.80180E-08   939   0.640E-04    0.160E-04
RMM:  15    -0.413198369669E+03    0.60657E-05   -0.88211E-08  1131   0.657E-04    0.850E-05
RMM:  16    -0.413198365455E+03    0.42142E-05   -0.61208E-08  1052   0.615E-04    0.957E-05
RMM:  17    -0.413198363402E+03    0.20527E-05   -0.27648E-08   726   0.547E-04    0.490E-05
RMM:  18    -0.413198362039E+03    0.13630E-05   -0.16816E-08   611   0.532E-04    0.378E-05
RMM:  19    -0.413198361524E+03    0.51508E-06   -0.12101E-08   560   0.521E-04
   36 T=    67. E= -.41286691E+03 F= -.41319836E+03 E0= -.41317710E+03  EK= 0.33145E+00 SP= 0.00E+00 SK= 0.00E+00
       N       E                     dE             d eps       ncg     rms          rms(c)
RMM:   1    -0.413203646084E+03   -0.52840E-02   -0.92341E+00  4307   0.867E-01    0.925E-01
RMM:   2    -0.413206350010E+03   -0.27039E-02   -0.12163E-01  4262   0.130E-01    0.684E-01
RMM:   3    -0.413201360933E+03    0.49891E-02   -0.21685E-02  4437   0.720E-02    0.710E-02
RMM:   4    -0.413208933439E+03   -0.75725E-02   -0.76690E-03  5160   0.743E-02    0.372E-01
RMM:   5    -0.413201211631E+03    0.77218E-02   -0.39577E-03  4824   0.616E-02    0.434E-02
RMM:   6    -0.413201238293E+03   -0.26662E-04   -0.94565E-04  5694   0.297E-02    0.314E-02
RMM:   7    -0.413201231841E+03    0.64516E-05   -0.30142E-04  5243   0.176E-02    0.199E-02
RMM:   8    -0.413201218709E+03    0.13132E-04   -0.32326E-05  4856   0.675E-03    0.884E-03
RMM:   9    -0.413201217549E+03    0.11598E-05   -0.49227E-06  2854   0.274E-03    0.524E-03
RMM:  10    -0.413201215673E+03    0.18758E-05   -0.16124E-06  2521   0.210E-03    0.277E-03
RMM:  11    -0.413201213479E+03    0.21946E-05   -0.10043E-06  2472   0.163E-03    0.135E-03
RMM:  12    -0.413201211055E+03    0.24234E-05   -0.58889E-07  2342   0.125E-03    0.663E-04
RMM:  13    -0.413201209272E+03    0.17828E-05   -0.30877E-07  1946   0.921E-04    0.326E-04
RMM:  14    -0.413201207293E+03    0.19798E-05   -0.15915E-07  1419   0.725E-04    0.208E-04
RMM:  15    -0.413201204395E+03    0.28974E-05   -0.10001E-07  1126   0.656E-04    0.119E-04
RMM:  16    -0.413201201963E+03    0.24327E-05   -0.69672E-08  1018   0.627E-04    0.736E-05
RMM:  17    -0.413201200078E+03    0.18842E-05   -0.43605E-08   900   0.598E-04    0.460E-05
RMM:  18    -0.413201196810E+03    0.32684E-05   -0.52860E-08  1084   0.613E-04    0.306E-05
RMM:  19    -0.413201196057E+03    0.75309E-06   -0.20301E-08   739   0.543E-04
   37 T=    68. E= -.41286717E+03 F= -.41320120E+03 E0= -.41317998E+03  EK= 0.33403E+00 SP= 0.00E+00 SK= 0.00E+00
       N       E                     dE             d eps       ncg     rms          rms(c)
RMM:   1    -0.413213776073E+03   -0.12579E-01   -0.94052E+00  4309   0.954E-01    0.944E-01
RMM:   2    -0.413209038395E+03    0.47377E-02   -0.12584E-01  4257   0.128E-01    0.690E-01
RMM:   3    -0.413204208975E+03    0.48294E-02   -0.21230E-02  4720   0.681E-02    0.107E-01
RMM:   4    -0.413231541521E+03   -0.27333E-01   -0.28206E-02  5131   0.141E-01    0.693E-01
RMM:   5    -0.413203698202E+03    0.27843E-01   -0.13897E-02  4804   0.115E-01    0.507E-02
RMM:   6    -0.413203740424E+03   -0.42222E-04   -0.23560E-03  5828   0.464E-02    0.330E-02
RMM:   7    -0.413203753918E+03   -0.13494E-04   -0.34738E-04  5600   0.183E-02    0.189E-02
RMM:   8    -0.413203742638E+03    0.11280E-04   -0.59792E-05  5034   0.829E-03    0.105E-02
RMM:   9    -0.413203741291E+03    0.13468E-05   -0.15940E-05  4269   0.459E-03    0.746E-03
RMM:  10    -0.413203737095E+03    0.41961E-05   -0.23384E-06  2623   0.255E-03    0.413E-03
RMM:  11    -0.413203734651E+03    0.24440E-05   -0.11458E-06  2503   0.175E-03    0.251E-03
RMM:  12    -0.413203728848E+03    0.58028E-05   -0.17023E-06  2540   0.207E-03    0.132E-03
RMM:  13    -0.413203725900E+03    0.29478E-05   -0.60704E-07  2377   0.137E-03    0.804E-04
RMM:  14    -0.413203725310E+03    0.58969E-06   -0.25097E-07  1983   0.890E-04
   38 T=    69. E= -.41286714E+03 F= -.41320373E+03 E0= -.41318255E+03  EK= 0.33659E+00 SP= 0.00E+00 SK= 0.00E+00
       N       E                     dE             d eps       ncg     rms          rms(c)
RMM:   1    -0.413215498853E+03   -0.11773E-01   -0.94180E+00  4309   0.100E+00    0.953E-01
RMM:   2    -0.413211495061E+03    0.40038E-02   -0.13068E-01  4260   0.127E-01    0.686E-01
RMM:   3    -0.413206909728E+03    0.45853E-02   -0.19976E-02  4859   0.637E-02    0.133E-01
RMM:   4    -0.413243783640E+03   -0.36874E-01   -0.39156E-02  5129   0.166E-01    0.801E-01
RMM:   5    -0.413206130153E+03    0.37653E-01   -0.18564E-02  4787   0.133E-01    0.551E-02
RMM:   6    -0.413206211891E+03   -0.81738E-04   -0.31487E-03  5814   0.532E-02    0.358E-02
RMM:   7    -0.413206221067E+03   -0.91763E-05   -0.40354E-04  5628   0.192E-02    0.189E-02
RMM:   8    -0.413206210646E+03    0.10421E-04   -0.50564E-05  4833   0.746E-03    0.989E-03
RMM:   9    -0.413206209483E+03    0.11632E-05   -0.20646E-05  4500   0.469E-03    0.817E-03
RMM:  10    -0.413206201852E+03    0.76312E-05   -0.38419E-06  2862   0.289E-03    0.444E-03
RMM:  11    -0.413206197287E+03    0.45654E-05   -0.15886E-06  2504   0.206E-03    0.267E-03
RMM:  12    -0.413206186908E+03    0.10378E-04   -0.19975E-06  2556   0.225E-03    0.125E-03
RMM:  13    -0.413206182950E+03    0.39581E-05   -0.63169E-07  2429   0.145E-03    0.815E-04
RMM:  14    -0.413206182554E+03    0.39639E-06   -0.26631E-07  2064   0.922E-04
   39 T=    69. E= -.41286697E+03 F= -.41320618E+03 E0= -.41318504E+03  EK= 0.33921E+00 SP= 0.00E+00 SK= 0.00E+00
       N       E                     dE             d eps       ncg     rms          rms(c)
RMM:   1    -0.413220181594E+03   -0.13999E-01   -0.94853E+00  4310   0.103E+00    0.935E-01
RMM:   2    -0.413214971102E+03    0.52105E-02   -0.12993E-01  4257   0.126E-01    0.689E-01
RMM:   3    -0.413210455682E+03    0.45154E-02   -0.21313E-02  4946   0.686E-02    0.154E-01
RMM:   4    -0.413252293626E+03   -0.41838E-01   -0.46623E-02  5130   0.180E-01    0.853E-01
RMM:   5    -0.413209181645E+03    0.43112E-01   -0.20797E-02  4790   0.142E-01    0.568E-02
RMM:   6    -0.413209289355E+03   -0.10771E-03   -0.35326E-03  5813   0.561E-02    0.357E-02
RMM:   7    -0.413209301403E+03   -0.12047E-04   -0.42586E-04  5659   0.195E-02    0.189E-02
RMM:   8    -0.413209296963E+03    0.44395E-05   -0.57306E-05  4903   0.759E-03    0.101E-02
RMM:   9    -0.413209292524E+03    0.44395E-05   -0.18450E-05  4356   0.449E-03    0.732E-03
RMM:  10    -0.413209289526E+03    0.29976E-05   -0.49536E-06  2997   0.295E-03    0.442E-03
RMM:  11    -0.413209286123E+03    0.34026E-05   -0.14996E-06  2495   0.206E-03    0.269E-03
RMM:  12    -0.413209278413E+03    0.77110E-05   -0.17136E-06  2519   0.212E-03    0.103E-03
RMM:  13    -0.413209274966E+03    0.34464E-05   -0.61264E-07  2419   0.139E-03    0.799E-04
RMM:  14    -0.413209274679E+03    0.28666E-06   -0.26484E-07  2052   0.914E-04
   40 T=    70. E= -.41286723E+03 F= -.41320927E+03 E0= -.41318817E+03  EK= 0.34204E+00 SP= 0.00E+00 SK= 0.00E+00
       N       E                     dE             d eps       ncg     rms          rms(c)
RMM:   1    -0.413216269665E+03   -0.69947E-02   -0.95584E+00  4309   0.102E+00    0.949E-01
RMM:   2    -0.413217170682E+03   -0.90102E-03   -0.13182E-01  4261   0.133E-01    0.699E-01
RMM:   3    -0.413212933275E+03    0.42374E-02   -0.22085E-02  4975   0.708E-02    0.174E-01
RMM:   4    -0.413257768952E+03   -0.44836E-01   -0.51527E-02  5129   0.190E-01    0.884E-01
RMM:   5    -0.413211263861E+03    0.46505E-01   -0.22126E-02  4781   0.147E-01    0.585E-02
RMM:   6    -0.413211394583E+03   -0.13072E-03   -0.37807E-03  5817   0.579E-02    0.362E-02
RMM:   7    -0.413211409832E+03   -0.15249E-04   -0.46239E-04  5718   0.201E-02    0.200E-02
RMM:   8    -0.413211410857E+03   -0.10252E-05   -0.89315E-05  5188   0.943E-03    0.126E-02
RMM:   9    -0.413211401739E+03    0.91181E-05   -0.23837E-05  4589   0.538E-03    0.750E-03
RMM:  10    -0.413211398282E+03    0.34573E-05   -0.39017E-06  2761   0.292E-03    0.451E-03
RMM:  11    -0.413211395469E+03    0.28128E-05   -0.14672E-06  2504   0.202E-03    0.272E-03
RMM:  12    -0.413211388952E+03    0.65165E-05   -0.16027E-06  2524   0.205E-03    0.111E-03
RMM:  13    -0.413211384646E+03    0.43061E-05   -0.69787E-07  2430   0.143E-03    0.763E-04
RMM:  14    -0.413211383962E+03    0.68403E-06   -0.29450E-07  2088   0.953E-04
   41 T=    70. E= -.41286690E+03 F= -.41321138E+03 E0= -.41319032E+03  EK= 0.34449E+00 SP= 0.00E+00 SK= 0.00E+00
       N       E                     dE             d eps       ncg     rms          rms(c)
RMM:   1    -0.413239675062E+03   -0.28290E-01   -0.97853E+00  4312   0.121E+00    0.967E-01
RMM:   2    -0.413219269386E+03    0.20406E-01   -0.14817E-01  4290   0.134E-01    0.697E-01
RMM:   3    -0.413216351183E+03    0.29182E-02   -0.20178E-02  5054   0.728E-02    0.230E-01
RMM:   4    -0.413262430217E+03   -0.46079E-01   -0.57498E-02  5111   0.201E-01    0.903E-01
RMM:   5    -0.413213821148E+03    0.48609E-01   -0.22450E-02  4767   0.150E-01    0.626E-02
RMM:   6    -0.413213946886E+03   -0.12574E-03   -0.39193E-03  5793   0.590E-02    0.384E-02
RMM:   7    -0.413213956716E+03   -0.98298E-05   -0.51045E-04  5729   0.211E-02    0.231E-02
RMM:   8    -0.413213956413E+03    0.30299E-06   -0.13098E-04  5234   0.116E-02    0.145E-02
RMM:   9    -0.413213940898E+03    0.15515E-04   -0.25070E-05  4613   0.603E-03    0.683E-03
RMM:  10    -0.413213934956E+03    0.59416E-05   -0.54254E-06  3013   0.304E-03    0.422E-03
RMM:  11    -0.413213930300E+03    0.46569E-05   -0.13397E-06  2498   0.199E-03    0.247E-03
RMM:  12    -0.413213920927E+03    0.93728E-05   -0.12388E-06  2484   0.188E-03    0.997E-04
RMM:  13    -0.413213914762E+03    0.61647E-05   -0.58165E-07  2392   0.133E-03    0.602E-04
RMM:  14    -0.413213913656E+03    0.11064E-05   -0.27722E-07  2033   0.924E-04    0.403E-04
RMM:  15    -0.413213911168E+03    0.24875E-05   -0.14359E-07  1507   0.725E-04    0.249E-04
RMM:  16    -0.413213903337E+03    0.78311E-05   -0.13595E-07  1605   0.740E-04    0.308E-04
RMM:  17    -0.413213901566E+03    0.17709E-05   -0.54892E-08   964   0.590E-04    0.203E-04
RMM:  18    -0.413213895534E+03    0.60318E-05   -0.70055E-08  1326   0.640E-04    0.158E-04
RMM:  19    -0.413213893781E+03    0.17532E-05   -0.33524E-08   911   0.554E-04    0.625E-05
RMM:  20    -0.413213892092E+03    0.16890E-05   -0.33570E-08  1016   0.571E-04    0.803E-05
RMM:  21    -0.413213891980E+03    0.11207E-06   -0.13367E-08   696   0.521E-04
   42 T=    71. E= -.41286705E+03 F= -.41321389E+03 E0= -.41319285E+03  EK= 0.34684E+00 SP= 0.00E+00 SK= 0.00E+00
       N       E                     dE             d eps       ncg     rms          rms(c)
RMM:   1    -0.413233120048E+03   -0.19228E-01   -0.96892E+00  4312   0.121E+00    0.946E-01
RMM:   2    -0.413221403585E+03    0.11716E-01   -0.14469E-01  4303   0.141E-01    0.696E-01
RMM:   3    -0.413219745778E+03    0.16578E-02   -0.21852E-02  5071   0.828E-02    0.274E-01
RMM:   4    -0.413259356108E+03   -0.39610E-01   -0.56131E-02  5097   0.200E-01    0.855E-01
RMM:   5    -0.413215854103E+03    0.43502E-01   -0.19031E-02  4753   0.141E-01    0.618E-02
RMM:   6    -0.413215948741E+03   -0.94638E-04   -0.34684E-03  5771   0.555E-02    0.374E-02
RMM:   7    -0.413215954561E+03   -0.58199E-05   -0.50758E-04  5709   0.209E-02    0.240E-02
RMM:   8    -0.413215952166E+03    0.23951E-05   -0.12735E-04  5215   0.118E-02    0.134E-02
RMM:   9    -0.413215940505E+03    0.11661E-04   -0.19602E-05  4404   0.562E-03    0.593E-03
RMM:  10    -0.413215937172E+03    0.33332E-05   -0.45296E-06  2881   0.278E-03    0.373E-03
RMM:  11    -0.413215934248E+03    0.29240E-05   -0.12624E-06  2501   0.189E-03    0.209E-03
RMM:  12    -0.413215928636E+03    0.56122E-05   -0.10491E-06  2480   0.170E-03    0.837E-04
RMM:  13    -0.413215924816E+03    0.38194E-05   -0.50578E-07  2339   0.122E-03    0.459E-04
RMM:  14    -0.413215923740E+03    0.10763E-05   -0.24869E-07  1911   0.873E-04    0.311E-04
RMM:  15    -0.413215921361E+03    0.23792E-05   -0.13740E-07  1436   0.714E-04    0.159E-04
RMM:  16    -0.413215917139E+03    0.42224E-05   -0.10081E-07  1215   0.673E-04    0.147E-04
RMM:  17    -0.413215915259E+03    0.18800E-05   -0.56089E-08   982   0.618E-04    0.776E-05
RMM:  18    -0.413215912118E+03    0.31404E-05   -0.56206E-08  1138   0.629E-04    0.708E-05
RMM:  19    -0.413215909839E+03    0.22788E-05   -0.40096E-08  1029   0.593E-04    0.367E-05
RMM:  20    -0.413215908910E+03    0.92892E-06   -0.23111E-08   844   0.555E-04
   43 T=    71. E= -.41286714E+03 F= -.41321591E+03 E0= -.41319490E+03  EK= 0.34877E+00 SP= 0.00E+00 SK= 0.00E+00
       N       E                     dE             d eps       ncg     rms          rms(c)
RMM:   1    -0.413229377618E+03   -0.13468E-01   -0.97638E+00  4314   0.123E+00    0.950E-01
RMM:   2    -0.413222762808E+03    0.66148E-02   -0.14819E-01  4301   0.152E-01    0.708E-01
RMM:   3    -0.413221789818E+03    0.97299E-03   -0.23526E-02  5063   0.908E-02    0.304E-01
RMM:   4    -0.413259418408E+03   -0.37629E-01   -0.57416E-02  5094   0.204E-01    0.845E-01
RMM:   5    -0.413216850586E+03    0.42568E-01   -0.18056E-02  4733   0.139E-01    0.618E-02
RMM:   6    -0.413216938130E+03   -0.87545E-04   -0.33387E-03  5755   0.546E-02    0.363E-02
RMM:   7    -0.413216940666E+03   -0.25358E-05   -0.49570E-04  5725   0.207E-02    0.237E-02
RMM:   8    -0.413216938674E+03    0.19915E-05   -0.12563E-04  5202   0.117E-02    0.129E-02
RMM:   9    -0.413216929178E+03    0.94967E-05   -0.19071E-05  4380   0.558E-03    0.549E-03
RMM:  10    -0.413216926873E+03    0.23050E-05   -0.43100E-06  2840   0.270E-03    0.347E-03
RMM:  11    -0.413216924663E+03    0.22100E-05   -0.12518E-06  2497   0.186E-03    0.191E-03
RMM:  12    -0.413216920501E+03    0.41621E-05   -0.98446E-07  2483   0.162E-03    0.750E-04
RMM:  13    -0.413216917618E+03    0.28823E-05   -0.47469E-07  2278   0.116E-03    0.389E-04
RMM:  14    -0.413216916425E+03    0.11929E-05   -0.23815E-07  1815   0.844E-04    0.261E-04
RMM:  15    -0.413216913674E+03    0.27519E-05   -0.14964E-07  1397   0.720E-04    0.128E-04
RMM:  16    -0.413216910912E+03    0.27615E-05   -0.10130E-07  1184   0.662E-04    0.109E-04
RMM:  17    -0.413216908879E+03    0.20325E-05   -0.67631E-08  1063   0.626E-04    0.703E-05
RMM:  18    -0.413216906404E+03    0.24759E-05   -0.56535E-08  1099   0.622E-04    0.433E-05
RMM:  19    -0.413216904270E+03    0.21335E-05   -0.42811E-08  1053   0.594E-04    0.311E-05
RMM:  20    -0.413216903641E+03    0.62934E-06   -0.21235E-08   797   0.548E-04
   44 T=    71. E= -.41286687E+03 F= -.41321690E+03 E0= -.41319592E+03  EK= 0.35004E+00 SP= 0.00E+00 SK= 0.00E+00
       N       E                     dE             d eps       ncg     rms          rms(c)
RMM:   1    -0.413244930505E+03   -0.28026E-01   -0.98857E+00  4312   0.138E+00    0.973E-01
RMM:   2    -0.413223387329E+03    0.21543E-01   -0.15613E-01  4303   0.162E-01    0.705E-01
RMM:   3    -0.413225324473E+03   -0.19371E-02   -0.23805E-02  5078   0.101E-01    0.377E-01
RMM:   4    -0.413250294376E+03   -0.24970E-01   -0.50893E-02  5069   0.194E-01    0.740E-01
RMM:   5    -0.413218061107E+03    0.32233E-01   -0.12671E-02  4693   0.122E-01    0.613E-02
RMM:   6    -0.413218086044E+03   -0.24937E-04   -0.25370E-03  5683   0.481E-02    0.367E-02
RMM:   7    -0.413218079680E+03    0.63642E-05   -0.42782E-04  5635   0.199E-02    0.239E-02
RMM:   8    -0.413218071931E+03    0.77491E-05   -0.11975E-04  5125   0.118E-02    0.119E-02
RMM:   9    -0.413218059707E+03    0.12223E-04   -0.16165E-05  4290   0.548E-03    0.491E-03
RMM:  10    -0.413218055479E+03    0.42278E-05   -0.35703E-06  2777   0.252E-03    0.299E-03
RMM:  11    -0.413218050601E+03    0.48789E-05   -0.11703E-06  2489   0.181E-03    0.161E-03
RMM:  12    -0.413218043808E+03    0.67930E-05   -0.74373E-07  2441   0.145E-03    0.647E-04
RMM:  13    -0.413218039842E+03    0.39652E-05   -0.36068E-07  2082   0.103E-03    0.308E-04
RMM:  14    -0.413218037287E+03    0.25551E-05   -0.19967E-07  1648   0.798E-04    0.203E-04
RMM:  15    -0.413218031726E+03    0.55616E-05   -0.13955E-07  1356   0.725E-04    0.139E-04
RMM:  16    -0.413218029314E+03    0.24121E-05   -0.83186E-08  1133   0.653E-04    0.881E-05
RMM:  17    -0.413218025623E+03    0.36909E-05   -0.72127E-08  1218   0.647E-04    0.541E-05
RMM:  18    -0.413218022647E+03    0.29762E-05   -0.55373E-08  1164   0.613E-04    0.393E-05
RMM:  19    -0.413218020555E+03    0.20918E-05   -0.37510E-08  1015   0.572E-04    0.230E-05
RMM:  20    -0.413218020080E+03    0.47436E-06   -0.18558E-08   750   0.531E-04
   45 T=    71. E= -.41286716E+03 F= -.41321802E+03 E0= -.41319706E+03  EK= 0.35086E+00 SP= 0.00E+00 SK= 0.00E+00
       N       E                     dE             d eps       ncg     rms          rms(c)
RMM:   1    -0.413239720341E+03   -0.21700E-01   -0.97514E+00  4311   0.144E+00    0.955E-01
RMM:   2    -0.413222936538E+03    0.16784E-01   -0.15080E-01  4315   0.171E-01    0.698E-01
RMM:   3    -0.413227456958E+03   -0.45204E-02   -0.26107E-02  5089   0.113E-01    0.431E-01
RMM:   4    -0.413243391557E+03   -0.15935E-01   -0.47358E-02  5055   0.189E-01    0.663E-01
RMM:   5    -0.413217620272E+03    0.25771E-01   -0.93225E-03  4653   0.110E-01    0.591E-02
RMM:   6    -0.413217603977E+03    0.16294E-04   -0.19921E-03  5596   0.428E-02    0.345E-02
RMM:   7    -0.413217595651E+03    0.83259E-05   -0.35556E-04  5576   0.185E-02    0.225E-02
RMM:   8    -0.413217586602E+03    0.90492E-05   -0.11993E-04  5080   0.118E-02    0.110E-02
RMM:   9    -0.413217575314E+03    0.11288E-04   -0.14596E-05  4213   0.537E-03    0.460E-03
RMM:  10    -0.413217571715E+03    0.35986E-05   -0.29638E-06  2721   0.235E-03    0.270E-03
RMM:  11    -0.413217566970E+03    0.47450E-05   -0.11183E-06  2483   0.175E-03    0.141E-03
RMM:  12    -0.413217561202E+03    0.57687E-05   -0.66446E-07  2408   0.137E-03    0.634E-04
RMM:  13    -0.413217557801E+03    0.34010E-05   -0.31509E-07  1961   0.966E-04    0.300E-04
RMM:  14    -0.413217555027E+03    0.27732E-05   -0.17483E-07  1493   0.755E-04    0.180E-04
RMM:  15    -0.413217549978E+03    0.50496E-05   -0.13285E-07  1299   0.709E-04    0.126E-04
RMM:  16    -0.413217547771E+03    0.22069E-05   -0.79648E-08  1104   0.645E-04    0.823E-05
RMM:  17    -0.413217543482E+03    0.42890E-05   -0.83519E-08  1356   0.662E-04    0.584E-05
RMM:  18    -0.413217541488E+03    0.19941E-05   -0.46322E-08  1023   0.579E-04    0.367E-05
RMM:  19    -0.413217539736E+03    0.17522E-05   -0.33943E-08   928   0.562E-04    0.183E-05
RMM:  20    -0.413217539379E+03    0.35626E-06   -0.19626E-08   759   0.532E-04
   46 T=    71. E= -.41286698E+03 F= -.41321754E+03 E0= -.41319660E+03  EK= 0.35056E+00 SP= 0.00E+00 SK= 0.00E+00
       N       E                     dE             d eps       ncg     rms          rms(c)
RMM:   1    -0.413230564319E+03   -0.13025E-01   -0.97100E+00  4311   0.145E+00    0.946E-01
RMM:   2    -0.413221987695E+03    0.85766E-02   -0.14967E-01  4330   0.177E-01    0.707E-01
RMM:   3    -0.413228254818E+03   -0.62671E-02   -0.28823E-02  5088   0.124E-01    0.469E-01
RMM:   4    -0.413240785960E+03   -0.12531E-01   -0.48576E-02  5045   0.192E-01    0.645E-01
RMM:   5    -0.413216293629E+03    0.24492E-01   -0.84259E-03  4624   0.107E-01    0.585E-02
RMM:   6    -0.413216259842E+03    0.33787E-04   -0.18392E-03  5557   0.410E-02    0.323E-02
RMM:   7    -0.413216258304E+03    0.15384E-05   -0.32330E-04  5584   0.177E-02    0.216E-02
RMM:   8    -0.413216249032E+03    0.92718E-05   -0.12236E-04  5077   0.118E-02    0.104E-02
RMM:   9    -0.413216238452E+03    0.10580E-04   -0.14072E-05  4153   0.534E-03    0.438E-03
RMM:  10    -0.413216236142E+03    0.23101E-05   -0.29190E-06  2696   0.232E-03    0.254E-03
RMM:  11    -0.413216232874E+03    0.32684E-05   -0.11900E-06  2495   0.176E-03    0.130E-03
RMM:  12    -0.413216229107E+03    0.37668E-05   -0.68459E-07  2405   0.136E-03    0.648E-04
RMM:  13    -0.413216226632E+03    0.24747E-05   -0.32867E-07  1881   0.958E-04    0.302E-04
RMM:  14    -0.413216224364E+03    0.22687E-05   -0.19041E-07  1436   0.760E-04    0.173E-04
RMM:  15    -0.413216220850E+03    0.35134E-05   -0.15742E-07  1353   0.726E-04    0.120E-04
RMM:  16    -0.413216219039E+03    0.18114E-05   -0.96835E-08  1159   0.653E-04    0.852E-05
RMM:  17    -0.413216215351E+03    0.36873E-05   -0.10220E-07  1347   0.671E-04    0.614E-05
RMM:  18    -0.413216213980E+03    0.13715E-05   -0.51843E-08   992   0.578E-04    0.338E-05
RMM:  19    -0.413216212806E+03    0.11738E-05   -0.36529E-08   906   0.553E-04    0.191E-05
RMM:  20    -0.413216212307E+03    0.49949E-06   -0.24010E-08   792   0.529E-04
   47 T=    71. E= -.41286706E+03 F= -.41321621E+03 E0= -.41319528E+03  EK= 0.34915E+00 SP= 0.00E+00 SK= 0.00E+00
       N       E                     dE             d eps       ncg     rms          rms(c)
RMM:   1    -0.413238628667E+03   -0.22416E-01   -0.97134E+00  4307   0.160E+00    0.962E-01
RMM:   2    -0.413219244167E+03    0.19385E-01   -0.16012E-01  4371   0.192E-01    0.705E-01
RMM:   3    -0.413231118010E+03   -0.11874E-01   -0.31279E-02  5121   0.139E-01    0.568E-01
RMM:   4    -0.413230518700E+03    0.59931E-03   -0.44603E-02  5007   0.187E-01    0.538E-01
RMM:   5    -0.413213820646E+03    0.16698E-01   -0.53327E-03  4566   0.937E-02    0.580E-02
RMM:   6    -0.413213739031E+03    0.81615E-04   -0.10804E-03  5219   0.337E-02    0.312E-02
RMM:   7    -0.413213735711E+03    0.33204E-05   -0.21634E-04  5517   0.148E-02    0.181E-02
RMM:   8    -0.413213733278E+03    0.24325E-05   -0.12964E-04  5176   0.118E-02    0.118E-02
RMM:   9    -0.413213717789E+03    0.15489E-04   -0.17756E-05  4401   0.582E-03    0.444E-03
RMM:  10    -0.413213714714E+03    0.30753E-05   -0.33273E-06  2765   0.241E-03    0.243E-03
RMM:  11    -0.413213708942E+03    0.57718E-05   -0.13252E-06  2470   0.188E-03    0.127E-03
RMM:  12    -0.413213704499E+03    0.44428E-05   -0.59803E-07  2380   0.134E-03    0.725E-04
RMM:  13    -0.413213700602E+03    0.38975E-05   -0.28266E-07  1815   0.935E-04    0.362E-04
RMM:  14    -0.413213696571E+03    0.40309E-05   -0.15309E-07  1390   0.733E-04    0.199E-04
RMM:  15    -0.413213692472E+03    0.40987E-05   -0.11062E-07  1237   0.680E-04    0.131E-04
RMM:  16    -0.413213689957E+03    0.25155E-05   -0.73017E-08  1112   0.625E-04    0.107E-04
RMM:  17    -0.413213686059E+03    0.38978E-05   -0.75887E-08  1275   0.632E-04    0.617E-05
RMM:  18    -0.413213683990E+03    0.20690E-05   -0.38841E-08   924   0.554E-04    0.491E-05
RMM:  19    -0.413213683231E+03    0.75924E-06   -0.21227E-08   709   0.513E-04
   48 T=    71. E= -.41286736E+03 F= -.41321368E+03 E0= -.41319277E+03  EK= 0.34633E+00 SP= 0.00E+00 SK= 0.00E+00
       N       E                     dE             d eps       ncg     rms          rms(c)
RMM:   1    -0.413238679473E+03   -0.24995E-01   -0.95652E+00  4305   0.173E+00    0.950E-01
RMM:   2    -0.413214042625E+03    0.24637E-01   -0.16318E-01  4424   0.203E-01    0.694E-01
RMM:   3    -0.413231998361E+03   -0.17956E-01   -0.35000E-02  5136   0.154E-01    0.655E-01
[...]
       N       E                     dE             d eps       ncg     rms          rms(c)
RMM:   1    -0.412990010533E+03    0.86537E-01   -0.21669E+01  4274   0.775E+00    0.218E+00
RMM:   2    -0.412829620933E+03    0.16039E+00   -0.83420E-01  5281   0.935E-01    0.175E+00
RMM:   3    -0.413099713740E+03   -0.27009E+00   -0.38580E-01  5413   0.625E-01    0.233E+00
RMM:   4    -0.412856713076E+03    0.24300E+00   -0.25982E-01  5052   0.542E-01    0.814E-01
RMM:   5    -0.412830760325E+03    0.25953E-01   -0.10782E-01  5288   0.408E-01    0.329E-01
RMM:   6    -0.412826923554E+03    0.38368E-02   -0.12671E-02  5117   0.153E-01    0.159E-01
RMM:   7    -0.412826275433E+03    0.64812E-03   -0.36493E-03  5250   0.760E-02    0.815E-02
RMM:   8    -0.412826204917E+03    0.70516E-04   -0.21342E-03  5616   0.553E-02    0.537E-02
RMM:   9    -0.412826202804E+03    0.21123E-05   -0.38322E-04  5646   0.236E-02    0.377E-02
RMM:  10    -0.412826187554E+03    0.15251E-04   -0.26818E-04  5492   0.197E-02    0.131E-02
RMM:  11    -0.412826198186E+03   -0.10632E-04   -0.56992E-05  5663   0.803E-03    0.100E-02
RMM:  12    -0.412826203377E+03   -0.51911E-05   -0.17824E-05  4553   0.558E-03    0.395E-03
RMM:  13    -0.412826208697E+03   -0.53205E-05   -0.36679E-06  2859   0.273E-03    0.210E-03
RMM:  14    -0.412826213782E+03   -0.50849E-05   -0.26152E-06  2722   0.231E-03    0.136E-03
RMM:  15    -0.412826215918E+03   -0.21361E-05   -0.17109E-06  2574   0.180E-03    0.889E-04
RMM:  16    -0.412826216220E+03   -0.30126E-06   -0.14210E-06  2548   0.154E-03
  141 T=   133. E= -.41217409E+03 F= -.41282622E+03 E0= -.41280302E+03  EK= 0.65213E+00 SP= 0.00E+00 SK= 0.00E+00
       N       E                     dE             d eps       ncg     rms          rms(c)
RMM:   1    -0.412539962683E+03    0.28625E+00   -0.12625E+01  4267   0.580E+00    0.172E+00
RMM:   2    -0.412494602523E+03    0.45360E-01   -0.48695E-01  5279   0.739E-01    0.148E+00
RMM:   3    -0.412593734259E+03   -0.99132E-01   -0.18258E-01  5427   0.430E-01    0.158E+00
RMM:   4    -0.412520321962E+03    0.73412E-01   -0.14712E-01  5109   0.399E-01    0.872E-01
RMM:   5    -0.412494116937E+03    0.26205E-01   -0.64983E-02  4860   0.337E-01    0.291E-01
RMM:   6    -0.412491205536E+03    0.29114E-02   -0.50432E-03  4602   0.112E-01    0.121E-01
RMM:   7    -0.412490870732E+03    0.33480E-03   -0.21564E-03  5035   0.607E-02    0.544E-02
RMM:   8    -0.412490917261E+03   -0.46529E-04   -0.10867E-03  5782   0.381E-02    0.446E-02
RMM:   9    -0.412490882886E+03    0.34375E-04   -0.29017E-04  5474   0.198E-02    0.251E-02
RMM:  10    -0.412490872044E+03    0.10841E-04   -0.12567E-04  5589   0.132E-02    0.133E-02
RMM:  11    -0.412490875042E+03   -0.29977E-05   -0.38281E-05  5473   0.692E-03    0.799E-03
RMM:  12    -0.412490874934E+03    0.10785E-06   -0.94614E-06  3946   0.430E-03
  142 T=    76. E= -.41211950E+03 F= -.41249087E+03 E0= -.41246754E+03  EK= 0.37137E+00 SP= 0.00E+00 SK= 0.00E+00
       N       E                     dE             d eps       ncg     rms          rms(c)
RMM:   1    -0.412766622795E+03   -0.27575E+00   -0.86610E+00  4273   0.523E+00    0.912E-01
RMM:   2    -0.412758157031E+03    0.84658E-02   -0.34694E-01  5259   0.529E-01    0.641E-01
RMM:   3    -0.412763355343E+03   -0.51983E-02   -0.41321E-02  5232   0.258E-01    0.369E-01
RMM:   4    -0.412793850772E+03   -0.30495E-01   -0.48019E-02  5250   0.212E-01    0.761E-01
RMM:   5    -0.412758656211E+03    0.35195E-01   -0.22411E-02  5039   0.172E-01    0.101E-01
RMM:   6    -0.412758458502E+03    0.19771E-03   -0.35855E-03  5591   0.705E-02    0.435E-02
RMM:   7    -0.412758508620E+03   -0.50118E-04   -0.99646E-04  5822   0.321E-02    0.357E-02
RMM:   8    -0.412758491690E+03    0.16930E-04   -0.23954E-04  5481   0.168E-02    0.193E-02
RMM:   9    -0.412758487718E+03    0.39719E-05   -0.56309E-05  5180   0.916E-03    0.110E-02
RMM:  10    -0.412758490869E+03   -0.31506E-05   -0.21567E-05  4730   0.603E-03    0.573E-03
RMM:  11    -0.412758492906E+03   -0.20371E-05   -0.42403E-06  2908   0.302E-03    0.347E-03
RMM:  12    -0.412758498087E+03   -0.51815E-05   -0.26194E-06  2683   0.258E-03    0.222E-03
RMM:  13    -0.412758502200E+03   -0.41127E-05   -0.10553E-06  2516   0.177E-03    0.126E-03
RMM:  14    -0.412758505569E+03   -0.33687E-05   -0.57516E-07  2398   0.118E-03    0.634E-04
RMM:  15    -0.412758509185E+03   -0.36167E-05   -0.49615E-07  2017   0.101E-03    0.373E-04
RMM:  16    -0.412758515100E+03   -0.59145E-05   -0.81019E-07  2369   0.116E-03    0.400E-04
RMM:  17    -0.412758517304E+03   -0.22040E-05   -0.28809E-07  1416   0.751E-04    0.233E-04
RMM:  18    -0.412758521864E+03   -0.45603E-05   -0.45785E-07  1769   0.896E-04    0.170E-04
RMM:  19    -0.412758523349E+03   -0.14849E-05   -0.16988E-07  1255   0.667E-04    0.112E-04
RMM:  20    -0.412758525834E+03   -0.24847E-05   -0.15079E-07  1312   0.666E-04    0.692E-05
RMM:  21    -0.412758526681E+03   -0.84689E-06   -0.77051E-08  1068   0.585E-04
  143 T=   124. E= -.41214804E+03 F= -.41275853E+03 E0= -.41273537E+03  EK= 0.61049E+00 SP= 0.00E+00 SK= 0.00E+00
       N       E                     dE             d eps       ncg     rms          rms(c)
RMM:   1    -0.413566275147E+03   -0.80775E+00   -0.23857E+01  4297   0.860E+00    0.233E+00
RMM:   2    -0.413326352354E+03    0.23992E+00   -0.72008E-01  5220   0.100E+00    0.182E+00
RMM:   3    -0.413630128422E+03   -0.30378E+00   -0.44834E-01  5371   0.678E-01    0.262E+00
RMM:   4    -0.413319331758E+03    0.31080E+00   -0.27063E-01  5019   0.587E-01    0.674E-01
RMM:   5    -0.413304695320E+03    0.14636E-01   -0.81966E-02  5010   0.371E-01    0.224E-01
RMM:   6    -0.413304052472E+03    0.64285E-03   -0.13921E-02  5695   0.138E-01    0.126E-01
RMM:   7    -0.413303769542E+03    0.28293E-03   -0.33153E-03  5323   0.654E-02    0.619E-02
RMM:   8    -0.413303669672E+03    0.99869E-04   -0.12882E-03  5642   0.411E-02    0.458E-02
RMM:   9    -0.413303633866E+03    0.35806E-04   -0.28814E-04  5552   0.200E-02    0.262E-02
RMM:  10    -0.413303631686E+03    0.21797E-05   -0.12475E-04  5507   0.132E-02    0.153E-02
RMM:  11    -0.413303641034E+03   -0.93472E-05   -0.55686E-05  5601   0.846E-03    0.107E-02
RMM:  12    -0.413303650867E+03   -0.98334E-05   -0.20988E-05  4711   0.626E-03    0.374E-03
RMM:  13    -0.413303662024E+03   -0.11157E-04   -0.60023E-06  3219   0.320E-03    0.304E-03
RMM:  14    -0.413303674551E+03   -0.12527E-04   -0.17145E-06  2616   0.225E-03    0.114E-03
RMM:  15    -0.413303684213E+03   -0.96618E-05   -0.11065E-06  2532   0.154E-03    0.772E-04
RMM:  16    -0.413303701372E+03   -0.17159E-04   -0.21647E-06  2695   0.188E-03    0.549E-04
RMM:  17    -0.413303711643E+03   -0.10271E-04   -0.14414E-06  2247   0.136E-03    0.363E-04
RMM:  18    -0.413303720020E+03   -0.83770E-05   -0.11367E-06  2255   0.123E-03    0.275E-04
RMM:  19    -0.413303726208E+03   -0.61874E-05   -0.73553E-07  1951   0.982E-04    0.203E-04
RMM:  20    -0.413303729759E+03   -0.35511E-05   -0.35092E-07  1575   0.762E-04    0.115E-04
RMM:  21    -0.413303732521E+03   -0.27627E-05   -0.19200E-07  1324   0.670E-04    0.778E-05
RMM:  22    -0.413303734598E+03   -0.20762E-05   -0.12182E-07  1284   0.636E-04    0.766E-05
RMM:  23    -0.413303735501E+03   -0.90334E-06   -0.61805E-08  1069   0.575E-04
  144 T=   226. E= -.41219218E+03 F= -.41330374E+03 E0= -.41328076E+03  EK= 0.11116E+01 SP= 0.00E+00 SK= 0.00E+00
       N       E                     dE             d eps       ncg     rms          rms(c)
RMM:   1    -0.413773526880E+03   -0.46979E+00   -0.31689E+01  4304   0.104E+01    0.187E+00
RMM:   2    -0.413448135299E+03    0.32539E+00   -0.81777E-01  5270   0.116E+00    0.166E+00
RMM:   3    -0.413541850768E+03   -0.93715E-01   -0.23874E-01  5605   0.530E-01    0.191E+00
RMM:   4    -0.413430614119E+03    0.11124E+00   -0.11667E-01  4999   0.398E-01    0.819E-01
RMM:   5    -0.413425201084E+03    0.54130E-02   -0.55094E-02  4628   0.320E-01    0.304E-01
RMM:   6    -0.413422950696E+03    0.22504E-02   -0.99853E-03  4978   0.135E-01    0.113E-01
RMM:   7    -0.413422844137E+03    0.10656E-03   -0.30534E-03  5654   0.630E-02    0.807E-02
RMM:   8    -0.413422643871E+03    0.20027E-03   -0.11229E-03  5207   0.397E-02    0.549E-02
RMM:   9    -0.413422568682E+03    0.75189E-04   -0.31350E-04  4766   0.230E-02    0.239E-02
RMM:  10    -0.413422585172E+03   -0.16490E-04   -0.16337E-04  5833   0.147E-02    0.150E-02
RMM:  11    -0.413422595664E+03   -0.10492E-04   -0.41515E-05  5215   0.775E-03    0.912E-03
RMM:  12    -0.413422609383E+03   -0.13719E-04   -0.12753E-05  4111   0.497E-03    0.442E-03
RMM:  13    -0.413422625446E+03   -0.16063E-04   -0.43869E-06  3002   0.308E-03    0.264E-03
RMM:  14    -0.413422644297E+03   -0.18851E-04   -0.25424E-06  2725   0.246E-03    0.137E-03
RMM:  15    -0.413422660641E+03   -0.16344E-04   -0.20835E-06  2674   0.204E-03    0.952E-04
RMM:  16    -0.413422676724E+03   -0.16083E-04   -0.20809E-06  2698   0.182E-03    0.549E-04
RMM:  17    -0.413422687989E+03   -0.11265E-04   -0.15112E-06  2400   0.144E-03    0.415E-04
RMM:  18    -0.413422699084E+03   -0.11095E-04   -0.16769E-06  2465   0.145E-03    0.310E-04
RMM:  19    -0.413422704333E+03   -0.52489E-05   -0.72306E-07  1851   0.962E-04    0.185E-04
RMM:  20    -0.413422708760E+03   -0.44266E-05   -0.42105E-07  1729   0.826E-04    0.124E-04
RMM:  21    -0.413422711970E+03   -0.32109E-05   -0.22235E-07  1379   0.687E-04    0.870E-05
RMM:  22    -0.413422714058E+03   -0.20880E-05   -0.12712E-07  1204   0.618E-04    0.618E-05
RMM:  23    -0.413422715274E+03   -0.12156E-05   -0.75623E-08  1096   0.583E-04    0.438E-05
RMM:  24    -0.413422716201E+03   -0.92718E-06   -0.53006E-08  1064   0.567E-04
  145 T=   252. E= -.41218615E+03 F= -.41342272E+03 E0= -.41339987E+03  EK= 0.12366E+01 SP= 0.00E+00 SK= 0.00E+00
       N       E                     dE             d eps       ncg     rms          rms(c)
RMM:   1    -0.413309126400E+03    0.11359E+00   -0.27362E+01  4304   0.992E+00    0.170E+00
RMM:   2    -0.413110193668E+03    0.19893E+00   -0.69128E-01  5297   0.109E+00    0.152E+00
RMM:   3    -0.413161349116E+03   -0.51155E-01   -0.13581E-01  5620   0.420E-01    0.140E+00
RMM:   4    -0.413146890964E+03    0.14458E-01   -0.11941E-01  5107   0.345E-01    0.114E+00
RMM:   5    -0.413111337168E+03    0.35554E-01   -0.90494E-02  5023   0.369E-01    0.430E-01
RMM:   6    -0.413104445706E+03    0.68915E-02   -0.30084E-02  4975   0.218E-01    0.191E-01
RMM:   7    -0.413102864633E+03    0.15811E-02   -0.60277E-03  5292   0.101E-01    0.981E-02
RMM:   8    -0.413102708074E+03    0.15656E-03   -0.10089E-03  5691   0.387E-02    0.681E-02
RMM:   9    -0.413102634291E+03    0.73783E-04   -0.56342E-04  4565   0.299E-02    0.248E-02
RMM:  10    -0.413102668485E+03   -0.34195E-04   -0.26264E-04  5542   0.188E-02    0.174E-02
RMM:  11    -0.413102673724E+03   -0.52388E-05   -0.45813E-05  5234   0.794E-03    0.111E-02
RMM:  12    -0.413102683232E+03   -0.95082E-05   -0.18783E-05  4146   0.537E-03    0.509E-03
RMM:  13    -0.413102702131E+03   -0.18899E-04   -0.78129E-06  3313   0.403E-03    0.334E-03
RMM:  14    -0.413102719762E+03   -0.17631E-04   -0.35213E-06  2844   0.288E-03    0.178E-03
RMM:  15    -0.413102733320E+03   -0.13558E-04   -0.23143E-06  2685   0.218E-03    0.991E-04
RMM:  16    -0.413102742052E+03   -0.87321E-05   -0.14639E-06  2568   0.155E-03    0.553E-04
RMM:  17    -0.413102750258E+03   -0.82061E-05   -0.13461E-06  2413   0.144E-03    0.399E-04
RMM:  18    -0.413102756638E+03   -0.63803E-05   -0.12198E-06  2358   0.132E-03    0.272E-04
RMM:  19    -0.413102758872E+03   -0.22341E-05   -0.43346E-07  1642   0.833E-04    0.159E-04
RMM:  20    -0.413102761608E+03   -0.27362E-05   -0.40042E-07  1837   0.854E-04    0.120E-04
RMM:  21    -0.413102762820E+03   -0.12115E-05   -0.15927E-07  1214   0.638E-04    0.773E-05
RMM:  22    -0.413102764097E+03   -0.12771E-05   -0.10075E-07  1107   0.600E-04    0.470E-05
RMM:  23    -0.413102765340E+03   -0.12434E-05   -0.70671E-08  1061   0.583E-04    0.412E-05
RMM:  24    -0.413102765600E+03   -0.25974E-06   -0.34685E-08   890   0.545E-04
  146 T=   190. E= -.41216960E+03 F= -.41310277E+03 E0= -.41308011E+03  EK= 0.93317E+00 SP= 0.00E+00 SK= 0.00E+00
       N       E                     dE             d eps       ncg     rms          rms(c)
RMM:   1    -0.412724741556E+03    0.37802E+00   -0.15159E+01  4299   0.757E+00    0.103E+00
RMM:   2    -0.412670311258E+03    0.54430E-01   -0.37711E-01  5372   0.742E-01    0.902E-01
RMM:   3    -0.412673190523E+03   -0.28793E-02   -0.46236E-02  5656   0.247E-01    0.663E-01
RMM:   4    -0.412720624632E+03   -0.47434E-01   -0.67885E-02  5223   0.239E-01    0.103E+00
RMM:   5    -0.412670440988E+03    0.50184E-01   -0.50835E-02  5014   0.257E-01    0.314E-01
RMM:   6    -0.412668140672E+03    0.23003E-02   -0.19659E-02  5334   0.166E-01    0.151E-01
RMM:   7    -0.412667401757E+03    0.73891E-03   -0.38559E-03  5575   0.735E-02    0.965E-02
RMM:   8    -0.412667241713E+03    0.16004E-03   -0.60337E-04  5447   0.288E-02    0.630E-02
RMM:   9    -0.412667217252E+03    0.24462E-04   -0.73846E-04  4714   0.304E-02    0.182E-02
RMM:  10    -0.412667254376E+03   -0.37125E-04   -0.19335E-04  5634   0.153E-02    0.175E-02
RMM:  11    -0.412667250547E+03    0.38294E-05   -0.32266E-05  4776   0.661E-03    0.967E-03
RMM:  12    -0.412667255012E+03   -0.44648E-05   -0.18851E-05  4016   0.480E-03    0.399E-03
RMM:  13    -0.412667266265E+03   -0.11253E-04   -0.62107E-06  3172   0.347E-03    0.242E-03
RMM:  14    -0.412667274703E+03   -0.84382E-05   -0.28552E-06  2740   0.246E-03    0.163E-03
RMM:  15    -0.412667280586E+03   -0.58830E-05   -0.22559E-06  2658   0.200E-03    0.832E-04
RMM:  16    -0.412667282620E+03   -0.20344E-05   -0.11426E-06  2388   0.135E-03    0.491E-04
RMM:  17    -0.412667284051E+03   -0.14306E-05   -0.12422E-06  2447   0.140E-03    0.379E-04
RMM:  18    -0.412667284031E+03    0.19558E-07   -0.73696E-07  2028   0.105E-03
  147 T=   110. E= -.41212645E+03 F= -.41266728E+03 E0= -.41264477E+03  EK= 0.54083E+00 SP= 0.00E+00 SK= 0.00E+00
       N       E                     dE             d eps       ncg     rms          rms(c)
RMM:   1    -0.412664646519E+03    0.26375E-02   -0.89266E+00  4303   0.593E+00    0.795E-01
RMM:   2    -0.412681031073E+03   -0.16385E-01   -0.22943E-01  5415   0.547E-01    0.888E-01
RMM:   3    -0.412663502644E+03    0.17528E-01   -0.54356E-02  5583   0.246E-01    0.715E-01
RMM:   4    -0.412653591328E+03    0.99113E-02   -0.20589E-02  5188   0.168E-01    0.395E-01
RMM:   5    -0.412654959053E+03   -0.13677E-02   -0.28319E-02  5060   0.197E-01    0.265E-01
RMM:   6    -0.412652360112E+03    0.25989E-02   -0.12197E-02  5148   0.133E-01    0.139E-01
RMM:   7    -0.412651967009E+03    0.39310E-03   -0.12609E-03  5293   0.501E-02    0.903E-02
RMM:   8    -0.412651825607E+03    0.14140E-03   -0.89370E-04  4989   0.345E-02    0.365E-02
RMM:   9    -0.412651869412E+03   -0.43805E-04   -0.53039E-04  5478   0.239E-02    0.196E-02
RMM:  10    -0.412651871079E+03   -0.16667E-05   -0.60776E-05  5434   0.955E-03    0.126E-02
RMM:  11    -0.412651878320E+03   -0.72419E-05   -0.28215E-05  4715   0.644E-03    0.674E-03
RMM:  12    -0.412651891879E+03   -0.13558E-04   -0.12061E-05  3801   0.450E-03    0.313E-03
RMM:  13    -0.412651897167E+03   -0.52889E-05   -0.33563E-06  2819   0.261E-03    0.188E-03
RMM:  14    -0.412651902061E+03   -0.48933E-05   -0.25842E-06  2732   0.214E-03    0.119E-03
RMM:  15    -0.412651905079E+03   -0.30181E-05   -0.30475E-06  2750   0.216E-03    0.770E-04
RMM:  16    -0.412651904290E+03    0.78864E-06   -0.27025E-06  2608   0.184E-03
  148 T=   101. E= -.41215458E+03 F= -.41265190E+03 E0= -.41262950E+03  EK= 0.49733E+00 SP= 0.00E+00 SK= 0.00E+00
       N       E                     dE             d eps       ncg     rms          rms(c)
RMM:   1    -0.412801550386E+03   -0.14965E+00   -0.12026E+01  4306   0.696E+00    0.168E+00
RMM:   2    -0.412836176290E+03   -0.34626E-01   -0.42812E-01  5328   0.782E-01    0.166E+00
RMM:   3    -0.412820053470E+03    0.16123E-01   -0.18039E-01  5343   0.445E-01    0.156E+00
RMM:   4    -0.412758803200E+03    0.61250E-01   -0.12830E-01  5171   0.400E-01    0.727E-01
RMM:   5    -0.412755501806E+03    0.33014E-02   -0.87618E-02  5046   0.355E-01    0.422E-01
RMM:   6    -0.412748485876E+03    0.70159E-02   -0.33163E-02  5119   0.223E-01    0.218E-01
RMM:   7    -0.412747189520E+03    0.12964E-02   -0.22854E-03  4432   0.777E-02    0.101E-01
RMM:   8    -0.412747126304E+03    0.63216E-04   -0.14424E-03  5400   0.451E-02    0.521E-02
RMM:   9    -0.412747162884E+03   -0.36580E-04   -0.56821E-04  5371   0.280E-02    0.259E-02
RMM:  10    -0.412747166820E+03   -0.39359E-05   -0.10040E-04  5542   0.120E-02    0.144E-02
RMM:  11    -0.412747181657E+03   -0.14838E-04   -0.61377E-05  5310   0.930E-03    0.873E-03
RMM:  12    -0.412747203174E+03   -0.21517E-04   -0.15836E-05  4021   0.553E-03    0.499E-03
RMM:  13    -0.412747212514E+03   -0.93395E-05   -0.63402E-06  3195   0.356E-03    0.275E-03
RMM:  14    -0.412747218830E+03   -0.63167E-05   -0.39611E-06  2905   0.277E-03    0.153E-03
RMM:  15    -0.412747221897E+03   -0.30664E-05   -0.47041E-06  2965   0.277E-03    0.105E-03
RMM:  16    -0.412747219774E+03    0.21228E-05   -0.41427E-06  2808   0.238E-03    0.762E-04
RMM:  17    -0.412747214535E+03    0.52391E-05   -0.27701E-06  2564   0.180E-03    0.478E-04
RMM:  18    -0.412747205929E+03    0.86055E-05   -0.20391E-06  2490   0.157E-03    0.273E-04
RMM:  19    -0.412747199457E+03    0.64720E-05   -0.85529E-07  1940   0.103E-03    0.175E-04
RMM:  20    -0.412747194559E+03    0.48984E-05   -0.40052E-07  1629   0.812E-04    0.125E-04
RMM:  21    -0.412747190343E+03    0.42159E-05   -0.22925E-07  1466   0.711E-04    0.753E-05
RMM:  22    -0.412747187637E+03    0.27057E-05   -0.13317E-07  1311   0.647E-04    0.535E-05
RMM:  23    -0.412747186347E+03    0.12904E-05   -0.74853E-08  1132   0.584E-04    0.350E-05
RMM:  24    -0.412747185854E+03    0.49282E-06   -0.39551E-08   955   0.538E-04
  149 T=   118. E= -.41216738E+03 F= -.41274719E+03 E0= -.41272495E+03  EK= 0.57980E+00 SP= 0.00E+00 SK= 0.00E+00
       N       E                     dE             d eps       ncg     rms          rms(c)
RMM:   1    -0.412744688616E+03    0.24977E-02   -0.11480E+01  4306   0.666E+00    0.136E+00
RMM:   2    -0.412767062582E+03   -0.22374E-01   -0.40979E-01  5291   0.743E-01    0.136E+00
RMM:   3    -0.412768366350E+03   -0.13038E-02   -0.14280E-01  5404   0.394E-01    0.136E+00
RMM:   4    -0.412710794089E+03    0.57572E-01   -0.72604E-02  5134   0.308E-01    0.638E-01
RMM:   5    -0.412711336429E+03   -0.54234E-03   -0.57904E-02  5062   0.285E-01    0.432E-01
RMM:   6    -0.412706840191E+03    0.44962E-02   -0.33447E-02  5165   0.211E-01    0.241E-01
RMM:   7    -0.412705129230E+03    0.17110E-02   -0.41038E-03  4842   0.915E-02    0.119E-01
RMM:   8    -0.412704979140E+03    0.15009E-03   -0.18007E-03  5713   0.482E-02    0.656E-02
RMM:   9    -0.412704973922E+03    0.52183E-05   -0.73810E-04  4941   0.319E-02    0.216E-02
RMM:  10    -0.412704996691E+03   -0.22770E-04   -0.14293E-04  5665   0.142E-02    0.136E-02
RMM:  11    -0.412705009643E+03   -0.12952E-04   -0.36763E-05  4748   0.777E-03    0.859E-03
RMM:  12    -0.412705035738E+03   -0.26095E-04   -0.16456E-05  3890   0.555E-03    0.510E-03
RMM:  13    -0.412705049478E+03   -0.13739E-04   -0.69949E-06  3216   0.365E-03    0.264E-03
RMM:  14    -0.412705056209E+03   -0.67312E-05   -0.40874E-06  2935   0.267E-03    0.175E-03
RMM:  15    -0.412705060085E+03   -0.38757E-05   -0.42270E-06  2966   0.260E-03    0.952E-04
RMM:  16    -0.412705060280E+03   -0.19534E-06   -0.39565E-06  2838   0.237E-03
  150 T=   113. E= -.41215241E+03 F= -.41270506E+03 E0= -.41268304E+03  EK= 0.55265E+00 SP= 0.00E+00 SK= 0.00E+00
