       N       E                     dE             d eps       ncg     rms          rms(c)
RMM:   1     0.220171799910E+04    0.22017E+04   -0.52442E+04  2132   0.654E+02
RMM:   2     0.705695993012E+03   -0.14960E+04   -0.16264E+04  2132   0.177E+02
RMM:   3     0.137611478397E+03   -0.56808E+03   -0.65731E+03  2132   0.117E+02
RMM:   4    -0.159546769814E+03   -0.29716E+03   -0.27849E+03  2132   0.936E+01
RMM:   5    -0.287511969434E+03   -0.12797E+03   -0.11446E+03  2132   0.595E+01
RMM:   6    -0.349915405616E+03   -0.62403E+02   -0.55111E+02  2132   0.423E+01
RMM:   7    -0.382760544465E+03   -0.32845E+02   -0.30423E+02  2132   0.293E+01
RMM:   8    -0.404254712791E+03   -0.21494E+02   -0.18428E+02  2132   0.233E+01
RMM:   9    -0.435971720342E+03   -0.31717E+02   -0.30604E+02  6095   0.173E+01
RMM:  10    -0.441276879200E+03   -0.53052E+01   -0.63149E+01  6396   0.539E+00
RMM:  11    -0.442515175730E+03   -0.12383E+01   -0.11349E+01  6222   0.174E+00
RMM:  12    -0.442891168222E+03   -0.37599E+00   -0.26854E+00  6371   0.601E-01    0.134E+02
RMM:  13    -0.425588520133E+03    0.17303E+02   -0.80840E+01  4675   0.119E+01    0.712E+01
RMM:  14    -0.498843478601E+03   -0.73255E+02   -0.53582E+02  5420   0.232E+01    0.306E+01
RMM:  15    -0.415375494677E+03    0.83468E+02   -0.19799E+02  5083   0.163E+01    0.665E+00
RMM:  16    -0.414048719903E+03    0.13268E+01   -0.39071E+01  6081   0.606E+00    0.428E+00
RMM:  17    -0.413216960606E+03    0.83176E+00   -0.24319E+00  5354   0.185E+00    0.245E+00
RMM:  18    -0.413170003298E+03    0.46957E-01   -0.82478E-01  5972   0.934E-01    0.163E+00
RMM:  19    -0.413168147012E+03    0.18563E-02   -0.27248E-01  5723   0.561E-01    0.852E-01
RMM:  20    -0.413185817562E+03   -0.17671E-01   -0.24007E-01  5466   0.519E-01    0.572E-01
RMM:  21    -0.413167867182E+03    0.17950E-01   -0.35528E-02  4994   0.235E-01    0.258E-01
RMM:  22    -0.413165942839E+03    0.19243E-02   -0.16276E-02  6040   0.109E-01    0.142E-01
RMM:  23    -0.413164473479E+03    0.14694E-02   -0.57887E-03  5916   0.700E-02    0.819E-02
RMM:  24    -0.413163106212E+03    0.13673E-02   -0.15220E-03  5257   0.392E-02    0.411E-02
RMM:  25    -0.413162716987E+03    0.38922E-03   -0.82119E-04  5627   0.257E-02    0.333E-02
RMM:  26    -0.413162892470E+03   -0.17548E-03   -0.82419E-04  5774   0.301E-02    0.349E-02
RMM:  27    -0.413163309377E+03   -0.41691E-03   -0.19420E-04  4576   0.202E-02    0.194E-02
RMM:  28    -0.413163779559E+03   -0.47018E-03   -0.20096E-04  5273   0.199E-02    0.889E-03
RMM:  29    -0.413164128620E+03   -0.34906E-03   -0.10100E-04  4524   0.144E-02    0.483E-03
RMM:  30    -0.413164359953E+03   -0.23133E-03   -0.77465E-05  4099   0.105E-02    0.356E-03
RMM:  31    -0.413164465318E+03   -0.10537E-03   -0.48803E-05  3178   0.628E-03    0.320E-03
RMM:  32    -0.413164485391E+03   -0.20073E-04   -0.18636E-05  2943   0.294E-03    0.165E-03
RMM:  33    -0.413164493708E+03   -0.83169E-05   -0.81980E-06  2790   0.221E-03    0.523E-04
RMM:  34    -0.413164494875E+03   -0.11673E-05   -0.46204E-06  2658   0.172E-03    0.834E-04
RMM:  35    -0.413164493849E+03    0.10258E-05   -0.20198E-06  2277   0.118E-03    0.759E-04
RMM:  36    -0.413164492940E+03    0.90896E-06   -0.35285E-06  1562   0.860E-04
    1 T=    61. E= -.41286669E+03 F= -.41316449E+03 E0= -.41314199E+03  EK= 0.29781E+00 SP= 0.00E+00 SK= 0.00E+00
       N       E                     dE             d eps       ncg     rms          rms(c)
RMM:   1    -0.413165311264E+03   -0.81742E-03   -0.84131E+00  3974   0.592E-01    0.888E-01
RMM:   2    -0.413169208582E+03   -0.38973E-02   -0.10380E-01  4061   0.878E-02    0.654E-01
RMM:   3    -0.413165198791E+03    0.40098E-02   -0.21963E-02  4968   0.598E-02    0.146E-01
RMM:   4    -0.413197057231E+03   -0.31858E-01   -0.36693E-02  5178   0.160E-01    0.749E-01
RMM:   5    -0.413163948900E+03    0.33108E-01   -0.15522E-02  4826   0.126E-01    0.518E-02
RMM:   6    -0.413164168816E+03   -0.21992E-03   -0.28868E-03  5768   0.521E-02    0.354E-02
RMM:   7    -0.413164174452E+03   -0.56366E-05   -0.49390E-04  5712   0.204E-02    0.230E-02
RMM:   8    -0.413164171525E+03    0.29275E-05   -0.71832E-05  5279   0.921E-03    0.107E-02
RMM:   9    -0.413164172480E+03   -0.95558E-06   -0.14190E-05  3984   0.412E-03    0.755E-03
RMM:  10    -0.413164177528E+03   -0.50479E-05   -0.26081E-06  2633   0.239E-03    0.460E-03
RMM:  11    -0.413164180930E+03   -0.34016E-05   -0.12458E-06  2523   0.170E-03    0.281E-03
RMM:  12    -0.413164188014E+03   -0.70838E-05   -0.21179E-06  2606   0.209E-03    0.124E-03
RMM:  13    -0.413164191624E+03   -0.36100E-05   -0.90429E-07  2458   0.147E-03    0.993E-04
RMM:  14    -0.413164191471E+03    0.15328E-06   -0.38279E-07  2069   0.952E-04
    2 T=    61. E= -.41286645E+03 F= -.41316419E+03 E0= -.41314169E+03  EK= 0.29774E+00 SP= 0.00E+00 SK= 0.00E+00
       N       E                     dE             d eps       ncg     rms          rms(c)
RMM:   1    -0.413166249852E+03   -0.20582E-02   -0.83987E+00  4187   0.596E-01    0.905E-01
RMM:   2    -0.413169424393E+03   -0.31745E-02   -0.10307E-01  4102   0.881E-02    0.651E-01
RMM:   3    -0.413165284771E+03    0.41396E-02   -0.20156E-02  4865   0.510E-02    0.108E-01
RMM:   4    -0.413190178893E+03   -0.24894E-01   -0.26381E-02  5161   0.136E-01    0.662E-01
RMM:   5    -0.413164608547E+03    0.25570E-01   -0.12095E-02  4829   0.110E-01    0.489E-02
RMM:   6    -0.413164793876E+03   -0.18533E-03   -0.23396E-03  5783   0.462E-02    0.349E-02
RMM:   7    -0.413164784503E+03    0.93732E-05   -0.41827E-04  5592   0.197E-02    0.220E-02
RMM:   8    -0.413164773567E+03    0.10936E-04   -0.56731E-05  5026   0.864E-03    0.104E-02
RMM:   9    -0.413164771703E+03    0.18636E-05   -0.11646E-05  3738   0.381E-03    0.779E-03
RMM:  10    -0.413164771575E+03    0.12839E-06   -0.21227E-06  2576   0.238E-03
    3 T=    61. E= -.41286684E+03 F= -.41316477E+03 E0= -.41314228E+03  EK= 0.29793E+00 SP= 0.00E+00 SK= 0.00E+00
       N       E                     dE             d eps       ncg     rms          rms(c)
RMM:   1    -0.413165693101E+03   -0.92140E-03   -0.83371E+00  4219   0.599E-01    0.891E-01
RMM:   2    -0.413168843318E+03   -0.31502E-02   -0.10265E-01  4272   0.853E-02    0.645E-01
RMM:   3    -0.413172157346E+03   -0.33140E-02   -0.25184E-02  5174   0.920E-02    0.371E-01
RMM:   4    -0.413184411172E+03   -0.12254E-01   -0.36750E-02  5097   0.166E-01    0.583E-01
RMM:   5    -0.413164542950E+03    0.19868E-01   -0.70825E-03  4667   0.957E-02    0.584E-02
RMM:   6    -0.413164530703E+03    0.12247E-04   -0.14628E-03  5384   0.390E-02    0.321E-02
RMM:   7    -0.413164547545E+03   -0.16843E-04   -0.31123E-04  5936   0.165E-02    0.189E-02
RMM:   8    -0.413164542421E+03    0.51245E-05   -0.53849E-05  5115   0.867E-03    0.754E-03
RMM:   9    -0.413164540917E+03    0.15043E-05   -0.65960E-06  3233   0.338E-03    0.385E-03
RMM:  10    -0.413164541926E+03   -0.10089E-05   -0.14938E-06  2529   0.208E-03    0.239E-03
RMM:  11    -0.413164543231E+03   -0.13056E-05   -0.11887E-06  2523   0.173E-03    0.134E-03
RMM:  12    -0.413164543955E+03   -0.72362E-06   -0.70758E-07  2464   0.135E-03
    4 T=    61. E= -.41286665E+03 F= -.41316454E+03 E0= -.41314206E+03  EK= 0.29790E+00 SP= 0.00E+00 SK= 0.00E+00
       N       E                     dE             d eps       ncg     rms          rms(c)
RMM:   1    -0.413165668174E+03   -0.11249E-02   -0.84064E+00  4235   0.604E-01    0.886E-01
RMM:   2    -0.413169248465E+03   -0.35803E-02   -0.10395E-01  4065   0.834E-02    0.653E-01
RMM:   3    -0.413165615099E+03    0.36334E-02   -0.21825E-02  4997   0.539E-02    0.141E-01
RMM:   4    -0.413196540063E+03   -0.30925E-01   -0.34378E-02  5138   0.156E-01    0.739E-01
RMM:   5    -0.413164471122E+03    0.32069E-01   -0.14928E-02  4806   0.123E-01    0.510E-02
RMM:   6    -0.413164678006E+03   -0.20688E-03   -0.26658E-03  5738   0.507E-02    0.349E-02
RMM:   7    -0.413164684051E+03   -0.60445E-05   -0.46097E-04  5698   0.204E-02    0.221E-02
RMM:   8    -0.413164679496E+03    0.45543E-05   -0.64915E-05  5183   0.899E-03    0.102E-02
RMM:   9    -0.413164679805E+03   -0.30891E-06   -0.12461E-05  3823   0.399E-03    0.728E-03
RMM:  10    -0.413164683844E+03   -0.40386E-05   -0.21589E-06  2590   0.234E-03    0.438E-03
RMM:  11    -0.413164687188E+03   -0.33437E-05   -0.11996E-06  2526   0.175E-03    0.243E-03
RMM:  12    -0.413164692649E+03   -0.54610E-05   -0.18958E-06  2602   0.199E-03    0.110E-03
RMM:  13    -0.413164694988E+03   -0.23399E-05   -0.66525E-07  2417   0.135E-03    0.827E-04
RMM:  14    -0.413164694779E+03    0.20919E-06   -0.25592E-07  1937   0.872E-04
    5 T=    61. E= -.41286665E+03 F= -.41316469E+03 E0= -.41314222E+03  EK= 0.29804E+00 SP= 0.00E+00 SK= 0.00E+00
       N       E                     dE             d eps       ncg     rms          rms(c)
RMM:   1    -0.413166509323E+03   -0.18143E-02   -0.84108E+00  4246   0.607E-01    0.902E-01
RMM:   2    -0.413169513249E+03   -0.30039E-02   -0.10352E-01  4092   0.833E-02    0.652E-01
RMM:   3    -0.413165724306E+03    0.37889E-02   -0.20383E-02  4920   0.488E-02    0.111E-01
RMM:   4    -0.413191403110E+03   -0.25679E-01   -0.27327E-02  5139   0.138E-01    0.673E-01
RMM:   5    -0.413165000818E+03    0.26402E-01   -0.12501E-02  4809   0.111E-01    0.490E-02
RMM:   6    -0.413165187804E+03   -0.18699E-03   -0.23451E-03  5749   0.465E-02    0.348E-02
RMM:   7    -0.413165180443E+03    0.73602E-05   -0.42080E-04  5606   0.197E-02    0.219E-02
RMM:   8    -0.413165169594E+03    0.10849E-04   -0.57020E-05  5048   0.860E-03    0.103E-02
RMM:   9    -0.413165167877E+03    0.17166E-05   -0.11145E-05  3696   0.379E-03    0.762E-03
RMM:  10    -0.413165168181E+03   -0.30348E-06   -0.20183E-06  2565   0.233E-03
    6 T=    61. E= -.41286683E+03 F= -.41316517E+03 E0= -.41314271E+03  EK= 0.29833E+00 SP= 0.00E+00 SK= 0.00E+00
       N       E                     dE             d eps       ncg     rms          rms(c)
RMM:   1    -0.413166996126E+03   -0.18282E-02   -0.83721E+00  4260   0.626E-01    0.897E-01
RMM:   2    -0.413169320716E+03   -0.23246E-02   -0.10427E-01  4286   0.845E-02    0.646E-01
RMM:   3    -0.413171435688E+03   -0.21150E-02   -0.24113E-02  5148   0.867E-02    0.345E-01
RMM:   4    -0.413186946510E+03   -0.15511E-01   -0.37770E-02  5089   0.167E-01    0.613E-01
RMM:   5    -0.413164888809E+03    0.22058E-01   -0.81268E-03  4673   0.100E-01    0.590E-02
RMM:   6    -0.413164897262E+03   -0.84533E-05   -0.16822E-03  5432   0.412E-02    0.327E-02
RMM:   7    -0.413164915732E+03   -0.18470E-04   -0.33157E-04  5925   0.169E-02    0.194E-02
RMM:   8    -0.413164910158E+03    0.55747E-05   -0.56687E-05  5111   0.889E-03    0.781E-03
RMM:   9    -0.413164907286E+03    0.28718E-05   -0.69776E-06  3249   0.343E-03    0.403E-03
RMM:  10    -0.413164907149E+03    0.13700E-06   -0.16234E-06  2540   0.212E-03
    7 T=    61. E= -.41286649E+03 F= -.41316491E+03 E0= -.41314246E+03  EK= 0.29842E+00 SP= 0.00E+00 SK= 0.00E+00
       N       E                     dE             d eps       ncg     rms          rms(c)
RMM:   1    -0.413166463167E+03   -0.15559E-02   -0.83996E+00  4270   0.616E-01    0.884E-01
RMM:   2    -0.413170370009E+03   -0.39068E-02   -0.10365E-01  4135   0.852E-02    0.651E-01
RMM:   3    -0.413166544402E+03    0.38256E-02   -0.21535E-02  4968   0.569E-02    0.145E-01
RMM:   4    -0.413198580003E+03   -0.32036E-01   -0.35918E-02  5133   0.159E-01    0.752E-01
RMM:   5    -0.413165320818E+03    0.33259E-01   -0.15488E-02  4801   0.125E-01    0.520E-02
RMM:   6    -0.413165517305E+03   -0.19649E-03   -0.27589E-03  5734   0.517E-02    0.352E-02
RMM:   7    -0.413165520950E+03   -0.36450E-05   -0.47607E-04  5729   0.201E-02    0.224E-02
RMM:   8    -0.413165517378E+03    0.35714E-05   -0.64985E-05  5211   0.891E-03    0.102E-02
RMM:   9    -0.413165516962E+03    0.41666E-06   -0.12418E-05  3849   0.396E-03    0.716E-03
RMM:  10    -0.413165519694E+03   -0.27328E-05   -0.21094E-06  2577   0.230E-03    0.431E-03
RMM:  11    -0.413165521770E+03   -0.20756E-05   -0.11188E-06  2527   0.169E-03    0.247E-03
RMM:  12    -0.413165525365E+03   -0.35952E-05   -0.18374E-06  2588   0.197E-03    0.111E-03
RMM:  13    -0.413165526906E+03   -0.15411E-05   -0.73850E-07  2433   0.138E-03    0.916E-04
RMM:  14    -0.413165526657E+03    0.24937E-06   -0.25970E-07  1944   0.886E-04
    8 T=    61. E= -.41286673E+03 F= -.41316553E+03 E0= -.41314310E+03  EK= 0.29880E+00 SP= 0.00E+00 SK= 0.00E+00
       N       E                     dE             d eps       ncg     rms          rms(c)
RMM:   1    -0.413167046799E+03   -0.15199E-02   -0.84337E+00  4279   0.626E-01    0.899E-01
RMM:   2    -0.413170493257E+03   -0.34465E-02   -0.10356E-01  4183   0.862E-02    0.654E-01
RMM:   3    -0.413166311958E+03    0.41813E-02   -0.20851E-02  4883   0.533E-02    0.117E-01
RMM:   4    -0.413193055958E+03   -0.26744E-01   -0.28585E-02  5129   0.141E-01    0.686E-01
RMM:   5    -0.413165518625E+03    0.27537E-01   -0.13090E-02  4806   0.113E-01    0.488E-02
RMM:   6    -0.413165701428E+03   -0.18280E-03   -0.23581E-03  5772   0.471E-02    0.341E-02
RMM:   7    -0.413165697801E+03    0.36273E-05   -0.41681E-04  5622   0.196E-02    0.216E-02
RMM:   8    -0.413165688154E+03    0.96466E-05   -0.59196E-05  5042   0.869E-03    0.102E-02
RMM:   9    -0.413165686377E+03    0.17774E-05   -0.11676E-05  3762   0.386E-03    0.755E-03
RMM:  10    -0.413165686785E+03   -0.40853E-06   -0.19949E-06  2561   0.231E-03
    9 T=    61. E= -.41286666E+03 F= -.41316569E+03 E0= -.41314328E+03  EK= 0.29903E+00 SP= 0.00E+00 SK= 0.00E+00
       N       E                     dE             d eps       ncg     rms          rms(c)
RMM:   1    -0.413167142662E+03   -0.14563E-02   -0.84024E+00  4291   0.626E-01    0.903E-01
RMM:   2    -0.413170333911E+03   -0.31912E-02   -0.10327E-01  4309   0.886E-02    0.648E-01
RMM:   3    -0.413172634206E+03   -0.23003E-02   -0.24556E-02  5134   0.900E-02    0.354E-01
RMM:   4    -0.413186808341E+03   -0.14174E-01   -0.37104E-02  5067   0.166E-01    0.599E-01
RMM:   5    -0.413165736427E+03    0.21072E-01   -0.76276E-03  4659   0.976E-02    0.584E-02
RMM:   6    -0.413165747525E+03   -0.11098E-04   -0.15958E-03  5403   0.401E-02    0.329E-02
RMM:   7    -0.413165760012E+03   -0.12487E-04   -0.32466E-04  5908   0.169E-02    0.193E-02
RMM:   8    -0.413165751737E+03    0.82747E-05   -0.55951E-05  5094   0.886E-03    0.778E-03
RMM:   9    -0.413165747356E+03    0.43808E-05   -0.68762E-06  3217   0.343E-03    0.401E-03
RMM:  10    -0.413165746011E+03    0.13454E-05   -0.15846E-06  2536   0.211E-03    0.249E-03
RMM:  11    -0.413165743882E+03    0.21292E-05   -0.11638E-06  2512   0.172E-03    0.135E-03
RMM:  12    -0.413165741983E+03    0.18987E-05   -0.72280E-07  2458   0.137E-03    0.572E-04
RMM:  13    -0.413165740765E+03    0.12179E-05   -0.37523E-07  2113   0.100E-03    0.334E-04
RMM:  14    -0.413165739553E+03    0.12118E-05   -0.22764E-07  1619   0.794E-04    0.222E-04
RMM:  15    -0.413165737405E+03    0.21483E-05   -0.24841E-07  1595   0.777E-04    0.189E-04
RMM:  16    -0.413165735400E+03    0.20053E-05   -0.18435E-07  1394   0.699E-04    0.155E-04
RMM:  17    -0.413165733660E+03    0.17398E-05   -0.13608E-07  1270   0.647E-04    0.776E-05
RMM:  18    -0.413165732255E+03    0.14049E-05   -0.92773E-08  1063   0.593E-04    0.481E-05
RMM:  19    -0.413165731758E+03    0.49676E-06   -0.41998E-08   818   0.539E-04
   10 T=    61. E= -.41286651E+03 F= -.41316573E+03 E0= -.41314335E+03  EK= 0.29923E+00 SP= 0.00E+00 SK= 0.00E+00
       N       E                     dE             d eps       ncg     rms          rms(c)
RMM:   1    -0.413167415614E+03   -0.16834E-02   -0.83940E+00  4291   0.629E-01    0.884E-01
RMM:   2    -0.413171072520E+03   -0.36569E-02   -0.10371E-01  4233   0.866E-02    0.649E-01
RMM:   3    -0.413167503819E+03    0.35687E-02   -0.21083E-02  4940   0.568E-02    0.142E-01
RMM:   4    -0.413199526403E+03   -0.32023E-01   -0.35811E-02  5123   0.158E-01    0.751E-01
RMM:   5    -0.413166327263E+03    0.33199E-01   -0.15631E-02  4791   0.124E-01    0.517E-02
RMM:   6    -0.413166533334E+03   -0.20607E-03   -0.27180E-03  5717   0.513E-02    0.356E-02
RMM:   7    -0.413166529558E+03    0.37751E-05   -0.46757E-04  5625   0.202E-02    0.222E-02
RMM:   8    -0.413166521579E+03    0.79799E-05   -0.64729E-05  5189   0.917E-03    0.101E-02
RMM:   9    -0.413166520106E+03    0.14723E-05   -0.13193E-05  3896   0.408E-03    0.710E-03
RMM:  10    -0.413166521545E+03   -0.14383E-05   -0.21334E-06  2587   0.235E-03    0.429E-03
RMM:  11    -0.413166522791E+03   -0.12464E-05   -0.10600E-06  2505   0.166E-03    0.245E-03
RMM:  12    -0.413166524864E+03   -0.20733E-05   -0.15924E-06  2545   0.191E-03    0.108E-03
RMM:  13    -0.413166525634E+03   -0.76961E-06   -0.63611E-07  2396   0.133E-03
   11 T=    61. E= -.41286683E+03 F= -.41316653E+03 E0= -.41314417E+03  EK= 0.29970E+00 SP= 0.00E+00 SK= 0.00E+00
       N       E                     dE             d eps       ncg     rms          rms(c)
RMM:   1    -0.413167578000E+03   -0.10531E-02   -0.84617E+00  4292   0.634E-01    0.895E-01
RMM:   2    -0.413171004566E+03   -0.34266E-02   -0.10437E-01  4225   0.863E-02    0.656E-01
RMM:   3    -0.413167154901E+03    0.38497E-02   -0.21246E-02  4858   0.540E-02    0.123E-01
RMM:   4    -0.413195060521E+03   -0.27906E-01   -0.30241E-02  5124   0.145E-01    0.701E-01
RMM:   5    -0.413166261761E+03    0.28799E-01   -0.13693E-02  4795   0.116E-01    0.492E-02
RMM:   6    -0.413166460023E+03   -0.19826E-03   -0.24749E-03  5764   0.480E-02    0.338E-02
RMM:   7    -0.413166460260E+03   -0.23772E-06   -0.41663E-04  5648   0.196E-02    0.216E-02
RMM:   8    -0.413166450902E+03    0.93588E-05   -0.62763E-05  5036   0.880E-03    0.104E-02
RMM:   9    -0.413166449028E+03    0.18740E-05   -0.12253E-05  3843   0.398E-03    0.766E-03
RMM:  10    -0.413166449936E+03   -0.90853E-06   -0.20234E-06  2568   0.233E-03
   12 T=    61. E= -.41286648E+03 F= -.41316645E+03 E0= -.41314412E+03  EK= 0.29997E+00 SP= 0.00E+00 SK= 0.00E+00
       N       E                     dE             d eps       ncg     rms          rms(c)
RMM:   1    -0.413168542425E+03   -0.20934E-02   -0.84470E+00  4304   0.640E-01    0.908E-01
RMM:   2    -0.413171245045E+03   -0.27026E-02   -0.10399E-01  4308   0.849E-02    0.651E-01
RMM:   3    -0.413174184615E+03   -0.29396E-02   -0.24754E-02  5140   0.889E-02    0.360E-01
RMM:   4    -0.413187905886E+03   -0.13721E-01   -0.37514E-02  5070   0.166E-01    0.596E-01
RMM:   5    -0.413167065829E+03    0.20840E-01   -0.75623E-03  4651   0.972E-02    0.584E-02
RMM:   6    -0.413167070122E+03   -0.42932E-05   -0.15874E-03  5395   0.397E-02    0.330E-02
RMM:   7    -0.413167081199E+03   -0.11077E-04   -0.31863E-04  5886   0.166E-02    0.193E-02
RMM:   8    -0.413167073995E+03    0.72042E-05   -0.55496E-05  5104   0.873E-03    0.776E-03
RMM:   9    -0.413167069206E+03    0.47887E-05   -0.65831E-06  3205   0.339E-03    0.400E-03
RMM:  10    -0.413167067196E+03    0.20097E-05   -0.15464E-06  2526   0.209E-03    0.250E-03
RMM:  11    -0.413167064114E+03    0.30819E-05   -0.11567E-06  2509   0.171E-03    0.136E-03
RMM:  12    -0.413167061439E+03    0.26752E-05   -0.67582E-07  2452   0.135E-03    0.582E-04
RMM:  13    -0.413167059683E+03    0.17565E-05   -0.35508E-07  2089   0.988E-04    0.342E-04
RMM:  14    -0.413167058051E+03    0.16313E-05   -0.20917E-07  1600   0.781E-04    0.226E-04
RMM:  15    -0.413167054975E+03    0.30765E-05   -0.22439E-07  1580   0.771E-04    0.196E-04
RMM:  16    -0.413167052496E+03    0.24787E-05   -0.15421E-07  1291   0.676E-04    0.144E-04
RMM:  17    -0.413167050246E+03    0.22504E-05   -0.12069E-07  1252   0.647E-04    0.761E-05
RMM:  18    -0.413167048935E+03    0.13108E-05   -0.70315E-08  1024   0.579E-04    0.506E-05
RMM:  19    -0.413167047922E+03    0.10133E-05   -0.42185E-08   834   0.546E-04    0.448E-05
RMM:  20    -0.413167047793E+03    0.12862E-06   -0.18048E-08   696   0.522E-04
   13 T=    61. E= -.41286655E+03 F= -.41316705E+03 E0= -.41314475E+03  EK= 0.30050E+00 SP= 0.00E+00 SK= 0.00E+00
       N       E                     dE             d eps       ncg     rms          rms(c)
RMM:   1    -0.413168954222E+03   -0.19063E-02   -0.84105E+00  4294   0.650E-01    0.887E-01
RMM:   2    -0.413172134010E+03   -0.31798E-02   -0.10398E-01  4233   0.838E-02    0.648E-01
RMM:   3    -0.413168695342E+03    0.34387E-02   -0.20663E-02  4989   0.533E-02    0.143E-01
RMM:   4    -0.413201461523E+03   -0.32766E-01   -0.36975E-02  5125   0.160E-01    0.759E-01
RMM:   5    -0.413167510020E+03    0.33952E-01   -0.16023E-02  4790   0.126E-01    0.523E-02
RMM:   6    -0.413167710827E+03   -0.20081E-03   -0.27890E-03  5733   0.517E-02    0.360E-02
RMM:   7    -0.413167705363E+03    0.54638E-05   -0.47670E-04  5627   0.204E-02    0.227E-02
RMM:   8    -0.413167696795E+03    0.85685E-05   -0.67435E-05  5209   0.920E-03    0.104E-02
RMM:   9    -0.413167693758E+03    0.30365E-05   -0.13043E-05  3914   0.409E-03    0.725E-03
RMM:  10    -0.413167693753E+03    0.54279E-08   -0.21429E-06  2579   0.231E-03
   14 T=    61. E= -.41286664E+03 F= -.41316769E+03 E0= -.41314542E+03  EK= 0.30105E+00 SP= 0.00E+00 SK= 0.00E+00
       N       E                     dE             d eps       ncg     rms          rms(c)
RMM:   1    -0.413168778197E+03   -0.10844E-02   -0.84999E+00  4301   0.648E-01    0.893E-01
RMM:   2    -0.413172602046E+03   -0.38238E-02   -0.10494E-01  4319   0.859E-02    0.657E-01
RMM:   3    -0.413175705309E+03   -0.31033E-02   -0.26888E-02  5131   0.942E-02    0.380E-01
RMM:   4    -0.413189167354E+03   -0.13462E-01   -0.39527E-02  5062   0.171E-01    0.605E-01
RMM:   5    -0.413167708083E+03    0.21459E-01   -0.78238E-03  4643   0.993E-02    0.573E-02
RMM:   6    -0.413167718034E+03   -0.99503E-05   -0.15849E-03  5384   0.395E-02    0.315E-02
RMM:   7    -0.413167733680E+03   -0.15646E-04   -0.31414E-04  5912   0.164E-02    0.187E-02
RMM:   8    -0.413167731436E+03    0.22438E-05   -0.55855E-05  5113   0.867E-03    0.752E-03
RMM:   9    -0.413167729893E+03    0.15429E-05   -0.64610E-06  3173   0.337E-03    0.387E-03
RMM:  10    -0.413167730953E+03   -0.10603E-05   -0.14662E-06  2510   0.205E-03    0.240E-03
RMM:  11    -0.413167732275E+03   -0.13214E-05   -0.11510E-06  2506   0.168E-03    0.132E-03
RMM:  12    -0.413167732780E+03   -0.50522E-06   -0.65435E-07  2445   0.132E-03
   15 T=    61. E= -.41286632E+03 F= -.41316773E+03 E0= -.41314550E+03  EK= 0.30141E+00 SP= 0.00E+00 SK= 0.00E+00
       N       E                     dE             d eps       ncg     rms          rms(c)
RMM:   1    -0.413170555387E+03   -0.28231E-02   -0.84959E+00  4295   0.669E-01    0.910E-01
RMM:   2    -0.413173470649E+03   -0.29153E-02   -0.10461E-01  4262   0.892E-02    0.653E-01
RMM:   3    -0.413169801906E+03    0.36687E-02   -0.20306E-02  4953   0.572E-02    0.144E-01
RMM:   4    -0.413203623159E+03   -0.33821E-01   -0.38075E-02  5120   0.163E-01    0.770E-01
RMM:   5    -0.413168598595E+03    0.35025E-01   -0.16481E-02  4786   0.127E-01    0.531E-02
RMM:   6    -0.413168805045E+03   -0.20645E-03   -0.29198E-03  5753   0.528E-02    0.372E-02
RMM:   7    -0.413168791093E+03    0.13952E-04   -0.49619E-04  5674   0.209E-02    0.235E-02
RMM:   8    -0.413168779233E+03    0.11860E-04   -0.70930E-05  5194   0.940E-03    0.110E-02
RMM:   9    -0.413168773377E+03    0.58554E-05   -0.13430E-05  3944   0.418E-03    0.767E-03
RMM:  10    -0.413168769446E+03    0.39315E-05   -0.22558E-06  2592   0.240E-03    0.457E-03
RMM:  11    -0.413168766868E+03    0.25780E-05   -0.11676E-06  2510   0.175E-03    0.263E-03
RMM:  12    -0.413168761765E+03    0.51023E-05   -0.18412E-06  2578   0.205E-03    0.117E-03
RMM:  13    -0.413168758640E+03    0.31250E-05   -0.69286E-07  2415   0.142E-03    0.944E-04
RMM:  14    -0.413168758691E+03   -0.50670E-07   -0.27273E-07  2009   0.919E-04
   16 T=    62. E= -.41286667E+03 F= -.41316876E+03 E0= -.41314656E+03  EK= 0.30209E+00 SP= 0.00E+00 SK= 0.00E+00
       N       E                     dE             d eps       ncg     rms          rms(c)
RMM:   1    -0.413170277003E+03   -0.15184E-02   -0.84393E+00  4296   0.660E-01    0.892E-01
RMM:   2    -0.413173910855E+03   -0.36339E-02   -0.10431E-01  4268   0.913E-02    0.648E-01
RMM:   3    -0.413170005689E+03    0.39052E-02   -0.20155E-02  4880   0.554E-02    0.128E-01
RMM:   4    -0.413200601920E+03   -0.30596E-01   -0.33540E-02  5118   0.153E-01    0.733E-01
RMM:   5    -0.413169042720E+03    0.31559E-01   -0.15009E-02  4787   0.121E-01    0.509E-02
RMM:   6    -0.413169243346E+03   -0.20063E-03   -0.26993E-03  5772   0.499E-02    0.354E-02
RMM:   7    -0.413169234300E+03    0.90466E-05   -0.44740E-04  5620   0.202E-02    0.224E-02
RMM:   8    -0.413169221653E+03    0.12647E-04   -0.66585E-05  5099   0.919E-03    0.107E-02
RMM:   9    -0.413169216806E+03    0.48465E-05   -0.13187E-05  3914   0.413E-03    0.777E-03
RMM:  10    -0.413169214135E+03    0.26718E-05   -0.21593E-06  2581   0.238E-03    0.463E-03
RMM:  11    -0.413169212275E+03    0.18594E-05   -0.12157E-06  2509   0.179E-03    0.260E-03
RMM:  12    -0.413169208954E+03    0.33211E-05   -0.17717E-06  2566   0.203E-03    0.115E-03
RMM:  13    -0.413169207066E+03    0.18883E-05   -0.60249E-07  2387   0.136E-03    0.855E-04
RMM:  14    -0.413169207004E+03    0.62264E-07   -0.25390E-07  1974   0.884E-04
   17 T=    62. E= -.41286660E+03 F= -.41316921E+03 E0= -.41314705E+03  EK= 0.30261E+00 SP= 0.00E+00 SK= 0.00E+00
       N       E                     dE             d eps       ncg     rms          rms(c)
RMM:   1    -0.413170721856E+03   -0.15148E-02   -0.85336E+00  4296   0.661E-01    0.892E-01
RMM:   2    -0.413174474048E+03   -0.37522E-02   -0.10574E-01  4271   0.903E-02    0.658E-01
RMM:   3    -0.413170636515E+03    0.38375E-02   -0.21726E-02  4918   0.562E-02    0.135E-01
RMM:   4    -0.413201228585E+03   -0.30592E-01   -0.33908E-02  5117   0.154E-01    0.734E-01
RMM:   5    -0.413169556475E+03    0.31672E-01   -0.15132E-02  4785   0.122E-01    0.504E-02
RMM:   6    -0.413169757445E+03   -0.20097E-03   -0.26431E-03  5771   0.498E-02    0.344E-02
RMM:   7    -0.413169758079E+03   -0.63403E-06   -0.43979E-04  5621   0.200E-02    0.219E-02
RMM:   8    -0.413169749725E+03    0.83542E-05   -0.65842E-05  5102   0.912E-03    0.104E-02
RMM:   9    -0.413169746924E+03    0.28004E-05   -0.12902E-05  3903   0.413E-03    0.743E-03
RMM:  10    -0.413169747244E+03   -0.32024E-06   -0.20762E-06  2571   0.235E-03
   18 T=    62. E= -.41286651E+03 F= -.41316975E+03 E0= -.41314763E+03  EK= 0.30324E+00 SP= 0.00E+00 SK= 0.00E+00
       N       E                     dE             d eps       ncg     rms          rms(c)
RMM:   1    -0.413173601049E+03   -0.38541E-02   -0.85560E+00  4301   0.685E-01    0.910E-01
RMM:   2    -0.413175309613E+03   -0.17086E-02   -0.10892E-01  4330   0.910E-02    0.657E-01
RMM:   3    -0.413178025874E+03   -0.27163E-02   -0.24736E-02  5126   0.900E-02    0.359E-01
RMM:   4    -0.413193335990E+03   -0.15310E-01   -0.39579E-02  5068   0.170E-01    0.617E-01
RMM:   5    -0.413170911664E+03    0.22424E-01   -0.82605E-03  4659   0.100E-01    0.586E-02
RMM:   6    -0.413170922400E+03   -0.10737E-04   -0.17092E-03  5428   0.407E-02    0.329E-02
RMM:   7    -0.413170936050E+03   -0.13649E-04   -0.33012E-04  5879   0.173E-02    0.196E-02
RMM:   8    -0.413170927739E+03    0.83113E-05   -0.59605E-05  5101   0.901E-03    0.791E-03
RMM:   9    -0.413170922175E+03    0.55632E-05   -0.75065E-06  3280   0.354E-03    0.408E-03
RMM:  10    -0.413170919849E+03    0.23259E-05   -0.16146E-06  2533   0.212E-03    0.258E-03
RMM:  11    -0.413170916192E+03    0.36571E-05   -0.11365E-06  2499   0.173E-03    0.141E-03
RMM:  12    -0.413170912866E+03    0.33259E-05   -0.66808E-07  2448   0.136E-03    0.576E-04
RMM:  13    -0.413170910760E+03    0.21058E-05   -0.34342E-07  2109   0.992E-04    0.337E-04
RMM:  14    -0.413170908870E+03    0.18907E-05   -0.19169E-07  1580   0.773E-04    0.227E-04
RMM:  15    -0.413170905138E+03    0.37313E-05   -0.18780E-07  1466   0.746E-04    0.176E-04
RMM:  16    -0.413170902328E+03    0.28107E-05   -0.11983E-07  1202   0.659E-04    0.142E-04
RMM:  17    -0.413170899181E+03    0.31466E-05   -0.11156E-07  1262   0.653E-04    0.755E-05
RMM:  18    -0.413170897271E+03    0.19106E-05   -0.64511E-08  1004   0.589E-04    0.504E-05
RMM:  19    -0.413170896173E+03    0.10973E-05   -0.36816E-08   864   0.555E-04    0.370E-05
RMM:  20    -0.413170895910E+03    0.26334E-06   -0.17128E-08   715   0.529E-04
   19 T=    62. E= -.41286674E+03 F= -.41317090E+03 E0= -.41314882E+03  EK= 0.30416E+00 SP= 0.00E+00 SK= 0.00E+00
       N       E                     dE             d eps       ncg     rms          rms(c)
RMM:   1    -0.413172784782E+03   -0.18886E-02   -0.85058E+00  4295   0.688E-01    0.900E-01
RMM:   2    -0.413175506001E+03   -0.27212E-02   -0.10586E-01  4257   0.855E-02    0.650E-01
RMM:   3    -0.413172324193E+03    0.31818E-02   -0.20063E-02  5003   0.527E-02    0.145E-01
RMM:   4    -0.413206428208E+03   -0.34104E-01   -0.38790E-02  5124   0.164E-01    0.773E-01
RMM:   5    -0.413171121962E+03    0.35306E-01   -0.16752E-02  4783   0.128E-01    0.535E-02
RMM:   6    -0.413171325903E+03   -0.20394E-03   -0.29582E-03  5740   0.526E-02    0.371E-02
RMM:   7    -0.413171314459E+03    0.11444E-04   -0.49582E-04  5641   0.209E-02    0.234E-02
RMM:   8    -0.413171302509E+03    0.11950E-04   -0.72350E-05  5203   0.959E-03    0.109E-02
RMM:   9    -0.413171296695E+03    0.58135E-05   -0.14035E-05  4016   0.427E-03    0.752E-03
RMM:  10    -0.413171293307E+03    0.33876E-05   -0.22750E-06  2593   0.239E-03    0.454E-03
RMM:  11    -0.413171291276E+03    0.20315E-05   -0.10567E-06  2499   0.168E-03    0.272E-03
RMM:  12    -0.413171287042E+03    0.42338E-05   -0.17384E-06  2554   0.204E-03    0.121E-03
RMM:  13    -0.413171284470E+03    0.25724E-05   -0.70867E-07  2409   0.143E-03    0.961E-04
RMM:  14    -0.413171284372E+03    0.98054E-07   -0.28091E-07  2040   0.934E-04
   20 T=    62. E= -.41286642E+03 F= -.41317128E+03 E0= -.41314925E+03  EK= 0.30486E+00 SP= 0.00E+00 SK= 0.00E+00
       N       E                     dE             d eps       ncg     rms          rms(c)
RMM:   1    -0.413173270423E+03   -0.19860E-02   -0.85755E+00  4295   0.672E-01    0.892E-01
RMM:   2    -0.413177096799E+03   -0.38264E-02   -0.10647E-01  4264   0.860E-02    0.658E-01
RMM:   3    -0.413173040309E+03    0.40565E-02   -0.21424E-02  4897   0.519E-02    0.120E-01
RMM:   4    -0.413200078473E+03   -0.27038E-01   -0.29325E-02  5116   0.143E-01    0.690E-01
RMM:   5    -0.413172215540E+03    0.27863E-01   -0.13432E-02  4791   0.114E-01    0.486E-02
RMM:   6    -0.413172378093E+03   -0.16255E-03   -0.23702E-03  5812   0.464E-02    0.324E-02
RMM:   7    -0.413172380307E+03   -0.22134E-05   -0.37181E-04  5613   0.190E-02    0.204E-02
RMM:   8    -0.413172372904E+03    0.74034E-05   -0.64900E-05  4994   0.896E-03    0.104E-02
RMM:   9    -0.413172369643E+03    0.32610E-05   -0.12606E-05  3884   0.410E-03    0.761E-03
RMM:  10    -0.413172369446E+03    0.19657E-06   -0.19541E-06  2555   0.230E-03
   21 T=    62. E= -.41286652E+03 F= -.41317237E+03 E0= -.41315038E+03  EK= 0.30585E+00 SP= 0.00E+00 SK= 0.00E+00
       N       E                     dE             d eps       ncg     rms          rms(c)
RMM:   1    -0.413174898561E+03   -0.25289E-02   -0.86133E+00  4300   0.684E-01    0.909E-01
RMM:   2    -0.413178228193E+03   -0.33296E-02   -0.10650E-01  4338   0.873E-02    0.660E-01
RMM:   3    -0.413179665945E+03   -0.14378E-02   -0.24661E-02  5122   0.860E-02    0.335E-01
RMM:   4    -0.413198406478E+03   -0.18741E-01   -0.40966E-02  5078   0.172E-01    0.651E-01
RMM:   5    -0.413173448602E+03    0.24958E-01   -0.94836E-03  4675   0.106E-01    0.577E-02
RMM:   6    -0.413173500234E+03   -0.51632E-04   -0.19473E-03  5504   0.430E-02    0.331E-02
RMM:   7    -0.413173507715E+03   -0.74816E-05   -0.35626E-04  5851   0.173E-02    0.202E-02
RMM:   8    -0.413173501958E+03    0.57573E-05   -0.59745E-05  5090   0.900E-03    0.821E-03
RMM:   9    -0.413173496691E+03    0.52671E-05   -0.78113E-06  3304   0.356E-03    0.434E-03
RMM:  10    -0.413173494313E+03    0.23779E-05   -0.17963E-06  2541   0.216E-03    0.272E-03
RMM:  11    -0.413173491296E+03    0.30167E-05   -0.10319E-06  2484   0.168E-03    0.140E-03
RMM:  12    -0.413173487687E+03    0.36090E-05   -0.71573E-07  2452   0.138E-03    0.537E-04
RMM:  13    -0.413173485642E+03    0.20456E-05   -0.35730E-07  2147   0.101E-03    0.329E-04
RMM:  14    -0.413173484101E+03    0.15409E-05   -0.19302E-07  1634   0.774E-04    0.229E-04
RMM:  15    -0.413173480835E+03    0.32654E-05   -0.15913E-07  1405   0.724E-04    0.163E-04
RMM:  16    -0.413173477800E+03    0.30352E-05   -0.11693E-07  1248   0.667E-04    0.170E-04
RMM:  17    -0.413173475477E+03    0.23227E-05   -0.76015E-08  1048   0.613E-04    0.848E-05
RMM:  18    -0.413173472754E+03    0.27232E-05   -0.70876E-08  1079   0.611E-04    0.346E-05
RMM:  19    -0.413173471484E+03    0.12703E-05   -0.37008E-08   895   0.568E-04    0.302E-05
RMM:  20    -0.413173471026E+03    0.45753E-06   -0.17393E-08   741   0.543E-04
   22 T=    62. E= -.41286661E+03 F= -.41317347E+03 E0= -.41315153E+03  EK= 0.30686E+00 SP= 0.00E+00 SK= 0.00E+00
       N       E                     dE             d eps       ncg     rms          rms(c)
RMM:   1    -0.413175622828E+03   -0.21513E-02   -0.85928E+00  4292   0.692E-01    0.910E-01
RMM:   2    -0.413178824635E+03   -0.32018E-02   -0.10631E-01  4290   0.913E-02    0.654E-01
RMM:   3    -0.413175092647E+03    0.37320E-02   -0.20036E-02  4939   0.557E-02    0.138E-01
RMM:   4    -0.413208725025E+03   -0.33632E-01   -0.37585E-02  5121   0.161E-01    0.767E-01
RMM:   5    -0.413173993094E+03    0.34732E-01   -0.16590E-02  4786   0.127E-01    0.530E-02
RMM:   6    -0.413174203724E+03   -0.21063E-03   -0.29364E-03  5768   0.525E-02    0.372E-02
RMM:   7    -0.413174193871E+03    0.98523E-05   -0.48694E-04  5625   0.210E-02    0.234E-02
RMM:   8    -0.413174181014E+03    0.12858E-04   -0.73992E-05  5186   0.963E-03    0.112E-02
RMM:   9    -0.413174174246E+03    0.67675E-05   -0.14099E-05  4031   0.430E-03    0.785E-03
RMM:  10    -0.413174169571E+03    0.46755E-05   -0.22745E-06  2592   0.241E-03    0.472E-03
RMM:  11    -0.413174166582E+03    0.29883E-05   -0.11350E-06  2502   0.174E-03    0.278E-03
RMM:  12    -0.413174160668E+03    0.59146E-05   -0.18710E-06  2575   0.209E-03    0.124E-03
RMM:  13    -0.413174156994E+03    0.36738E-05   -0.70329E-07  2406   0.144E-03    0.101E-03
RMM:  14    -0.413174157147E+03   -0.15321E-06   -0.27945E-07  2040   0.930E-04
   23 T=    63. E= -.41286641E+03 F= -.41317416E+03 E0= -.41315226E+03  EK= 0.30775E+00 SP= 0.00E+00 SK= 0.00E+00
       N       E                     dE             d eps       ncg     rms          rms(c)
RMM:   1    -0.413176678798E+03   -0.25218E-02   -0.86239E+00  4293   0.690E-01    0.894E-01
RMM:   2    -0.413180829658E+03   -0.41509E-02   -0.10728E-01  4287   0.906E-02    0.658E-01
RMM:   3    -0.413176312228E+03    0.45174E-02   -0.21002E-02  4821   0.536E-02    0.109E-01
RMM:   4    -0.413200634837E+03   -0.24323E-01   -0.25858E-02  5114   0.134E-01    0.654E-01
RMM:   5    -0.413175630634E+03    0.25004E-01   -0.12138E-02  4798   0.108E-01    0.476E-02
RMM:   6    -0.413175784805E+03   -0.15417E-03   -0.21975E-03  5825   0.438E-02    0.307E-02
RMM:   7    -0.413175785927E+03   -0.11221E-05   -0.29236E-04  5663   0.172E-02    0.176E-02
RMM:   8    -0.413175779149E+03    0.67780E-05   -0.59864E-05  4983   0.822E-03    0.106E-02
RMM:   9    -0.413175774236E+03    0.49131E-05   -0.11616E-05  3888   0.399E-03    0.774E-03
RMM:  10    -0.413175772542E+03    0.16943E-05   -0.18766E-06  2553   0.231E-03    0.455E-03
RMM:  11    -0.413175771113E+03    0.14290E-05   -0.14662E-06  2522   0.194E-03    0.241E-03
RMM:  12    -0.413175768882E+03    0.22304E-05   -0.14731E-06  2515   0.190E-03    0.105E-03
RMM:  13    -0.413175767820E+03    0.10627E-05   -0.50165E-07  2313   0.125E-03    0.664E-04
RMM:  14    -0.413175767436E+03    0.38322E-06   -0.23019E-07  1849   0.847E-04
   24 T=    63. E= -.41286681E+03 F= -.41317577E+03 E0= -.41315392E+03  EK= 0.30896E+00 SP= 0.00E+00 SK= 0.00E+00
       N       E                     dE             d eps       ncg     rms          rms(c)
RMM:   1    -0.413177964702E+03   -0.21969E-02   -0.86963E+00  4296   0.695E-01    0.908E-01
RMM:   2    -0.413181691486E+03   -0.37268E-02   -0.10807E-01  4291   0.920E-02    0.664E-01
RMM:   3    -0.413177580731E+03    0.41108E-02   -0.21116E-02  4893   0.580E-02    0.129E-01
RMM:   4    -0.413208782428E+03   -0.31202E-01   -0.34157E-02  5115   0.154E-01    0.739E-01
RMM:   5    -0.413176605242E+03    0.32177E-01   -0.15347E-02  4790   0.122E-01    0.513E-02
RMM:   6    -0.413176800979E+03   -0.19574E-03   -0.27767E-03  5784   0.505E-02    0.355E-02
RMM:   7    -0.413176791753E+03    0.92266E-05   -0.45692E-04  5613   0.204E-02    0.226E-02
RMM:   8    -0.413176777483E+03    0.14270E-04   -0.69137E-05  5085   0.958E-03    0.109E-02
RMM:   9    -0.413176772369E+03    0.51137E-05   -0.13811E-05  3955   0.425E-03    0.778E-03
RMM:  10    -0.413176769590E+03    0.27798E-05   -0.21822E-06  2585   0.238E-03    0.465E-03
RMM:  11    -0.413176767638E+03    0.19516E-05   -0.12002E-06  2499   0.179E-03    0.261E-03
RMM:  12    -0.413176764096E+03    0.35416E-05   -0.17745E-06  2550   0.203E-03    0.116E-03
RMM:  13    -0.413176761744E+03    0.23521E-05   -0.60225E-07  2382   0.136E-03    0.897E-04
RMM:  14    -0.413176761795E+03   -0.50641E-07   -0.25930E-07  1962   0.889E-04
   25 T=    63. E= -.41286673E+03 F= -.41317676E+03 E0= -.41315496E+03  EK= 0.31004E+00 SP= 0.00E+00 SK= 0.00E+00
       N       E                     dE             d eps       ncg     rms          rms(c)
RMM:   1    -0.413179674144E+03   -0.29124E-02   -0.86953E+00  4294   0.709E-01    0.919E-01
RMM:   2    -0.413182666464E+03   -0.29923E-02   -0.10826E-01  4283   0.943E-02    0.659E-01
RMM:   3    -0.413178727379E+03    0.39391E-02   -0.19854E-02  4835   0.568E-02    0.119E-01
RMM:   4    -0.413208364811E+03   -0.29637E-01   -0.31888E-02  5118   0.148E-01    0.719E-01
RMM:   5    -0.413177948192E+03    0.30417E-01   -0.14752E-02  4793   0.119E-01    0.510E-02
RMM:   6    -0.413178120710E+03   -0.17252E-03   -0.26644E-03  5806   0.491E-02    0.349E-02
RMM:   7    -0.413178113335E+03    0.73750E-05   -0.41269E-04  5616   0.199E-02    0.216E-02
RMM:   8    -0.413178098515E+03    0.14820E-04   -0.72770E-05  5055   0.937E-03    0.114E-02
RMM:   9    -0.413178091059E+03    0.74555E-05   -0.13917E-05  4066   0.430E-03    0.824E-03
RMM:  10    -0.413178085395E+03    0.56648E-05   -0.21806E-06  2584   0.239E-03    0.491E-03
RMM:  11    -0.413178080961E+03    0.44335E-05   -0.13174E-06  2517   0.185E-03    0.279E-03
RMM:  12    -0.413178073158E+03    0.78031E-05   -0.18757E-06  2570   0.211E-03    0.121E-03
RMM:  13    -0.413178068519E+03    0.46395E-05   -0.61445E-07  2393   0.138E-03    0.893E-04
RMM:  14    -0.413178068805E+03   -0.28618E-06   -0.26657E-07  1962   0.898E-04
   26 T=    63. E= -.41286671E+03 F= -.41317807E+03 E0= -.41315632E+03  EK= 0.31136E+00 SP= 0.00E+00 SK= 0.00E+00
       N       E                     dE             d eps       ncg     rms          rms(c)
RMM:   1    -0.413181220068E+03   -0.31515E-02   -0.86955E+00  4296   0.715E-01    0.899E-01
RMM:   2    -0.413184516010E+03   -0.32959E-02   -0.10888E-01  4285   0.940E-02    0.659E-01
RMM:   3    -0.413180519776E+03    0.39962E-02   -0.20541E-02  4866   0.546E-02    0.112E-01
RMM:   4    -0.413207160007E+03   -0.26640E-01   -0.28462E-02  5124   0.141E-01    0.684E-01
RMM:   5    -0.413179809879E+03    0.27350E-01   -0.13331E-02  4794   0.113E-01    0.489E-02
RMM:   6    -0.413179958008E+03   -0.14813E-03   -0.23871E-03  5821   0.464E-02    0.323E-02
RMM:   7    -0.413179957638E+03    0.37006E-06   -0.35181E-04  5645   0.186E-02    0.196E-02
RMM:   8    -0.413179948297E+03    0.93404E-05   -0.67705E-05  4999   0.884E-03    0.109E-02
RMM:   9    -0.413179942511E+03    0.57866E-05   -0.12817E-05  4023   0.418E-03    0.792E-03
RMM:  10    -0.413179939478E+03    0.30331E-05   -0.19883E-06  2563   0.233E-03    0.470E-03
RMM:  11    -0.413179936920E+03    0.25571E-05   -0.13771E-06  2519   0.188E-03    0.257E-03
RMM:  12    -0.413179932752E+03    0.41686E-05   -0.16544E-06  2544   0.197E-03    0.111E-03
RMM:  13    -0.413179930421E+03    0.23306E-05   -0.52314E-07  2336   0.129E-03    0.720E-04
RMM:  14    -0.413179930261E+03    0.16001E-06   -0.23819E-07  1865   0.855E-04
   27 T=    64. E= -.41286693E+03 F= -.41317993E+03 E0= -.41315823E+03  EK= 0.31300E+00 SP= 0.00E+00 SK= 0.00E+00
       N       E                     dE             d eps       ncg     rms          rms(c)
RMM:   1    -0.413182063920E+03   -0.21335E-02   -0.88060E+00  4298   0.711E-01    0.909E-01
RMM:   2    -0.413185756293E+03   -0.36924E-02   -0.11023E-01  4283   0.957E-02    0.669E-01
RMM:   3    -0.413181538499E+03    0.42178E-02   -0.21499E-02  4816   0.552E-02    0.109E-01
RMM:   4    -0.413206304336E+03   -0.24766E-01   -0.26211E-02  5130   0.135E-01    0.660E-01
RMM:   5    -0.413180864657E+03    0.25440E-01   -0.12488E-02  4802   0.109E-01    0.480E-02
RMM:   6    -0.413181009433E+03   -0.14478E-03   -0.22224E-03  5829   0.448E-02    0.318E-02
RMM:   7    -0.413181010290E+03   -0.85628E-06   -0.32988E-04  5631   0.182E-02    0.190E-02
RMM:   8    -0.413181002067E+03    0.82221E-05   -0.62516E-05  4981   0.860E-03    0.106E-02
RMM:   9    -0.413180997088E+03    0.49794E-05   -0.11949E-05  3910   0.407E-03    0.772E-03
RMM:  10    -0.413180994978E+03    0.21099E-05   -0.19549E-06  2560   0.233E-03    0.453E-03
RMM:  11    -0.413180993094E+03    0.18844E-05   -0.13530E-06  2520   0.187E-03    0.243E-03
RMM:  12    -0.413180990083E+03    0.30111E-05   -0.15295E-06  2522   0.192E-03    0.107E-03
RMM:  13    -0.413180988258E+03    0.18247E-05   -0.50826E-07  2320   0.126E-03    0.684E-04
RMM:  14    -0.413180987997E+03    0.26105E-06   -0.23188E-07  1843   0.845E-04
   28 T=    64. E= -.41286654E+03 F= -.41318099E+03 E0= -.41315934E+03  EK= 0.31445E+00 SP= 0.00E+00 SK= 0.00E+00
       N       E                     dE             d eps       ncg     rms          rms(c)
RMM:   1    -0.413185855992E+03   -0.48677E-02   -0.88364E+00  4292   0.753E-01    0.927E-01
RMM:   2    -0.413187719206E+03   -0.18632E-02   -0.11185E-01  4280   0.100E-01    0.666E-01
RMM:   3    -0.413183298296E+03    0.44209E-02   -0.19883E-02  4677   0.513E-02    0.866E-02
RMM:   4    -0.413199305859E+03   -0.16008E-01   -0.16403E-02  5138   0.107E-01    0.533E-01
RMM:   5    -0.413182981418E+03    0.16324E-01   -0.82036E-03  4822   0.876E-02    0.456E-02
RMM:   6    -0.413183063068E+03   -0.81650E-04   -0.14854E-03  5842   0.359E-02    0.283E-02
RMM:   7    -0.413183059994E+03    0.30741E-05   -0.17736E-04  5484   0.144E-02    0.138E-02
RMM:   8    -0.413183050597E+03    0.93975E-05   -0.26923E-05  4572   0.564E-03    0.854E-03
RMM:   9    -0.413183048382E+03    0.22150E-05   -0.76729E-06  3441   0.320E-03    0.681E-03
RMM:  10    -0.413183042927E+03    0.54547E-05   -0.14659E-06  2518   0.216E-03    0.376E-03
RMM:  11    -0.413183037347E+03    0.55804E-05   -0.14466E-06  2526   0.191E-03    0.197E-03
RMM:  12    -0.413183030942E+03    0.64052E-05   -0.10391E-06  2479   0.165E-03    0.967E-04
RMM:  13    -0.413183028790E+03    0.21514E-05   -0.37355E-07  2204   0.108E-03    0.574E-04
RMM:  14    -0.413183027645E+03    0.11448E-05   -0.17081E-07  1634   0.762E-04    0.450E-04
RMM:  15    -0.413183022309E+03    0.53364E-05   -0.21430E-07  2140   0.837E-04    0.495E-04
RMM:  16    -0.413183019414E+03    0.28948E-05   -0.79102E-08  1212   0.615E-04    0.369E-04
RMM:  17    -0.413183016646E+03    0.27680E-05   -0.41029E-08   874   0.549E-04    0.276E-04
RMM:  18    -0.413183012710E+03    0.39366E-05   -0.62900E-08  1096   0.608E-04    0.625E-05
RMM:  19    -0.413183010740E+03    0.19696E-05   -0.31963E-08   924   0.570E-04    0.125E-04
RMM:  20    -0.413183010587E+03    0.15352E-06   -0.96344E-09   665   0.526E-04
   29 T=    64. E= -.41286679E+03 F= -.41318301E+03 E0= -.41316141E+03  EK= 0.31622E+00 SP= 0.00E+00 SK= 0.00E+00
       N       E                     dE             d eps       ncg     rms          rms(c)
RMM:   1    -0.413191443872E+03   -0.84331E-02   -0.88574E+00  4289   0.783E-01    0.906E-01
RMM:   2    -0.413189888935E+03    0.15549E-02   -0.12241E-01  4270   0.110E-01    0.664E-01
RMM:   3    -0.413184927453E+03    0.49615E-02   -0.18775E-02  4537   0.542E-02    0.773E-02
RMM:   4    -0.413194994731E+03   -0.10067E-01   -0.10246E-02  5133   0.848E-02    0.424E-01
RMM:   5    -0.413184764665E+03    0.10230E-01   -0.52230E-03  4825   0.696E-02    0.429E-02
RMM:   6    -0.413184818247E+03   -0.53582E-04   -0.10250E-03  5821   0.295E-02    0.271E-02
RMM:   7    -0.413184821732E+03   -0.34846E-05   -0.22324E-04  5397   0.155E-02    0.175E-02
RMM:   8    -0.413184805826E+03    0.15906E-04   -0.26925E-05  4589   0.640E-03    0.805E-03
RMM:   9    -0.413184804165E+03    0.16607E-05   -0.51265E-06  2963   0.284E-03    0.571E-03
RMM:  10    -0.413184801310E+03    0.28555E-05   -0.16426E-06  2513   0.210E-03    0.306E-03
RMM:  11    -0.413184798572E+03    0.27377E-05   -0.10153E-06  2472   0.170E-03    0.156E-03
RMM:  12    -0.413184795795E+03    0.27773E-05   -0.62426E-07  2371   0.132E-03    0.825E-04
RMM:  13    -0.413184794260E+03    0.15351E-05   -0.29764E-07  1995   0.938E-04    0.359E-04
RMM:  14    -0.413184792640E+03    0.16196E-05   -0.16458E-07  1522   0.742E-04    0.225E-04
RMM:  15    -0.413184789899E+03    0.27407E-05   -0.10990E-07  1287   0.679E-04    0.122E-04
RMM:  16    -0.413184787664E+03    0.22355E-05   -0.66682E-08  1014   0.625E-04    0.888E-05
RMM:  17    -0.413184785881E+03    0.17827E-05   -0.40667E-08   875   0.594E-04    0.533E-05
RMM:  18    -0.413184782580E+03    0.33006E-05   -0.58825E-08  1066   0.619E-04    0.374E-05
RMM:  19    -0.413184781901E+03    0.67927E-06   -0.21318E-08   774   0.559E-04
   30 T=    65. E= -.41286678E+03 F= -.41318478E+03 E0= -.41316323E+03  EK= 0.31800E+00 SP= 0.00E+00 SK= 0.00E+00
       N       E                     dE             d eps       ncg     rms          rms(c)
RMM:   1    -0.413187427937E+03   -0.26454E-02   -0.89324E+00  4290   0.746E-01    0.912E-01
RMM:   2    -0.413191967738E+03   -0.45398E-02   -0.11294E-01  4276   0.111E-01    0.674E-01
RMM:   3    -0.413186647647E+03    0.53201E-02   -0.21860E-02  4482   0.616E-02    0.766E-02
RMM:   4    -0.413195180086E+03   -0.85324E-02   -0.86443E-03  5146   0.791E-02    0.393E-01
RMM:   5    -0.413186411067E+03    0.87690E-02   -0.44103E-03  4824   0.643E-02    0.420E-02
RMM:   6    -0.413186465982E+03   -0.54915E-04   -0.94231E-04  5817   0.284E-02    0.278E-02
RMM:   7    -0.413186466695E+03   -0.71275E-06   -0.24268E-04  5345   0.160E-02    0.182E-02
RMM:   8    -0.413186451937E+03    0.14758E-04   -0.23981E-05  4485   0.627E-03    0.792E-03
RMM:   9    -0.413186451183E+03    0.75411E-06   -0.42568E-06  2840   0.265E-03
   31 T=    65. E= -.41286655E+03 F= -.41318645E+03 E0= -.41316495E+03  EK= 0.31990E+00 SP= 0.00E+00 SK= 0.00E+00
       N       E                     dE             d eps       ncg     rms          rms(c)
RMM:   1    -0.413194892860E+03   -0.84409E-02   -0.90109E+00  4293   0.829E-01    0.933E-01
RMM:   2    -0.413194251238E+03    0.64162E-03   -0.11774E-01  4308   0.120E-01    0.674E-01
RMM:   3    -0.413191069405E+03    0.31818E-02   -0.21334E-02  4948   0.799E-02    0.198E-01
RMM:   4    -0.413229907480E+03   -0.38838E-01   -0.47530E-02  5098   0.183E-01    0.830E-01
RMM:   5    -0.413188853537E+03    0.41054E-01   -0.18858E-02  4776   0.137E-01    0.566E-02
RMM:   6    -0.413189065401E+03   -0.21186E-03   -0.34731E-03  5797   0.563E-02    0.375E-02
RMM:   7    -0.413189072925E+03   -0.75240E-05   -0.49907E-04  5692   0.212E-02    0.237E-02
RMM:   8    -0.413189064102E+03    0.88223E-05   -0.10096E-04  5220   0.108E-02    0.130E-02
RMM:   9    -0.413189053229E+03    0.10874E-04   -0.16237E-05  4220   0.494E-03    0.771E-03
RMM:  10    -0.413189047177E+03    0.60516E-05   -0.33355E-06  2748   0.272E-03    0.478E-03
RMM:  11    -0.413189043015E+03    0.41623E-05   -0.12330E-06  2505   0.186E-03    0.282E-03
RMM:  12    -0.413189034547E+03    0.84675E-05   -0.17903E-06  2551   0.210E-03    0.115E-03
RMM:  13    -0.413189030117E+03    0.44306E-05   -0.73143E-07  2403   0.146E-03    0.798E-04
RMM:  14    -0.413189029137E+03    0.97936E-06   -0.31228E-07  2104   0.978E-04
   32 T=    66. E= -.41286678E+03 F= -.41318903E+03 E0= -.41316758E+03  EK= 0.32225E+00 SP= 0.00E+00 SK= 0.00E+00
       N       E                     dE             d eps       ncg     rms          rms(c)
RMM:   1    -0.413204755537E+03   -0.15725E-01   -0.90803E+00  4297   0.893E-01    0.921E-01
RMM:   2    -0.413195820615E+03    0.89349E-02   -0.12471E-01  4279   0.122E-01    0.670E-01
RMM:   3    -0.413191002545E+03    0.48181E-02   -0.19320E-02  4283   0.641E-02    0.652E-02
RMM:   4    -0.413191087681E+03   -0.85136E-04   -0.46643E-04  5036   0.144E-02    0.534E-02
RMM:   5    -0.413191088394E+03   -0.71211E-06   -0.20981E-04  4942   0.136E-02    0.564E-02
RMM:   6    -0.413191048748E+03    0.39646E-04   -0.44887E-04  5233   0.205E-02    0.322E-02
RMM:   7    -0.413190992183E+03    0.56565E-04   -0.19073E-04  4839   0.150E-02    0.152E-02
RMM:   8    -0.413190989179E+03    0.30034E-05   -0.30332E-05  4618   0.549E-03    0.555E-03
RMM:   9    -0.413190987484E+03    0.16957E-05   -0.42039E-06  2514   0.217E-03    0.186E-03
RMM:  10    -0.413190979834E+03    0.76496E-05   -0.92215E-07  2412   0.151E-03    0.906E-04
RMM:  11    -0.413190975606E+03    0.42277E-05   -0.27351E-07  1915   0.877E-04    0.558E-04
RMM:  12    -0.413190970861E+03    0.47457E-05   -0.16122E-07  1460   0.729E-04    0.397E-04
RMM:  13    -0.413190965861E+03    0.49997E-05   -0.15567E-07  1505   0.712E-04    0.280E-04
RMM:  14    -0.413190958997E+03    0.68638E-05   -0.15156E-07  1395   0.707E-04    0.232E-04
RMM:  15    -0.413190956574E+03    0.24228E-05   -0.47231E-08   829   0.578E-04    0.178E-04
RMM:  16    -0.413190951808E+03    0.47666E-05   -0.54552E-08   973   0.603E-04    0.961E-05
RMM:  17    -0.413190950560E+03    0.12477E-05   -0.24585E-08   760   0.542E-04    0.659E-05
RMM:  18    -0.413190949775E+03    0.78538E-06   -0.13864E-08   666   0.525E-04
   33 T=    66. E= -.41286650E+03 F= -.41319095E+03 E0= -.41316955E+03  EK= 0.32445E+00 SP= 0.00E+00 SK= 0.00E+00
       N       E                     dE             d eps       ncg     rms          rms(c)
RMM:   1    -0.413194528644E+03   -0.35781E-02   -0.90812E+00  4302   0.787E-01    0.918E-01
RMM:   2    -0.413198320627E+03   -0.37920E-02   -0.11712E-01  4275   0.122E-01    0.679E-01
RMM:   3    -0.413193501987E+03    0.48186E-02   -0.21911E-02  4395   0.711E-02    0.691E-02
RMM:   4    -0.413198930271E+03   -0.54283E-02   -0.55510E-03  5148   0.635E-02    0.316E-01
RMM:   5    -0.413193342876E+03    0.55874E-02   -0.28868E-03  4830   0.519E-02    0.415E-02
RMM:   6    -0.413193393516E+03   -0.50639E-04   -0.75457E-04  5697   0.256E-02    0.294E-02
RMM:   7    -0.413193377135E+03    0.16380E-04   -0.24713E-04  5213   0.162E-02    0.184E-02
RMM:   8    -0.413193365590E+03    0.11545E-04   -0.22263E-05  4354   0.583E-03    0.735E-03
RMM:   9    -0.413193364648E+03    0.94238E-06   -0.30281E-06  2675   0.233E-03
   34 T=    67. E= -.41286654E+03 F= -.41319336E+03 E0= -.41317201E+03  EK= 0.32682E+00 SP= 0.00E+00 SK= 0.00E+00
       N       E                     dE             d eps       ncg     rms          rms(c)
RMM:   1    -0.413200864964E+03   -0.74994E-02   -0.91737E+00  4303   0.849E-01    0.938E-01
RMM:   2    -0.413200739209E+03    0.12575E-03   -0.12323E-01  4287   0.129E-01    0.682E-01
RMM:   3    -0.413197036821E+03    0.37024E-02   -0.20867E-02  4759   0.820E-02    0.141E-01
RMM:   4    -0.413234861930E+03   -0.37825E-01   -0.40929E-02  5118   0.169E-01    0.811E-01
RMM:   5    -0.413195913571E+03    0.38948E-01   -0.18941E-02  4797   0.135E-01    0.541E-02
RMM:   6    -0.413196109012E+03   -0.19544E-03   -0.32949E-03  5822   0.545E-02    0.357E-02
RMM:   7    -0.413196116921E+03   -0.79086E-05   -0.39709E-04  5632   0.193E-02    0.187E-02
RMM:   8    -0.413196112075E+03    0.48458E-05   -0.64335E-05  5026   0.818E-03    0.116E-02
RMM:   9    -0.413196104844E+03    0.72309E-05   -0.17587E-05  4325   0.450E-03    0.826E-03
RMM:  10    -0.413196099999E+03    0.48451E-05   -0.31429E-06  2684   0.277E-03    0.508E-03
RMM:  11    -0.413196095870E+03    0.41290E-05   -0.15988E-06  2514   0.205E-03    0.300E-03
RMM:  12    -0.413196087205E+03    0.86644E-05   -0.20396E-06  2558   0.227E-03    0.118E-03
RMM:  13    -0.413196082777E+03    0.44284E-05   -0.73086E-07  2416   0.151E-03    0.936E-04
RMM:  14    -0.413196082383E+03    0.39384E-06   -0.29079E-07  2101   0.961E-04
   35 T=    67. E= -.41286675E+03 F= -.41319608E+03 E0= -.41317478E+03  EK= 0.32934E+00 SP= 0.00E+00 SK= 0.00E+00
       N       E                     dE             d eps       ncg     rms          rms(c)
RMM:   1    -0.413206850585E+03   -0.10768E-01   -0.92177E+00  4304   0.908E-01    0.937E-01
RMM:   2    -0.413202752689E+03    0.40979E-02   -0.12495E-01  4265   0.134E-01    0.677E-01
RMM:   3    -0.413198341335E+03    0.44114E-02   -0.19908E-02  4467   0.731E-02    0.786E-02
RMM:   4    -0.413207358490E+03   -0.90172E-02   -0.91390E-03  5158   0.806E-02    0.403E-01
RMM:   5    -0.413198239031E+03    0.91195E-02   -0.47364E-03  4824   0.670E-02    0.445E-02
RMM:   6    -0.413198267239E+03   -0.28207E-04   -0.10329E-03  5733   0.315E-02    0.318E-02
RMM:   7    -0.413198255798E+03    0.11440E-04   -0.30466E-04  5275   0.180E-02    0.198E-02
RMM:   8    -0.413198239774E+03    0.16025E-04   -0.31661E-05  4857   0.686E-03    0.867E-03
RMM:   9    -0.413198236786E+03    0.29875E-05   -0.52103E-06  2906   0.281E-03    0.543E-03
RMM:  10    -0.413198230493E+03    0.62930E-05   -0.16050E-06  2520   0.210E-03    0.283E-03
RMM:  11    -0.413198224427E+03    0.60657E-05   -0.98381E-07  2462   0.165E-03    0.147E-03
RMM:  12    -0.413198218229E+03    0.61986E-05   -0.61609E-07  2367   0.131E-03    0.740E-04
RMM:  13    -0.413198214500E+03    0.37284E-05   -0.30352E-07  1955   0.939E-04    0.356E-04
RMM:  14    -0.413198211090E+03    0.34104E-05   -0.15672E-07  1438   0.729E-04    0.231E-04
RMM:  15    -0.413198205551E+03    0.55389E-05   -0.99548E-08  1162   0.666E-04    0.138E-04
RMM:  16    -0.413198200493E+03    0.50582E-05   -0.74041E-08  1070   0.639E-04    0.980E-05
RMM:  17    -0.413198197174E+03    0.33189E-05   -0.46913E-08   941   0.598E-04    0.625E-05
RMM:  18    -0.413198192341E+03    0.48328E-05   -0.56751E-08  1138   0.612E-04    0.330E-05
RMM:  19    -0.413198191321E+03    0.10198E-05   -0.20046E-08   666   0.521E-04    0.220E-05
RMM:  20    -0.413198190792E+03    0.52962E-06   -0.12653E-08   591   0.514E-04
   36 T=    68. E= -.41286654E+03 F= -.41319819E+03 E0= -.41317693E+03  EK= 0.33165E+00 SP= 0.00E+00 SK= 0.00E+00
       N       E                     dE             d eps       ncg     rms          rms(c)
RMM:   1    -0.413203733127E+03   -0.55418E-02   -0.92466E+00  4311   0.870E-01    0.926E-01
RMM:   2    -0.413206259261E+03   -0.25261E-02   -0.12186E-01  4253   0.130E-01    0.684E-01
RMM:   3    -0.413201174849E+03    0.50844E-02   -0.21532E-02  4421   0.710E-02    0.676E-02
RMM:   4    -0.413206814005E+03   -0.56392E-02   -0.57789E-03  5164   0.648E-02    0.322E-01
RMM:   5    -0.413201051692E+03    0.57623E-02   -0.30122E-03  4824   0.536E-02    0.428E-02
RMM:   6    -0.413201078798E+03   -0.27106E-04   -0.77580E-04  5630   0.276E-02    0.319E-02
RMM:   7    -0.413201068011E+03    0.10787E-04   -0.28480E-04  5172   0.174E-02    0.193E-02
RMM:   8    -0.413201057348E+03    0.10663E-04   -0.31193E-05  4883   0.652E-03    0.826E-03
RMM:   9    -0.413201056424E+03    0.92346E-06   -0.45266E-06  2791   0.256E-03
   37 T=    68. E= -.41286683E+03 F= -.41320106E+03 E0= -.41317984E+03  EK= 0.33423E+00 SP= 0.00E+00 SK= 0.00E+00
       N       E                     dE             d eps       ncg     rms          rms(c)
RMM:   1    -0.413215043984E+03   -0.13987E-01   -0.94303E+00  4309   0.962E-01    0.945E-01
RMM:   2    -0.413208955701E+03    0.60883E-02   -0.12667E-01  4275   0.128E-01    0.691E-01
RMM:   3    -0.413205548784E+03    0.34069E-02   -0.22388E-02  4960   0.789E-02    0.194E-01
RMM:   4    -0.413247882708E+03   -0.42334E-01   -0.50982E-02  5107   0.189E-01    0.865E-01
RMM:   5    -0.413203453086E+03    0.44430E-01   -0.20714E-02  4772   0.144E-01    0.584E-02
RMM:   6    -0.413203564167E+03   -0.11108E-03   -0.37098E-03  5815   0.573E-02    0.368E-02
RMM:   7    -0.413203577630E+03   -0.13463E-04   -0.47921E-04  5704   0.206E-02    0.218E-02
RMM:   8    -0.413203578043E+03   -0.41269E-06   -0.10654E-04  5188   0.105E-02    0.139E-02
RMM:   9    -0.413203566682E+03    0.11361E-04   -0.22159E-05  4543   0.555E-03    0.762E-03
RMM:  10    -0.413203561955E+03    0.47272E-05   -0.43317E-06  2857   0.299E-03    0.444E-03
RMM:  11    -0.413203558625E+03    0.33307E-05   -0.14381E-06  2504   0.202E-03    0.271E-03
RMM:  12    -0.413203550930E+03    0.76942E-05   -0.17024E-06  2530   0.213E-03    0.116E-03
RMM:  13    -0.413203546034E+03    0.48968E-05   -0.75116E-07  2440   0.148E-03    0.759E-04
RMM:  14    -0.413203545155E+03    0.87863E-06   -0.31436E-07  2135   0.981E-04
   38 T=    69. E= -.41286676E+03 F= -.41320355E+03 E0= -.41318237E+03  EK= 0.33678E+00 SP= 0.00E+00 SK= 0.00E+00
       N       E                     dE             d eps       ncg     rms          rms(c)
RMM:   1    -0.413215266627E+03   -0.11721E-01   -0.94279E+00  4308   0.100E+00    0.953E-01
RMM:   2    -0.413211431809E+03    0.38348E-02   -0.13106E-01  4262   0.127E-01    0.687E-01
RMM:   3    -0.413206682169E+03    0.47496E-02   -0.19865E-02  4846   0.633E-02    0.130E-01
RMM:   4    -0.413242528258E+03   -0.35846E-01   -0.38070E-02  5127   0.163E-01    0.790E-01
RMM:   5    -0.413205952657E+03    0.36576E-01   -0.18136E-02  4793   0.132E-01    0.547E-02
RMM:   6    -0.413206030460E+03   -0.77803E-04   -0.30684E-03  5821   0.525E-02    0.356E-02
RMM:   7    -0.413206043715E+03   -0.13255E-04   -0.41895E-04  5654   0.195E-02    0.198E-02
RMM:   8    -0.413206031830E+03    0.11885E-04   -0.68288E-05  5084   0.872E-03    0.113E-02
RMM:   9    -0.413206028698E+03    0.31316E-05   -0.21066E-05  4566   0.506E-03    0.794E-03
RMM:  10    -0.413206020993E+03    0.77048E-05   -0.29015E-06  2672   0.275E-03    0.448E-03
RMM:  11    -0.413206016712E+03    0.42818E-05   -0.12674E-06  2498   0.187E-03    0.277E-03
RMM:  12    -0.413206006133E+03    0.10578E-04   -0.18377E-06  2541   0.219E-03    0.139E-03
RMM:  13    -0.413206000812E+03    0.53217E-05   -0.71205E-07  2417   0.148E-03    0.909E-04
RMM:  14    -0.413206000049E+03    0.76235E-06   -0.28358E-07  2102   0.956E-04
   39 T=    69. E= -.41286661E+03 F= -.41320600E+03 E0= -.41318486E+03  EK= 0.33939E+00 SP= 0.00E+00 SK= 0.00E+00
       N       E                     dE             d eps       ncg     rms          rms(c)
RMM:   1    -0.413219569235E+03   -0.13568E-01   -0.94869E+00  4310   0.103E+00    0.936E-01
RMM:   2    -0.413214823515E+03    0.47457E-02   -0.13056E-01  4263   0.127E-01    0.689E-01
RMM:   3    -0.413210236489E+03    0.45870E-02   -0.21154E-02  4937   0.683E-02    0.154E-01
RMM:   4    -0.413252213611E+03   -0.41977E-01   -0.46916E-02  5127   0.181E-01    0.854E-01
RMM:   5    -0.413208968267E+03    0.43245E-01   -0.20939E-02  4791   0.142E-01    0.568E-02
RMM:   6    -0.413209082043E+03   -0.11378E-03   -0.35636E-03  5821   0.561E-02    0.358E-02
RMM:   7    -0.413209096655E+03   -0.14612E-04   -0.42714E-04  5675   0.196E-02    0.190E-02
RMM:   8    -0.413209093278E+03    0.33769E-05   -0.60059E-05  4960   0.781E-03    0.104E-02
RMM:   9    -0.413209088562E+03    0.47152E-05   -0.19711E-05  4452   0.463E-03    0.756E-03
RMM:  10    -0.413209085204E+03    0.33583E-05   -0.48379E-06  2976   0.299E-03    0.448E-03
RMM:  11    -0.413209081900E+03    0.33043E-05   -0.15623E-06  2500   0.208E-03    0.274E-03
RMM:  12    -0.413209074182E+03    0.77179E-05   -0.17927E-06  2524   0.215E-03    0.106E-03
RMM:  13    -0.413209070536E+03    0.36462E-05   -0.65805E-07  2428   0.143E-03    0.834E-04
RMM:  14    -0.413209070230E+03    0.30606E-06   -0.27688E-07  2090   0.934E-04
   40 T=    70. E= -.41286685E+03 F= -.41320907E+03 E0= -.41318797E+03  EK= 0.34222E+00 SP= 0.00E+00 SK= 0.00E+00
       N       E                     dE             d eps       ncg     rms          rms(c)
RMM:   1    -0.413216077460E+03   -0.70069E-02   -0.95640E+00  4310   0.102E+00    0.949E-01
RMM:   2    -0.413217069885E+03   -0.99243E-03   -0.13194E-01  4266   0.134E-01    0.699E-01
RMM:   3    -0.413212799295E+03    0.42706E-02   -0.22092E-02  4977   0.711E-02    0.176E-01
RMM:   4    -0.413257796342E+03   -0.44997E-01   -0.52137E-02  5125   0.191E-01    0.886E-01
RMM:   5    -0.413211079528E+03    0.46717E-01   -0.22264E-02  4783   0.147E-01    0.587E-02
RMM:   6    -0.413211221721E+03   -0.14219E-03   -0.38084E-03  5813   0.579E-02    0.361E-02
RMM:   7    -0.413211240106E+03   -0.18386E-04   -0.46774E-04  5728   0.202E-02    0.202E-02
RMM:   8    -0.413211242185E+03   -0.20786E-05   -0.92394E-05  5194   0.958E-03    0.127E-02
RMM:   9    -0.413211232758E+03    0.94274E-05   -0.23919E-05  4591   0.543E-03    0.748E-03
RMM:  10    -0.413211229236E+03    0.35211E-05   -0.39183E-06  2770   0.291E-03    0.451E-03
RMM:  11    -0.413211226420E+03    0.28162E-05   -0.14179E-06  2500   0.200E-03    0.273E-03
RMM:  12    -0.413211219964E+03    0.64558E-05   -0.15871E-06  2522   0.204E-03    0.112E-03
RMM:  13    -0.413211215714E+03    0.42501E-05   -0.70219E-07  2427   0.143E-03    0.752E-04
RMM:  14    -0.413211214976E+03    0.73859E-06   -0.29517E-07  2089   0.956E-04
   41 T=    70. E= -.41286647E+03 F= -.41321121E+03 E0= -.41319015E+03  EK= 0.34474E+00 SP= 0.00E+00 SK= 0.00E+00
       N       E                     dE             d eps       ncg     rms          rms(c)
RMM:   1    -0.413240168821E+03   -0.28953E-01   -0.97999E+00  4312   0.121E+00    0.967E-01
RMM:   2    -0.413219282175E+03    0.20887E-01   -0.14907E-01  4295   0.134E-01    0.698E-01
RMM:   3    -0.413216260824E+03    0.30214E-02   -0.20099E-02  5054   0.729E-02    0.231E-01
RMM:   4    -0.413262482820E+03   -0.46222E-01   -0.58013E-02  5113   0.202E-01    0.905E-01
RMM:   5    -0.413213685470E+03    0.48797E-01   -0.22588E-02  4768   0.151E-01    0.628E-02
RMM:   6    -0.413213820642E+03   -0.13517E-03   -0.39505E-03  5794   0.591E-02    0.383E-02
RMM:   7    -0.413213833684E+03   -0.13042E-04   -0.51975E-04  5732   0.212E-02    0.231E-02
RMM:   8    -0.413213833990E+03   -0.30559E-06   -0.13183E-04  5227   0.116E-02    0.146E-02
RMM:   9    -0.413213818344E+03    0.15646E-04   -0.25395E-05  4619   0.605E-03    0.683E-03
RMM:  10    -0.413213812443E+03    0.59005E-05   -0.53931E-06  3007   0.305E-03    0.423E-03
RMM:  11    -0.413213807838E+03    0.46053E-05   -0.13715E-06  2504   0.200E-03    0.248E-03
RMM:  12    -0.413213798538E+03    0.92999E-05   -0.12340E-06  2482   0.188E-03    0.100E-03
RMM:  13    -0.413213792598E+03    0.59399E-05   -0.58104E-07  2393   0.134E-03    0.592E-04
RMM:  14    -0.413213791357E+03    0.12410E-05   -0.27588E-07  2033   0.924E-04    0.400E-04
RMM:  15    -0.413213788802E+03    0.25555E-05   -0.14307E-07  1517   0.727E-04    0.238E-04
RMM:  16    -0.413213781261E+03    0.75402E-05   -0.12976E-07  1545   0.732E-04    0.273E-04
RMM:  17    -0.413213779286E+03    0.19757E-05   -0.54853E-08   979   0.596E-04    0.177E-04
RMM:  18    -0.413213773565E+03    0.57210E-05   -0.67007E-08  1289   0.639E-04    0.133E-04
RMM:  19    -0.413213771473E+03    0.20922E-05   -0.34339E-08   955   0.564E-04    0.530E-05
RMM:  20    -0.413213769851E+03    0.16217E-05   -0.28032E-08   929   0.559E-04    0.514E-05
RMM:  21    -0.413213769638E+03    0.21258E-06   -0.13439E-08   726   0.526E-04
   42 T=    71. E= -.41286657E+03 F= -.41321377E+03 E0= -.41319273E+03  EK= 0.34720E+00 SP= 0.00E+00 SK= 0.00E+00
       N       E                     dE             d eps       ncg     rms          rms(c)
RMM:   1    -0.413233411583E+03   -0.19642E-01   -0.97026E+00  4312   0.121E+00    0.946E-01
RMM:   2    -0.413221358887E+03    0.12053E-01   -0.14593E-01  4308   0.142E-01    0.696E-01
RMM:   3    -0.413219635240E+03    0.17236E-02   -0.21701E-02  5071   0.827E-02    0.275E-01
RMM:   4    -0.413259456540E+03   -0.39821E-01   -0.56640E-02  5096   0.201E-01    0.857E-01
RMM:   5    -0.413215714864E+03    0.43742E-01   -0.19163E-02  4752   0.141E-01    0.620E-02
RMM:   6    -0.413215817553E+03   -0.10269E-03   -0.35108E-03  5774   0.556E-02    0.374E-02
RMM:   7    -0.413215825354E+03   -0.78015E-05   -0.51112E-04  5720   0.210E-02    0.241E-02
RMM:   8    -0.413215823419E+03    0.19352E-05   -0.12874E-04  5218   0.118E-02    0.135E-02
RMM:   9    -0.413215811647E+03    0.11772E-04   -0.19844E-05  4413   0.564E-03    0.593E-03
RMM:  10    -0.413215808164E+03    0.34833E-05   -0.44965E-06  2879   0.278E-03    0.374E-03
RMM:  11    -0.413215805139E+03    0.30250E-05   -0.12720E-06  2501   0.190E-03    0.209E-03
RMM:  12    -0.413215799450E+03    0.56886E-05   -0.10455E-06  2481   0.170E-03    0.843E-04
RMM:  13    -0.413215795717E+03    0.37333E-05   -0.50300E-07  2340   0.122E-03    0.451E-04
RMM:  14    -0.413215794532E+03    0.11853E-05   -0.24816E-07  1911   0.872E-04    0.307E-04
RMM:  15    -0.413215792040E+03    0.24917E-05   -0.13729E-07  1435   0.714E-04    0.152E-04
RMM:  16    -0.413215787990E+03    0.40496E-05   -0.97895E-08  1199   0.669E-04    0.136E-04
RMM:  17    -0.413215785937E+03    0.20530E-05   -0.57192E-08  1002   0.618E-04    0.800E-05
RMM:  18    -0.413215782986E+03    0.29512E-05   -0.52595E-08  1096   0.623E-04    0.612E-05
RMM:  19    -0.413215780510E+03    0.24766E-05   -0.41286E-08  1071   0.599E-04    0.346E-05
RMM:  20    -0.413215779647E+03    0.86299E-06   -0.21779E-08   816   0.552E-04
   43 T=    71. E= -.41286660E+03 F= -.41321578E+03 E0= -.41319477E+03  EK= 0.34918E+00 SP= 0.00E+00 SK= 0.00E+00
       N       E                     dE             d eps       ncg     rms          rms(c)
RMM:   1    -0.413230053511E+03   -0.14273E-01   -0.97803E+00  4314   0.124E+00    0.950E-01
RMM:   2    -0.413222777923E+03    0.72756E-02   -0.14987E-01  4311   0.153E-01    0.708E-01
RMM:   3    -0.413221651476E+03    0.11264E-02   -0.23254E-02  5061   0.905E-02    0.303E-01
RMM:   4    -0.413259986978E+03   -0.38336E-01   -0.58214E-02  5096   0.205E-01    0.851E-01
RMM:   5    -0.413216761735E+03    0.43225E-01   -0.18438E-02  4735   0.140E-01    0.621E-02
RMM:   6    -0.413216854681E+03   -0.92946E-04   -0.34112E-03  5757   0.551E-02    0.364E-02
RMM:   7    -0.413216861937E+03   -0.72562E-05   -0.50024E-04  5747   0.208E-02    0.239E-02
RMM:   8    -0.413216860558E+03    0.13793E-05   -0.12723E-04  5195   0.118E-02    0.130E-02
RMM:   9    -0.413216850828E+03    0.97300E-05   -0.19206E-05  4380   0.563E-03    0.551E-03
RMM:  10    -0.413216848503E+03    0.23250E-05   -0.44236E-06  2852   0.273E-03    0.349E-03
RMM:  11    -0.413216846269E+03    0.22339E-05   -0.12632E-06  2495   0.188E-03    0.192E-03
RMM:  12    -0.413216842136E+03    0.41327E-05   -0.98538E-07  2482   0.162E-03    0.767E-04
RMM:  13    -0.413216839292E+03    0.28441E-05   -0.47362E-07  2283   0.116E-03    0.385E-04
RMM:  14    -0.413216838000E+03    0.12925E-05   -0.23696E-07  1817   0.845E-04    0.258E-04
RMM:  15    -0.413216835142E+03    0.28581E-05   -0.14953E-07  1419   0.725E-04    0.130E-04
RMM:  16    -0.413216832527E+03    0.26146E-05   -0.98047E-08  1181   0.663E-04    0.105E-04
RMM:  17    -0.413216830555E+03    0.19722E-05   -0.66905E-08  1097   0.630E-04    0.742E-05
RMM:  18    -0.413216828008E+03    0.25466E-05   -0.55174E-08  1111   0.621E-04    0.417E-05
RMM:  19    -0.413216825806E+03    0.22019E-05   -0.41200E-08  1032   0.588E-04    0.324E-05
RMM:  20    -0.413216825159E+03    0.64723E-06   -0.19192E-08   772   0.547E-04
   44 T=    71. E= -.41286634E+03 F= -.41321683E+03 E0= -.41319584E+03  EK= 0.35048E+00 SP= 0.00E+00 SK= 0.00E+00
       N       E                     dE             d eps       ncg     rms          rms(c)
RMM:   1    -0.413244440467E+03   -0.27615E-01   -0.98918E+00  4312   0.138E+00    0.973E-01
RMM:   2    -0.413223494329E+03    0.20946E-01   -0.15578E-01  4313   0.163E-01    0.705E-01
RMM:   3    -0.413225175805E+03   -0.16815E-02   -0.23790E-02  5076   0.100E-01    0.374E-01
RMM:   4    -0.413250676284E+03   -0.25500E-01   -0.51323E-02  5064   0.194E-01    0.744E-01
RMM:   5    -0.413218009388E+03    0.32667E-01   -0.12933E-02  4695   0.123E-01    0.614E-02
RMM:   6    -0.413218036082E+03   -0.26694E-04   -0.25815E-03  5682   0.484E-02    0.367E-02
RMM:   7    -0.413218034094E+03    0.19881E-05   -0.42954E-04  5643   0.199E-02    0.239E-02
RMM:   8    -0.413218027439E+03    0.66546E-05   -0.12075E-04  5133   0.119E-02    0.119E-02
RMM:   9    -0.413218015116E+03    0.12323E-04   -0.16222E-05  4295   0.551E-03    0.494E-03
RMM:  10    -0.413218010885E+03    0.42304E-05   -0.36366E-06  2785   0.253E-03    0.301E-03
RMM:  11    -0.413218006037E+03    0.48487E-05   -0.11698E-06  2486   0.181E-03    0.162E-03
RMM:  12    -0.413217999351E+03    0.66860E-05   -0.74186E-07  2440   0.146E-03    0.657E-04
RMM:  13    -0.413217995489E+03    0.38613E-05   -0.35962E-07  2094   0.103E-03    0.311E-04
RMM:  14    -0.413217992829E+03    0.26605E-05   -0.19840E-07  1653   0.800E-04    0.204E-04
RMM:  15    -0.413217987304E+03    0.55250E-05   -0.13912E-07  1384   0.725E-04    0.139E-04
RMM:  16    -0.413217984923E+03    0.23809E-05   -0.80169E-08  1112   0.649E-04    0.867E-05
RMM:  17    -0.413217981267E+03    0.36562E-05   -0.70108E-08  1225   0.645E-04    0.533E-05
RMM:  18    -0.413217978233E+03    0.30337E-05   -0.52976E-08  1149   0.611E-04    0.391E-05
RMM:  19    -0.413217976126E+03    0.21067E-05   -0.35125E-08   994   0.570E-04    0.246E-05
RMM:  20    -0.413217975634E+03    0.49285E-06   -0.18635E-08   765   0.532E-04
   45 T=    72. E= -.41286668E+03 F= -.41321798E+03 E0= -.41319702E+03  EK= 0.35130E+00 SP= 0.00E+00 SK= 0.00E+00
       N       E                     dE             d eps       ncg     rms          rms(c)
RMM:   1    -0.413240217685E+03   -0.22242E-01   -0.97689E+00  4312   0.144E+00    0.956E-01
RMM:   2    -0.413223021887E+03    0.17196E-01   -0.15147E-01  4334   0.172E-01    0.699E-01
RMM:   3    -0.413227379153E+03   -0.43573E-02   -0.26013E-02  5089   0.113E-01    0.430E-01
RMM:   4    -0.413243549960E+03   -0.16171E-01   -0.47606E-02  5054   0.189E-01    0.665E-01
RMM:   5    -0.413217586952E+03    0.25963E-01   -0.94108E-03  4653   0.110E-01    0.594E-02
RMM:   6    -0.413217573297E+03    0.13656E-04   -0.20345E-03  5602   0.429E-02    0.345E-02
RMM:   7    -0.413217568660E+03    0.46363E-05   -0.36015E-04  5583   0.185E-02    0.227E-02
RMM:   8    -0.413217558982E+03    0.96786E-05   -0.12125E-04  5088   0.118E-02    0.111E-02
RMM:   9    -0.413217547076E+03    0.11906E-04   -0.14711E-05  4219   0.539E-03    0.462E-03
RMM:  10    -0.413217543438E+03    0.36376E-05   -0.30136E-06  2725   0.237E-03    0.271E-03
RMM:  11    -0.413217538675E+03    0.47634E-05   -0.11260E-06  2484   0.176E-03    0.142E-03
RMM:  12    -0.413217532946E+03    0.57290E-05   -0.66715E-07  2407   0.138E-03    0.659E-04
RMM:  13    -0.413217529448E+03    0.34972E-05   -0.31997E-07  1976   0.976E-04    0.301E-04
RMM:  14    -0.413217526559E+03    0.28898E-05   -0.17808E-07  1506   0.760E-04    0.179E-04
RMM:  15    -0.413217521603E+03    0.49552E-05   -0.13479E-07  1353   0.715E-04    0.126E-04
RMM:  16    -0.413217519261E+03    0.23420E-05   -0.79472E-08  1100   0.644E-04    0.822E-05
RMM:  17    -0.413217514997E+03    0.42648E-05   -0.79661E-08  1305   0.658E-04    0.558E-05
RMM:  18    -0.413217512799E+03    0.21977E-05   -0.48406E-08  1056   0.588E-04    0.366E-05
RMM:  19    -0.413217511153E+03    0.16459E-05   -0.33128E-08   921   0.557E-04    0.187E-05
RMM:  20    -0.413217510732E+03    0.42056E-06   -0.19556E-08   741   0.528E-04
   46 T=    71. E= -.41286654E+03 F= -.41321751E+03 E0= -.41319657E+03  EK= 0.35097E+00 SP= 0.00E+00 SK= 0.00E+00
       N       E                     dE             d eps       ncg     rms          rms(c)
RMM:   1    -0.413230840919E+03   -0.13330E-01   -0.97211E+00  4312   0.145E+00    0.946E-01
RMM:   2    -0.413222024934E+03    0.88160E-02   -0.15017E-01  4354   0.178E-01    0.707E-01
RMM:   3    -0.413228396482E+03   -0.63715E-02   -0.28875E-02  5084   0.124E-01    0.471E-01
RMM:   4    -0.413240676455E+03   -0.12280E-01   -0.48649E-02  5039   0.193E-01    0.643E-01
RMM:   5    -0.413216323687E+03    0.24353E-01   -0.83698E-03  4623   0.107E-01    0.587E-02
RMM:   6    -0.413216290064E+03    0.33623E-04   -0.18312E-03  5548   0.408E-02    0.323E-02
RMM:   7    -0.413216290024E+03    0.39599E-07   -0.32152E-04  5586   0.176E-02    0.216E-02
RMM:   8    -0.413216281485E+03    0.85389E-05   -0.12337E-04  5085   0.118E-02    0.105E-02
RMM:   9    -0.413216270804E+03    0.10681E-04   -0.14110E-05  4154   0.536E-03    0.437E-03
RMM:  10    -0.413216268410E+03    0.23938E-05   -0.29570E-06  2706   0.233E-03    0.255E-03
RMM:  11    -0.413216265020E+03    0.33902E-05   -0.11770E-06  2494   0.176E-03    0.131E-03
RMM:  12    -0.413216261252E+03    0.37680E-05   -0.66862E-07  2396   0.136E-03    0.666E-04
RMM:  13    -0.413216258667E+03    0.25849E-05   -0.32547E-07  1895   0.959E-04    0.303E-04
RMM:  14    -0.413216256296E+03    0.23716E-05   -0.18859E-07  1447   0.761E-04    0.172E-04
RMM:  15    -0.413216252857E+03    0.34388E-05   -0.15203E-07  1376   0.724E-04    0.120E-04
RMM:  16    -0.413216250950E+03    0.19071E-05   -0.92233E-08  1143   0.650E-04    0.869E-05
RMM:  17    -0.413216247190E+03    0.37592E-05   -0.10065E-07  1400   0.672E-04    0.625E-05
RMM:  18    -0.413216245813E+03    0.13774E-05   -0.49150E-08   972   0.568E-04    0.359E-05
RMM:  19    -0.413216244709E+03    0.11043E-05   -0.32520E-08   856   0.544E-04    0.192E-05
RMM:  20    -0.413216244096E+03    0.61276E-06   -0.23427E-08   785   0.528E-04
   47 T=    71. E= -.41286671E+03 F= -.41321624E+03 E0= -.41319532E+03  EK= 0.34953E+00 SP= 0.00E+00 SK= 0.00E+00
       N       E                     dE             d eps       ncg     rms          rms(c)
RMM:   1    -0.413237958554E+03   -0.21714E-01   -0.97204E+00  4308   0.160E+00    0.962E-01
RMM:   2    -0.413219413586E+03    0.18545E-01   -0.15953E-01  4392   0.193E-01    0.705E-01
RMM:   3    -0.413231536185E+03   -0.12123E-01   -0.31733E-02  5120   0.140E-01    0.573E-01
RMM:   4    -0.413230296700E+03    0.12395E-02   -0.44706E-02  5005   0.188E-01    0.533E-01
RMM:   5    -0.413213866998E+03    0.16430E-01   -0.52648E-03  4564   0.934E-02    0.581E-02
RMM:   6    -0.413213784458E+03    0.82539E-04   -0.10404E-03  5179   0.334E-02    0.311E-02
RMM:   7    -0.413213781639E+03    0.28189E-05   -0.21048E-04  5553   0.146E-02    0.175E-02
RMM:   8    -0.413213781053E+03    0.58646E-06   -0.12765E-04  5193   0.117E-02    0.119E-02
RMM:   9    -0.413213765294E+03    0.15759E-04   -0.18455E-05  4429   0.586E-03    0.444E-03
RMM:  10    -0.413213762296E+03    0.29981E-05   -0.33279E-06  2764   0.244E-03    0.244E-03
RMM:  11    -0.413213756577E+03    0.57193E-05   -0.13775E-06  2465   0.192E-03    0.130E-03
RMM:  12    -0.413213752345E+03    0.42315E-05   -0.61631E-07  2377   0.137E-03    0.756E-04
RMM:  13    -0.413213748324E+03    0.40213E-05   -0.29445E-07  1848   0.958E-04    0.374E-04
RMM:  14    -0.413213744221E+03    0.41024E-05   -0.15847E-07  1436   0.742E-04    0.207E-04
RMM:  15    -0.413213740300E+03    0.39216E-05   -0.10782E-07  1208   0.674E-04    0.132E-04
RMM:  16    -0.413213737722E+03    0.25773E-05   -0.72826E-08  1108   0.623E-04    0.108E-04
RMM:  17    -0.413213733791E+03    0.39315E-05   -0.74053E-08  1250   0.628E-04    0.623E-05
RMM:  18    -0.413213731723E+03    0.20682E-05   -0.40083E-08   957   0.555E-04    0.492E-05
RMM:  19    -0.413213730888E+03    0.83497E-06   -0.20425E-08   687   0.511E-04
   48 T=    71. E= -.41286703E+03 F= -.41321373E+03 E0= -.41319282E+03  EK= 0.34670E+00 SP= 0.00E+00 SK= 0.00E+00
       N       E                     dE             d eps       ncg     rms          rms(c)
RMM:   1    -0.413239256969E+03   -0.25525E-01   -0.95900E+00  4306   0.173E+00    0.951E-01
RMM:   2    -0.413214337143E+03    0.24920E-01   -0.16417E-01  4444   0.205E-01    0.694E-01
RMM:   3    -0.413232893748E+03   -0.18557E-01   -0.35608E-02  5138   0.156E-01    0.665E-01
RMM:   4    -0.413220281135E+03    0.12613E-01   -0.42778E-02  4968   0.186E-01    0.448E-01
RMM:   5    -0.413209043726E+03    0.11237E-01   -0.40850E-03  4549   0.874E-02    0.603E-02
RMM:   6    -0.413208908169E+03    0.13556E-03   -0.58805E-04  4807   0.290E-02    0.318E-02
RMM:   7    -0.413208905211E+03    0.29578E-05   -0.23490E-04  5849   0.159E-02    0.170E-02
RMM:   8    -0.413208894086E+03    0.11125E-04   -0.98014E-05  5166   0.110E-02    0.111E-02
RMM:   9    -0.413208885620E+03    0.84659E-05   -0.15990E-05  4368   0.528E-03    0.448E-03
RMM:  10    -0.413208881829E+03    0.37905E-05   -0.26554E-06  2669   0.249E-03    0.237E-03
RMM:  11    -0.413208875773E+03    0.60557E-05   -0.15718E-06  2491   0.204E-03    0.157E-03
RMM:  12    -0.413208871982E+03    0.37918E-05   -0.60892E-07  2411   0.140E-03    0.901E-04
RMM:  13    -0.413208867437E+03    0.45447E-05   -0.33141E-07  2090   0.100E-03    0.508E-04
RMM:  14    -0.413208861360E+03    0.60769E-05   -0.22994E-07  1801   0.832E-04    0.404E-04
RMM:  15    -0.413208857822E+03    0.35379E-05   -0.11133E-07  1157   0.640E-04    0.169E-04
RMM:  16    -0.413208855397E+03    0.24251E-05   -0.82532E-08  1154   0.615E-04    0.104E-04
RMM:  17    -0.413208851170E+03    0.42266E-05   -0.83370E-08  1236   0.632E-04    0.132E-04
RMM:  18    -0.413208850361E+03    0.80981E-06   -0.36707E-08   883   0.548E-04
   49 T=    70. E= -.41286690E+03 F= -.41320885E+03 E0= -.41318795E+03  EK= 0.34195E+00 SP= 0.00E+00 SK= 0.00E+00
       N       E                     dE             d eps       ncg     rms          rms(c)
RMM:   1    -0.413232844718E+03   -0.23994E-01   -0.94485E+00  4306   0.185E+00    0.926E-01
RMM:   2    -0.413208324472E+03    0.24520E-01   -0.15689E-01  4494   0.213E-01    0.694E-01
RMM:   3    -0.413231525384E+03   -0.23201E-01   -0.40492E-02  5142   0.170E-01    0.721E-01
RMM:   4    -0.413212466004E+03    0.19059E-01   -0.44381E-02  4964   0.193E-01    0.413E-01
RMM:   5    -0.413202782086E+03    0.96839E-02   -0.38655E-03  4611   0.875E-02    0.631E-02
RMM:   6    -0.413202604969E+03    0.17712E-03   -0.46279E-04  4691   0.286E-02    0.321E-02
RMM:   7    -0.413202622449E+03   -0.17480E-04   -0.32524E-04  5745   0.190E-02    0.239E-02
RMM:   8    -0.413202589695E+03    0.32754E-04   -0.97880E-05  5030   0.115E-02    0.987E-03
RMM:   9    -0.413202585692E+03    0.40026E-05   -0.22641E-05  5209   0.598E-03    0.488E-03
RMM:  10    -0.413202582527E+03    0.31649E-05   -0.26484E-06  2671   0.250E-03    0.266E-03
RMM:  11    -0.413202578148E+03    0.43790E-05   -0.16340E-06  2508   0.209E-03    0.201E-03
RMM:  12    -0.413202575143E+03    0.30059E-05   -0.49729E-07  2429   0.131E-03    0.106E-03
RMM:  13    -0.413202571894E+03    0.32484E-05   -0.29690E-07  2099   0.916E-04    0.513E-04
[...]
RMM:  40    -0.409618583074E+03    0.30865E-02   -0.30217E-03  4324   0.721E-02    0.526E+00
RMM:  41    -0.409559327509E+03    0.59256E-01   -0.12618E-02  4284   0.895E-02    0.390E+00
RMM:  42    -0.409572243023E+03   -0.12916E-01   -0.16660E-03  4279   0.675E-02    0.522E+00
RMM:  43    -0.409560180709E+03    0.12062E-01   -0.10530E-02  4286   0.873E-02    0.391E+00
RMM:  44    -0.409517128275E+03    0.43052E-01   -0.17829E-03  4280   0.672E-02    0.469E+00
RMM:  45    -0.409546758251E+03   -0.29630E-01   -0.71928E-03  4276   0.801E-02    0.391E+00
RMM:  46    -0.409488024220E+03    0.58734E-01   -0.20943E-03  4284   0.668E-02    0.351E+00
RMM:  47    -0.409617141630E+03   -0.12912E+00   -0.11353E-02  4278   0.799E-02    0.396E+00
RMM:  48    -0.409464409776E+03    0.15273E+00   -0.50117E-03  4275   0.719E-02    0.890E-01
RMM:  49    -0.409533471254E+03   -0.69061E-01   -0.33567E-03  4271   0.547E-02    0.382E+00
RMM:  50    -0.409525654974E+03    0.78163E-02   -0.17150E-03  4284   0.527E-02    0.494E+00
RMM:  51    -0.409520184870E+03    0.54701E-02   -0.63319E-03  4287   0.864E-02    0.387E+00
RMM:  52    -0.409637368823E+03   -0.11718E+00   -0.18864E-03  4285   0.674E-02    0.525E+00
RMM:  53    -0.409573410199E+03    0.63959E-01   -0.15654E-02  4278   0.911E-02    0.393E+00
RMM:  54    -0.409645271145E+03   -0.71861E-01   -0.22499E-03  4280   0.698E-02    0.526E+00
RMM:  55    -0.409611649282E+03    0.33622E-01   -0.20164E-02  4287   0.928E-02    0.396E+00
RMM:  56    -0.409676889333E+03   -0.65240E-01   -0.31204E-03  4295   0.732E-02    0.527E+00
RMM:  57    -0.409691003750E+03   -0.14114E-01   -0.33402E-02  4318   0.102E-01    0.401E+00
RMM:  58    -0.409970377433E+03   -0.27937E+00   -0.74792E-03  4365   0.944E-02    0.535E+00
RMM:  59    -0.409753483457E+03    0.21689E+00   -0.75652E-02  4341   0.130E-01    0.404E+00
RMM:  60    -0.409972198599E+03   -0.21872E+00   -0.79999E-03  4352   0.975E-02    0.536E+00
RMM:  61    -0.409623746205E+03    0.34845E+00   -0.49452E-02  4331   0.113E-01    0.394E+00
RMM:  62    -0.411476879097E+03   -0.18531E+01   -0.51857E-02  4412   0.202E-01    0.571E+00
RMM:  63    -0.411610041963E+03   -0.13316E+00   -0.90673E-03  5688   0.990E-02    0.574E+00
RMM:  64    -0.411418520580E+03    0.19152E+00   -0.96019E-04  5033   0.342E-02    0.569E+00
RMM:  65    -0.411298959395E+03    0.11956E+00   -0.28233E-04  4793   0.163E-02    0.567E+00
RMM:  66    -0.411265704951E+03    0.33254E-01   -0.87176E-05  5398   0.871E-03    0.567E+00
RMM:  67    -0.411208838666E+03    0.56866E-01   -0.32800E-05  4389   0.557E-03    0.565E+00
RMM:  68    -0.411182808002E+03    0.26031E-01   -0.11691E-05  3538   0.359E-03    0.564E+00
RMM:  69    -0.411142423396E+03    0.40385E-01   -0.18536E-05  3845   0.393E-03    0.563E+00
RMM:  70    -0.411055386911E+03    0.87036E-01   -0.53672E-05  4215   0.660E-03    0.561E+00
RMM:  71    -0.410881118942E+03    0.17427E+00   -0.22778E-04  4540   0.131E-02    0.557E+00
RMM:  72    -0.410632483420E+03    0.24864E+00   -0.58716E-04  4608   0.189E-02    0.551E+00
RMM:  73    -0.410588964649E+03    0.43519E-01   -0.11649E-04  4967   0.814E-03    0.549E+00
RMM:  74    -0.410588435740E+03    0.52891E-03   -0.14684E-05  3365   0.318E-03    0.549E+00
RMM:  75    -0.410583804296E+03    0.46314E-02   -0.56158E-06  3190   0.257E-03    0.549E+00
RMM:  76    -0.410468711486E+03    0.11509E+00   -0.74708E-05  4292   0.713E-03    0.546E+00
RMM:  77    -0.410432643280E+03    0.36068E-01   -0.51921E-05  4946   0.599E-03    0.546E+00
RMM:  78    -0.410444546123E+03   -0.11903E-01   -0.52770E-06  2999   0.243E-03    0.546E+00
RMM:  79    -0.410397889898E+03    0.46656E-01   -0.21394E-05  4013   0.386E-03    0.545E+00
RMM:  80    -0.410476245495E+03   -0.78356E-01   -0.36315E-05  3937   0.527E-03    0.547E+00
RMM:  81    -0.410506405534E+03   -0.30160E-01   -0.14224E-05  3531   0.302E-03    0.548E+00
RMM:  82    -0.410074832079E+03    0.43157E+00   -0.11687E-03  4427   0.272E-02    0.537E+00
RMM:  83    -0.409541635592E+03    0.53320E+00   -0.93842E-02  4518   0.919E-02    0.389E+00
RMM:  84    -0.410355348986E+03   -0.81371E+00   -0.87118E-03  4399   0.106E-01    0.542E+00
RMM:  85    -0.409455434061E+03    0.89991E+00   -0.55568E-02  4358   0.109E-01    0.232E+00
RMM:  86    -0.409467926617E+03   -0.12493E-01   -0.50972E-03  4314   0.702E-02    0.115E-01
RMM:  87    -0.409611048626E+03   -0.14312E+00   -0.83366E-03  4727   0.398E-02    0.398E+00
RMM:  88    -0.410063237766E+03   -0.45219E+00   -0.45316E-03  4429   0.703E-02    0.538E+00
RMM:  89    -0.409449623623E+03    0.61361E+00   -0.11222E-02  4277   0.857E-02    0.155E+00
RMM:  90    -0.409786353726E+03   -0.33673E+00   -0.38406E-02  4498   0.719E-02    0.410E+00
RMM:  91    -0.409461707479E+03    0.32465E+00   -0.14039E-02  4265   0.794E-02    0.724E-01
RMM:  92    -0.409840974918E+03   -0.37927E+00   -0.31617E-02  4279   0.743E-02    0.412E+00
RMM:  93    -0.409687101831E+03    0.15387E+00   -0.51853E-03  4321   0.662E-02    0.529E+00
RMM:  94    -0.409501542887E+03    0.18556E+00   -0.11663E-02  4271   0.907E-02    0.379E+00
RMM:  95    -0.410535555626E+03   -0.10340E+01   -0.10093E-02  4440   0.100E-01    0.549E+00
RMM:  96    -0.409491271036E+03    0.10443E+01   -0.97699E-02  4366   0.127E-01    0.368E+00
RMM:  97    -0.410413379926E+03   -0.92211E+00   -0.67507E-03  4384   0.894E-02    0.545E+00
RMM:  98    -0.409650998299E+03    0.76238E+00   -0.13894E-01  4373   0.140E-01    0.399E+00
RMM:  99    -0.409719442243E+03   -0.68444E-01   -0.25372E-03  4272   0.701E-02    0.528E+00
RMM: 100    -0.409979740764E+03   -0.26030E+00   -0.96522E-02  4401   0.129E-01    0.422E+00
RMM: 101    -0.410002078516E+03   -0.22338E-01   -0.59043E-03  4599   0.872E-02    0.418E+00
RMM: 102    -0.410022072028E+03   -0.19994E-01   -0.13397E-03  5623   0.333E-02    0.420E+00
RMM: 103    -0.409454621305E+03    0.56745E+00   -0.32416E-02  4350   0.673E-02    0.197E+00
RMM: 104    -0.409474060663E+03   -0.19439E-01   -0.36123E-03  4541   0.807E-02    0.127E+00
RMM: 105    -0.409469783577E+03    0.42771E-02   -0.11390E-03  4887   0.458E-02    0.357E-01
RMM: 106    -0.409600289950E+03   -0.13051E+00   -0.51140E-03  4267   0.375E-02    0.396E+00
RMM: 107    -0.410021977720E+03   -0.42169E+00   -0.48510E-03  4473   0.713E-02    0.535E+00
RMM: 108    -0.409855066008E+03    0.16691E+00   -0.12150E-01  4391   0.142E-01    0.414E+00
RMM: 109    -0.410086770184E+03   -0.23170E+00   -0.71190E-03  4388   0.922E-02    0.541E+00
RMM: 110    -0.410007467709E+03    0.79302E-01   -0.16690E-01  4380   0.153E-01    0.421E+00
RMM: 111    -0.409744406781E+03    0.26306E+00   -0.86365E-03  4360   0.876E-02    0.534E+00
RMM: 112    -0.410003771514E+03   -0.25936E+00   -0.10420E-01  4367   0.128E-01    0.420E+00
RMM: 113    -0.409593176137E+03    0.41060E+00   -0.65491E-03  4340   0.817E-02    0.529E+00
RMM: 114    -0.410196922253E+03   -0.60375E+00   -0.11987E-01  4377   0.134E-01    0.432E+00
RMM: 115    -0.409517838781E+03    0.67908E+00   -0.17720E-02  4345   0.914E-02    0.483E+00
RMM: 116    -0.410217599995E+03   -0.69976E+00   -0.11129E-01  4374   0.126E-01    0.432E+00
RMM: 117    -0.409642338221E+03    0.57526E+00   -0.45175E-02  4296   0.101E-01    0.390E+00
RMM: 118    -0.409465879090E+03    0.17646E+00   -0.71104E-03  4715   0.404E-02    0.271E+00
RMM: 119    -0.409782269543E+03   -0.31639E+00   -0.28027E-02  4270   0.945E-02    0.402E+00
RMM: 120    -0.409465167583E+03    0.31710E+00   -0.11180E-02  4269   0.737E-02    0.165E+00
RMM: 121    -0.409830918373E+03   -0.36575E+00   -0.30846E-02  4275   0.831E-02    0.407E+00
RMM: 122    -0.409618041544E+03    0.21288E+00   -0.79097E-03  4268   0.713E-02    0.393E+00
RMM: 123    -0.409526716786E+03    0.91325E-01   -0.24273E-03  4465   0.219E-02    0.385E+00
RMM: 124    -0.409525836454E+03    0.88033E-03   -0.15406E-04  3776   0.613E-03    0.385E+00
RMM: 125    -0.409526969724E+03   -0.11333E-02   -0.20355E-05  2654   0.227E-03    0.385E+00
RMM: 126    -0.409519080077E+03    0.78896E-02   -0.12592E-05  2831   0.212E-03    0.383E+00
RMM: 127    -0.409485245757E+03    0.33834E-01   -0.22103E-04  3782   0.548E-03    0.347E+00
RMM: 128    -0.409477362785E+03    0.78830E-02   -0.69814E-05  3569   0.679E-03    0.309E+00
RMM: 129    -0.409489185227E+03   -0.11822E-01   -0.63688E-05  2956   0.787E-03    0.338E+00
RMM: 130    -0.409468620873E+03    0.20564E-01   -0.78929E-05  3592   0.494E-03    0.242E+00
RMM: 131    -0.409504766020E+03   -0.36145E-01   -0.40658E-04  3836   0.155E-02    0.363E+00
RMM: 132    -0.409455299487E+03    0.49467E-01   -0.65179E-04  4078   0.170E-02    0.460E-01
RMM: 133    -0.409562420648E+03   -0.10712E+00   -0.53251E-03  4268   0.511E-02    0.389E+00
RMM: 134    -0.409473566015E+03    0.88855E-01   -0.20844E-03  4264   0.421E-02    0.309E+00
RMM: 135    -0.409571563206E+03   -0.97997E-01   -0.82841E-03  4291   0.840E-02    0.392E+00
RMM: 136    -0.409471119790E+03    0.10044E+00   -0.26754E-03  4272   0.666E-02    0.240E+00
RMM: 137    -0.409559464409E+03   -0.88345E-01   -0.59508E-03  4273   0.747E-02    0.391E+00
RMM: 138    -0.409468021921E+03    0.91442E-01   -0.29141E-03  4283   0.664E-02    0.211E+00
RMM: 139    -0.409557977253E+03   -0.89955E-01   -0.57474E-03  4283   0.738E-02    0.391E+00
RMM: 140    -0.409471089353E+03    0.86888E-01   -0.23409E-03  4282   0.635E-02    0.251E+00
RMM: 141    -0.409540971951E+03   -0.69883E-01   -0.50076E-03  4284   0.754E-02    0.389E+00
RMM: 142    -0.409461109628E+03    0.79862E-01   -0.27719E-03  4291   0.684E-02    0.661E-01
RMM: 143    -0.409556835775E+03   -0.95726E-01   -0.45026E-03  4267   0.571E-02    0.390E+00
RMM: 144    -0.409462908387E+03    0.93927E-01   -0.27766E-03  4266   0.539E-02    0.174E+00
RMM: 145    -0.409536973748E+03   -0.74065E-01   -0.46148E-03  4285   0.712E-02    0.387E+00
RMM: 146    -0.409464406983E+03    0.72567E-01   -0.26377E-03  4286   0.622E-02    0.171E+00
RMM: 147    -0.409537548196E+03   -0.73141E-01   -0.45123E-03  4286   0.695E-02    0.387E+00
RMM: 148    -0.409462279271E+03    0.75269E-01   -0.27510E-03  4286   0.630E-02    0.132E+00
RMM: 149    -0.409522976705E+03   -0.60697E-01   -0.37802E-03  4271   0.621E-02    0.378E+00
RMM: 150    -0.409461970564E+03    0.61006E-01   -0.23775E-03  4276   0.569E-02    0.125E+00
RMM: 151    -0.409515074820E+03   -0.53104E-01   -0.33432E-03  4270   0.609E-02    0.368E+00
RMM: 152    -0.409460925209E+03    0.54150E-01   -0.23456E-03  4272   0.588E-02    0.792E-01
RMM: 153    -0.409519054492E+03   -0.58129E-01   -0.22363E-03  4237   0.380E-02    0.379E+00
RMM: 154    -0.409457074705E+03    0.61980E-01   -0.20642E-03  4250   0.411E-02    0.810E-01
RMM: 155    -0.409492786228E+03   -0.35712E-01   -0.24930E-03  4261   0.590E-02    0.298E+00
RMM: 156    -0.409465325870E+03    0.27460E-01   -0.15646E-03  4249   0.485E-02    0.109E+00
RMM: 157    -0.409507594293E+03   -0.42268E-01   -0.13181E-03  4176   0.271E-02    0.365E+00
RMM: 158    -0.409458226587E+03    0.49368E-01   -0.17340E-03  4244   0.376E-02    0.913E-01
RMM: 159    -0.409472244890E+03   -0.14018E-01   -0.14690E-03  4264   0.559E-02    0.314E-01
RMM: 160    -0.409477111734E+03   -0.48668E-02   -0.21125E-04  3739   0.209E-02    0.166E+00
RMM: 161    -0.409473266594E+03    0.38451E-02   -0.51249E-04  4079   0.320E-02    0.183E+00
RMM: 162    -0.409471579453E+03    0.16871E-02   -0.13495E-04  3111   0.106E-02    0.172E+00
RMM: 163    -0.409469683625E+03    0.18958E-02   -0.42604E-06  2534   0.173E-03    0.144E+00
RMM: 164    -0.409467206877E+03    0.24767E-02   -0.51984E-05  2978   0.666E-03    0.716E-01
RMM: 165    -0.409470038488E+03   -0.28316E-02   -0.20049E-04  3643   0.166E-02    0.583E-01
RMM: 166    -0.409480799982E+03   -0.10761E-01   -0.44410E-04  4152   0.318E-02    0.220E+00
RMM: 167    -0.409465721749E+03    0.15078E-01   -0.34576E-04  4276   0.294E-02    0.132E+00
RMM: 168    -0.409467093778E+03   -0.13720E-02   -0.73504E-05  4194   0.105E-02    0.445E-01
RMM: 169    -0.409470930186E+03   -0.38364E-02   -0.21948E-04  4155   0.194E-02    0.151E-01
RMM: 170    -0.409472058127E+03   -0.11279E-02   -0.20418E-04  3942   0.213E-02    0.231E-02
RMM: 171    -0.409472060218E+03   -0.20913E-05   -0.51205E-06  2652   0.341E-03    0.334E-02
RMM: 172    -0.409472058941E+03    0.12773E-05   -0.92021E-07  2354   0.168E-03    0.275E-02
RMM: 173    -0.409472057456E+03    0.14843E-05   -0.46875E-07  2039   0.116E-03    0.344E-03
RMM: 174    -0.409472058353E+03   -0.89675E-06   -0.14062E-06  2296   0.211E-03
  148 T=  2241. E= -.39846412E+03 F= -.40947206E+03 E0= -.40943548E+03  EK= 0.11008E+02 SP= 0.00E+00 SK= 0.00E+00
       N       E                     dE             d eps       ncg     rms          rms(c)
RMM:   1    -0.407915542917E+03    0.15565E+01   -0.12409E+01  5665   0.570E+00    0.540E+00
RMM:   2    -0.414378340827E+03   -0.64628E+01   -0.25625E+01  4734   0.433E+00    0.758E+00
RMM:   3    -0.415011480714E+03   -0.63314E+00   -0.69978E+00  5278   0.257E+00    0.910E+00
RMM:   4    -0.410972781661E+03    0.40387E+01   -0.15068E+00  4841   0.145E+00    0.553E+00
RMM:   5    -0.410408709696E+03    0.56407E+00   -0.39618E-01  5780   0.585E-01    0.491E+00
RMM:   6    -0.409577182132E+03    0.83153E+00   -0.16072E-01  5277   0.355E-01    0.531E+00
RMM:   7    -0.409564591269E+03    0.12591E-01   -0.28687E-02  6233   0.155E-01    0.515E+00
RMM:   8    -0.409499878360E+03    0.64713E-01   -0.27341E-02  5272   0.172E-01    0.308E+00
RMM:   9    -0.409523709774E+03   -0.23831E-01   -0.36872E-02  5530   0.211E-01    0.340E+00
RMM:  10    -0.409554808506E+03   -0.31099E-01   -0.11358E-01  5241   0.375E-01    0.147E+00
RMM:  11    -0.409736796126E+03   -0.18199E+00   -0.26380E-02  5877   0.185E-01    0.538E+00
RMM:  12    -0.409590035661E+03    0.14676E+00   -0.92188E-03  5925   0.106E-01    0.451E+00
RMM:  13    -0.409633385448E+03   -0.43350E-01   -0.10939E-02  4754   0.880E-02    0.396E+00
RMM:  14    -0.409560443897E+03    0.72942E-01   -0.74447E-03  5200   0.122E-01    0.251E+00
RMM:  15    -0.409560616423E+03   -0.17253E-03   -0.47973E-03  5919   0.623E-02    0.354E+00
RMM:  16    -0.409576256525E+03   -0.15640E-01   -0.58587E-03  5240   0.817E-02    0.374E+00
RMM:  17    -0.409528475009E+03    0.47782E-01   -0.61477E-03  5338   0.914E-02    0.189E+00
RMM:  18    -0.409541545924E+03   -0.13071E-01   -0.47925E-03  5930   0.757E-02    0.266E+00
RMM:  19    -0.409516971226E+03    0.24575E-01   -0.41992E-03  5646   0.719E-02    0.104E+00
RMM:  20    -0.409520095587E+03   -0.31244E-02   -0.30812E-03  5947   0.617E-02    0.116E+00
RMM:  21    -0.409512237266E+03    0.78583E-02   -0.31445E-03  5887   0.588E-02    0.517E-01
RMM:  22    -0.409509080044E+03    0.31572E-02   -0.36461E-03  5883   0.598E-02    0.527E-01
RMM:  23    -0.409504396123E+03    0.46839E-02   -0.70415E-03  5713   0.787E-02    0.826E-01
RMM:  24    -0.409499295388E+03    0.51007E-02   -0.10122E-02  5931   0.943E-02    0.449E-01
RMM:  25    -0.409499089651E+03    0.20574E-03   -0.55290E-03  6176   0.648E-02    0.212E-01
RMM:  26    -0.409499560983E+03   -0.47133E-03   -0.80015E-04  6225   0.265E-02    0.249E-01
RMM:  27    -0.409499581887E+03   -0.20904E-04   -0.11936E-04  4902   0.851E-03    0.181E-01
RMM:  28    -0.409499808427E+03   -0.22654E-03   -0.20867E-04  4060   0.230E-02    0.465E-02
RMM:  29    -0.409499841040E+03   -0.32613E-04   -0.38367E-05  3525   0.993E-03    0.131E-02
RMM:  30    -0.409499878523E+03   -0.37484E-04   -0.25716E-05  3985   0.546E-03    0.137E-02
RMM:  31    -0.409499906431E+03   -0.27908E-04   -0.17567E-05  3645   0.411E-03    0.640E-02
RMM:  32    -0.409499915654E+03   -0.92222E-05   -0.10615E-05  3046   0.512E-03    0.691E-02
RMM:  33    -0.409499913095E+03    0.25587E-05   -0.70952E-06  2958   0.321E-03    0.392E-02
RMM:  34    -0.409499917724E+03   -0.46291E-05   -0.71898E-06  3185   0.346E-03    0.118E-02
RMM:  35    -0.409499920643E+03   -0.29186E-05   -0.51701E-06  2812   0.351E-03    0.237E-03
RMM:  36    -0.409499920874E+03   -0.23161E-06   -0.23838E-06  2584   0.225E-03
  149 T=  2242. E= -.39848577E+03 F= -.40949992E+03 E0= -.40946432E+03  EK= 0.11014E+02 SP= 0.00E+00 SK= 0.00E+00
       N       E                     dE             d eps       ncg     rms          rms(c)
RMM:   1    -0.407938989319E+03    0.15609E+01   -0.15700E+01  5707   0.598E+00    0.539E+00
RMM:   2    -0.414267663417E+03   -0.63287E+01   -0.25499E+01  4837   0.419E+00    0.755E+00
RMM:   3    -0.414903271495E+03   -0.63561E+00   -0.72938E+00  5326   0.261E+00    0.911E+00
RMM:   4    -0.410866952838E+03    0.40363E+01   -0.15500E+00  4829   0.148E+00    0.550E+00
RMM:   5    -0.410302418957E+03    0.56453E+00   -0.41098E-01  5806   0.596E-01    0.486E+00
RMM:   6    -0.409437942473E+03    0.86448E+00   -0.18217E-01  5315   0.355E-01    0.414E+00
RMM:   7    -0.409448489620E+03   -0.10547E-01   -0.30530E-02  6197   0.153E-01    0.433E+00
RMM:   8    -0.409431436543E+03    0.17053E-01   -0.29082E-03  5368   0.550E-02    0.393E+00
RMM:   9    -0.409478658285E+03   -0.47222E-01   -0.14608E-02  5382   0.127E-01    0.516E+00
RMM:  10    -0.409477926777E+03    0.73151E-03   -0.10849E-03  5352   0.471E-02    0.523E+00
RMM:  11    -0.409449888749E+03    0.28038E-01   -0.42736E-03  5176   0.721E-02    0.492E+00
RMM:  12    -0.409719674926E+03   -0.26979E+00   -0.13298E+00  5240   0.116E+00    0.424E+00
RMM:  13    -0.410009295354E+03   -0.28962E+00   -0.17463E-01  5874   0.427E-01    0.563E+00
RMM:  14    -0.409828598266E+03    0.18070E+00   -0.31381E-02  5321   0.229E-01    0.552E+00
RMM:  15    -0.409491827880E+03    0.33677E+00   -0.51689E-02  5790   0.227E-01    0.164E+00
RMM:  16    -0.409516802834E+03   -0.24975E-01   -0.20451E-01  5510   0.448E-01    0.390E+00
RMM:  17    -0.409400526227E+03    0.11628E+00   -0.11993E-01  6071   0.315E-01    0.398E-01
RMM:  18    -0.409415787766E+03   -0.15262E-01   -0.93412E-03  5493   0.117E-01    0.550E-01
RMM:  19    -0.409417957758E+03   -0.21700E-02   -0.46975E-03  6074   0.551E-02    0.147E+00
RMM:  20    -0.409417699758E+03    0.25800E-03   -0.17808E-03  5188   0.548E-02    0.173E+00
RMM:  21    -0.409410365036E+03    0.73347E-02   -0.35704E-03  5345   0.761E-02    0.697E-01
RMM:  22    -0.409414681310E+03   -0.43163E-02   -0.10710E-03  5069   0.510E-02    0.877E-01
RMM:  23    -0.409412525077E+03    0.21562E-02   -0.11333E-03  5396   0.460E-02    0.292E-01
RMM:  24    -0.409413418007E+03   -0.89293E-03   -0.78537E-04  6112   0.237E-02    0.326E-01
RMM:  25    -0.409413384573E+03    0.33435E-04   -0.19927E-04  5581   0.953E-03    0.212E-01
RMM:  26    -0.409413432877E+03   -0.48304E-04   -0.27297E-05  3296   0.720E-03    0.151E-01
RMM:  27    -0.409413502597E+03   -0.69720E-04   -0.20694E-05  3367   0.572E-03    0.936E-02
RMM:  28    -0.409413575101E+03   -0.72504E-04   -0.16289E-05  3089   0.530E-03    0.969E-02
RMM:  29    -0.409413600218E+03   -0.25117E-04   -0.52128E-05  3375   0.125E-02    0.456E-03
RMM:  30    -0.409413628854E+03   -0.28637E-04   -0.90862E-06  2800   0.482E-03    0.411E-03
RMM:  31    -0.409413651882E+03   -0.23028E-04   -0.77567E-06  2936   0.288E-03    0.417E-03
RMM:  32    -0.409413670303E+03   -0.18420E-04   -0.38175E-06  2699   0.187E-03    0.932E-03
RMM:  33    -0.409413684631E+03   -0.14328E-04   -0.21884E-06  2541   0.180E-03    0.102E-02
RMM:  34    -0.409413693148E+03   -0.85171E-05   -0.14791E-06  2460   0.131E-03    0.346E-03
RMM:  35    -0.409413696646E+03   -0.34984E-05   -0.78540E-07  1927   0.131E-03    0.544E-03
RMM:  36    -0.409413699301E+03   -0.26550E-05   -0.52239E-07  1594   0.822E-04    0.389E-03
RMM:  37    -0.409413701919E+03   -0.26183E-05   -0.31055E-07  1541   0.722E-04    0.202E-03
RMM:  38    -0.409413702589E+03   -0.66997E-06   -0.16352E-07  1260   0.730E-04
  150 T=  2235. E= -.39843433E+03 F= -.40941370E+03 E0= -.40937765E+03  EK= 0.10979E+02 SP= 0.00E+00 SK= 0.00E+00
