       N       E                     dE             d eps       ncg     rms          rms(c)
RMM:   1     0.220155177383E+04    0.22016E+04   -0.52441E+04  2132   0.654E+02
RMM:   2     0.705191773186E+03   -0.14964E+04   -0.16266E+04  2132   0.177E+02
RMM:   3     0.137849976299E+03   -0.56734E+03   -0.65689E+03  2132   0.117E+02
RMM:   4    -0.159442728320E+03   -0.29729E+03   -0.27853E+03  2132   0.936E+01
RMM:   5    -0.287346601899E+03   -0.12790E+03   -0.11420E+03  2132   0.595E+01
RMM:   6    -0.349728213011E+03   -0.62382E+02   -0.55149E+02  2132   0.423E+01
RMM:   7    -0.382652536825E+03   -0.32924E+02   -0.30423E+02  2132   0.293E+01
RMM:   8    -0.404135807009E+03   -0.21483E+02   -0.18461E+02  2132   0.233E+01
RMM:   9    -0.435999383354E+03   -0.31864E+02   -0.30755E+02  6110   0.173E+01
RMM:  10    -0.441293625244E+03   -0.52942E+01   -0.63503E+01  6388   0.539E+00
RMM:  11    -0.442485066873E+03   -0.11914E+01   -0.11152E+01  6214   0.173E+00
RMM:  12    -0.442847608152E+03   -0.36254E+00   -0.25910E+00  6366   0.602E-01    0.134E+02
RMM:  13    -0.425488731142E+03    0.17359E+02   -0.80588E+01  4678   0.119E+01    0.712E+01
RMM:  14    -0.497818396716E+03   -0.72330E+02   -0.53188E+02  5417   0.231E+01    0.304E+01
RMM:  15    -0.413444983617E+03    0.84373E+02   -0.19108E+02  5044   0.161E+01    0.556E+00
RMM:  16    -0.414145725637E+03   -0.70074E+00   -0.38853E+01  6063   0.597E+00    0.437E+00
RMM:  17    -0.413253523595E+03    0.89220E+00   -0.21764E+00  5298   0.176E+00    0.255E+00
RMM:  18    -0.413156438253E+03    0.97085E-01   -0.10976E+00  5912   0.109E+00    0.154E+00
RMM:  19    -0.413170089461E+03   -0.13651E-01   -0.26518E-01  5763   0.540E-01    0.877E-01
RMM:  20    -0.413189854522E+03   -0.19765E-01   -0.21727E-01  5235   0.526E-01    0.610E-01
RMM:  21    -0.413169794412E+03    0.20060E-01   -0.35509E-02  4968   0.240E-01    0.294E-01
RMM:  22    -0.413167253613E+03    0.25408E-02   -0.16877E-02  6114   0.116E-01    0.163E-01
RMM:  23    -0.413165213197E+03    0.20404E-02   -0.60127E-03  5929   0.726E-02    0.829E-02
RMM:  24    -0.413163500937E+03    0.17123E-02   -0.19297E-03  5698   0.445E-02    0.377E-02
RMM:  25    -0.413163090982E+03    0.40995E-03   -0.78399E-04  5891   0.252E-02    0.270E-02
RMM:  26    -0.413163206413E+03   -0.11543E-03   -0.60117E-04  5817   0.261E-02    0.309E-02
RMM:  27    -0.413163588625E+03   -0.38221E-03   -0.18057E-04  4594   0.194E-02    0.185E-02
RMM:  28    -0.413164012383E+03   -0.42376E-03   -0.17382E-04  5201   0.190E-02    0.900E-03
RMM:  29    -0.413164392320E+03   -0.37994E-03   -0.11302E-04  4396   0.161E-02    0.338E-03
RMM:  30    -0.413164615808E+03   -0.22349E-03   -0.93844E-05  4144   0.107E-02    0.301E-03
RMM:  31    -0.413164680239E+03   -0.64431E-04   -0.39590E-05  3091   0.484E-03    0.204E-03
RMM:  32    -0.413164696893E+03   -0.16655E-04   -0.14128E-05  2888   0.259E-03    0.103E-03
RMM:  33    -0.413164701085E+03   -0.41917E-05   -0.72634E-06  2717   0.187E-03    0.631E-04
RMM:  34    -0.413164701267E+03   -0.18213E-06   -0.32769E-06  2527   0.144E-03
    1 T=    61. E= -.41286689E+03 F= -.41316470E+03 E0= -.41314220E+03  EK= 0.29781E+00 SP= 0.00E+00 SK= 0.00E+00
       N       E                     dE             d eps       ncg     rms          rms(c)
RMM:   1    -0.413173614954E+03   -0.89139E-02   -0.63431E+00  3973   0.495E-01    0.907E-01
RMM:   2    -0.413171564032E+03    0.20509E-02   -0.81889E-02  4023   0.762E-02    0.664E-01
RMM:   3    -0.413167611901E+03    0.39521E-02   -0.49944E-02  5080   0.767E-02    0.303E-01
RMM:   4    -0.413187355204E+03   -0.19743E-01   -0.29820E-02  5169   0.146E-01    0.636E-01
RMM:   5    -0.413164256120E+03    0.23099E-01   -0.11573E-02  4774   0.108E-01    0.474E-02
RMM:   6    -0.413164401590E+03   -0.14547E-03   -0.19699E-03  5665   0.433E-02    0.306E-02
RMM:   7    -0.413164419977E+03   -0.18387E-04   -0.34811E-04  5751   0.166E-02    0.202E-02
RMM:   8    -0.413164421084E+03   -0.11069E-05   -0.43086E-05  4968   0.735E-03    0.728E-03
RMM:   9    -0.413164424478E+03   -0.33944E-05   -0.89041E-06  3271   0.318E-03    0.477E-03
RMM:  10    -0.413164430270E+03   -0.57911E-05   -0.18796E-06  2564   0.202E-03    0.291E-03
RMM:  11    -0.413164434638E+03   -0.43689E-05   -0.10607E-06  2509   0.147E-03    0.142E-03
RMM:  12    -0.413164440630E+03   -0.59921E-05   -0.10649E-06  2498   0.140E-03    0.705E-04
RMM:  13    -0.413164443548E+03   -0.29174E-05   -0.54727E-07  2125   0.103E-03    0.449E-04
RMM:  14    -0.413164443988E+03   -0.44046E-06   -0.29685E-07  1599   0.764E-04
    2 T=    61. E= -.41286667E+03 F= -.41316444E+03 E0= -.41314194E+03  EK= 0.29777E+00 SP= 0.00E+00 SK= 0.00E+00
       N       E                     dE             d eps       ncg     rms          rms(c)
RMM:   1    -0.413174706970E+03   -0.10263E-01   -0.62939E+00  4192   0.494E-01    0.923E-01
RMM:   2    -0.413171791371E+03    0.29156E-02   -0.82150E-02  4082   0.776E-02    0.663E-01
RMM:   3    -0.413168577659E+03    0.32137E-02   -0.46484E-02  5090   0.789E-02    0.290E-01
RMM:   4    -0.413188294684E+03   -0.19717E-01   -0.31102E-02  5138   0.151E-01    0.640E-01
RMM:   5    -0.413164867115E+03    0.23428E-01   -0.11071E-02  4731   0.107E-01    0.473E-02
RMM:   6    -0.413164999720E+03   -0.13260E-03   -0.19491E-03  5653   0.433E-02    0.325E-02
RMM:   7    -0.413164994534E+03    0.51863E-05   -0.34511E-04  5631   0.177E-02    0.216E-02
RMM:   8    -0.413164988062E+03    0.64712E-05   -0.47415E-05  5103   0.803E-03    0.847E-03
RMM:   9    -0.413164986934E+03    0.11279E-05   -0.91353E-06  3365   0.348E-03    0.518E-03
RMM:  10    -0.413164987309E+03   -0.37450E-06   -0.16925E-06  2545   0.212E-03
    3 T=    61. E= -.41286701E+03 F= -.41316499E+03 E0= -.41314249E+03  EK= 0.29798E+00 SP= 0.00E+00 SK= 0.00E+00
       N       E                     dE             d eps       ncg     rms          rms(c)
RMM:   1    -0.413174059222E+03   -0.90723E-02   -0.62545E+00  4216   0.500E-01    0.908E-01
RMM:   2    -0.413171386829E+03    0.26724E-02   -0.81584E-02  4181   0.768E-02    0.657E-01
RMM:   3    -0.413172569501E+03   -0.11827E-02   -0.49308E-02  5164   0.968E-02    0.399E-01
RMM:   4    -0.413180595593E+03   -0.80261E-02   -0.29838E-02  5082   0.151E-01    0.538E-01
RMM:   5    -0.413164728200E+03    0.15867E-01   -0.74214E-03  4627   0.888E-02    0.471E-02
RMM:   6    -0.413164770236E+03   -0.42036E-04   -0.12474E-03  5433   0.345E-02    0.298E-02
RMM:   7    -0.413164773674E+03   -0.34375E-05   -0.23729E-04  5623   0.144E-02    0.187E-02
RMM:   8    -0.413164770079E+03    0.35945E-05   -0.34965E-05  4888   0.692E-03    0.650E-03
RMM:   9    -0.413164769968E+03    0.11165E-06   -0.47577E-06  2851   0.272E-03
    4 T=    61. E= -.41286682E+03 F= -.41316477E+03 E0= -.41314228E+03  EK= 0.29795E+00 SP= 0.00E+00 SK= 0.00E+00
       N       E                     dE             d eps       ncg     rms          rms(c)
RMM:   1    -0.413174115466E+03   -0.93454E-02   -0.63427E+00  4240   0.516E-01    0.904E-01
RMM:   2    -0.413171705007E+03    0.24105E-02   -0.82948E-02  4129   0.741E-02    0.662E-01
RMM:   3    -0.413172456982E+03   -0.75197E-03   -0.52160E-02  5160   0.946E-02    0.407E-01
RMM:   4    -0.413181672616E+03   -0.92156E-02   -0.30221E-02  5091   0.151E-01    0.558E-01
RMM:   5    -0.413164848665E+03    0.16824E-01   -0.84285E-03  4638   0.925E-02    0.466E-02
RMM:   6    -0.413164903178E+03   -0.54513E-04   -0.12963E-03  5505   0.354E-02    0.289E-02
RMM:   7    -0.413164919422E+03   -0.16244E-04   -0.24505E-04  5653   0.144E-02    0.182E-02
RMM:   8    -0.413164920128E+03   -0.70543E-06   -0.34255E-05  4852   0.690E-03    0.614E-03
RMM:   9    -0.413164922784E+03   -0.26562E-05   -0.48124E-06  2873   0.272E-03    0.360E-03
RMM:  10    -0.413164927768E+03   -0.49847E-05   -0.13211E-06  2533   0.179E-03    0.218E-03
RMM:  11    -0.413164931564E+03   -0.37954E-05   -0.79113E-07  2413   0.133E-03    0.105E-03
RMM:  12    -0.413164936234E+03   -0.46699E-05   -0.83864E-07  2436   0.123E-03    0.542E-04
RMM:  13    -0.413164938650E+03   -0.24158E-05   -0.45274E-07  1876   0.933E-04    0.329E-04
RMM:  14    -0.413164939523E+03   -0.87309E-06   -0.24376E-07  1446   0.756E-04
    5 T=    61. E= -.41286685E+03 F= -.41316494E+03 E0= -.41314246E+03  EK= 0.29809E+00 SP= 0.00E+00 SK= 0.00E+00
       N       E                     dE             d eps       ncg     rms          rms(c)
RMM:   1    -0.413174975076E+03   -0.10036E-01   -0.63120E+00  4246   0.508E-01    0.920E-01
RMM:   2    -0.413172103385E+03    0.28717E-02   -0.82023E-02  4081   0.729E-02    0.663E-01
RMM:   3    -0.413169484465E+03    0.26189E-02   -0.47432E-02  5117   0.774E-02    0.311E-01
RMM:   4    -0.413187651323E+03   -0.18167E-01   -0.30909E-02  5115   0.150E-01    0.628E-01
RMM:   5    -0.413165269120E+03    0.22382E-01   -0.10588E-02  4709   0.105E-01    0.471E-02
RMM:   6    -0.413165392990E+03   -0.12387E-03   -0.18246E-03  5619   0.419E-02    0.318E-02
RMM:   7    -0.413165392814E+03    0.17555E-06   -0.32264E-04  5625   0.169E-02    0.211E-02
RMM:   8    -0.413165389025E+03    0.37899E-05   -0.44819E-05  5052   0.776E-03    0.806E-03
RMM:   9    -0.413165388189E+03    0.83583E-06   -0.80307E-06  3233   0.332E-03
    6 T=    61. E= -.41286705E+03 F= -.41316539E+03 E0= -.41314293E+03  EK= 0.29833E+00 SP= 0.00E+00 SK= 0.00E+00
       N       E                     dE             d eps       ncg     rms          rms(c)
RMM:   1    -0.413174532828E+03   -0.91438E-02   -0.62702E+00  4269   0.512E-01    0.914E-01
RMM:   2    -0.413171866723E+03    0.26661E-02   -0.81781E-02  4238   0.729E-02    0.658E-01
RMM:   3    -0.413175322990E+03   -0.34563E-02   -0.50135E-02  5163   0.107E-01    0.444E-01
RMM:   4    -0.413178308689E+03   -0.29857E-02   -0.29459E-02  5054   0.151E-01    0.492E-01
RMM:   5    -0.413165162280E+03    0.13146E-01   -0.61074E-03  4567   0.826E-02    0.469E-02
RMM:   6    -0.413165175460E+03   -0.13181E-04   -0.99253E-04  5331   0.311E-02    0.297E-02
RMM:   7    -0.413165184441E+03   -0.89812E-05   -0.19954E-04  5493   0.140E-02    0.176E-02
RMM:   8    -0.413165181079E+03    0.33626E-05   -0.30791E-05  4779   0.695E-03    0.584E-03
RMM:   9    -0.413165180279E+03    0.79962E-06   -0.40369E-06  2761   0.255E-03
    7 T=    61. E= -.41286679E+03 F= -.41316518E+03 E0= -.41314273E+03  EK= 0.29839E+00 SP= 0.00E+00 SK= 0.00E+00
       N       E                     dE             d eps       ncg     rms          rms(c)
RMM:   1    -0.413174758734E+03   -0.95777E-02   -0.63348E+00  4270   0.521E-01    0.903E-01
RMM:   2    -0.413172769802E+03    0.19889E-02   -0.81801E-02  4139   0.724E-02    0.660E-01
RMM:   3    -0.413172493503E+03    0.27630E-03   -0.51223E-02  5108   0.937E-02    0.388E-01
RMM:   4    -0.413183418646E+03   -0.10925E-01   -0.29891E-02  5075   0.150E-01    0.571E-01
RMM:   5    -0.413165684884E+03    0.17734E-01   -0.87676E-03  4650   0.947E-02    0.461E-02
RMM:   6    -0.413165753581E+03   -0.68697E-04   -0.14032E-03  5555   0.366E-02    0.296E-02
RMM:   7    -0.413165756043E+03   -0.24622E-05   -0.26114E-04  5608   0.151E-02    0.188E-02
RMM:   8    -0.413165752055E+03    0.39884E-05   -0.34792E-05  4828   0.705E-03    0.643E-03
RMM:   9    -0.413165753705E+03   -0.16498E-05   -0.55423E-06  2942   0.284E-03    0.385E-03
RMM:  10    -0.413165757182E+03   -0.34770E-05   -0.13363E-06  2524   0.184E-03    0.234E-03
RMM:  11    -0.413165759513E+03   -0.23309E-05   -0.77015E-07  2433   0.134E-03    0.112E-03
RMM:  12    -0.413165762322E+03   -0.28089E-05   -0.83184E-07  2456   0.126E-03    0.583E-04
RMM:  13    -0.413165763532E+03   -0.12104E-05   -0.44637E-07  1919   0.947E-04    0.350E-04
RMM:  14    -0.413165763596E+03   -0.63657E-07   -0.20864E-07  1425   0.742E-04
    8 T=    61. E= -.41286701E+03 F= -.41316576E+03 E0= -.41314333E+03  EK= 0.29875E+00 SP= 0.00E+00 SK= 0.00E+00
       N       E                     dE             d eps       ncg     rms          rms(c)
RMM:   1    -0.413175365325E+03   -0.96018E-02   -0.63419E+00  4279   0.522E-01    0.916E-01
RMM:   2    -0.413172922666E+03    0.24427E-02   -0.82087E-02  4164   0.760E-02    0.664E-01
RMM:   3    -0.413170211038E+03    0.27116E-02   -0.48376E-02  5062   0.832E-02    0.321E-01
RMM:   4    -0.413188007955E+03   -0.17797E-01   -0.30677E-02  5094   0.150E-01    0.627E-01
RMM:   5    -0.413165830974E+03    0.22177E-01   -0.10637E-02  4703   0.104E-01    0.466E-02
RMM:   6    -0.413165951806E+03   -0.12083E-03   -0.18013E-03  5623   0.414E-02    0.315E-02
RMM:   7    -0.413165947849E+03    0.39578E-05   -0.31893E-04  5603   0.166E-02    0.208E-02
RMM:   8    -0.413165942023E+03    0.58254E-05   -0.43294E-05  5009   0.768E-03    0.780E-03
RMM:   9    -0.413165941545E+03    0.47778E-06   -0.77873E-06  3207   0.331E-03
    9 T=    61. E= -.41286696E+03 F= -.41316594E+03 E0= -.41314353E+03  EK= 0.29898E+00 SP= 0.00E+00 SK= 0.00E+00
       N       E                     dE             d eps       ncg     rms          rms(c)
RMM:   1    -0.413175563538E+03   -0.96215E-02   -0.63019E+00  4294   0.525E-01    0.920E-01
RMM:   2    -0.413172654070E+03    0.29095E-02   -0.82458E-02  4272   0.766E-02    0.660E-01
RMM:   3    -0.413176148026E+03   -0.34940E-02   -0.49913E-02  5135   0.108E-01    0.442E-01
RMM:   4    -0.413179313961E+03   -0.31659E-02   -0.29716E-02  5047   0.151E-01    0.494E-01
RMM:   5    -0.413166005219E+03    0.13309E-01   -0.60628E-03  4572   0.826E-02    0.470E-02
RMM:   6    -0.413166009898E+03   -0.46790E-05   -0.10130E-03  5351   0.311E-02    0.300E-02
RMM:   7    -0.413166007719E+03    0.21793E-05   -0.20301E-04  5473   0.141E-02    0.178E-02
RMM:   8    -0.413166003799E+03    0.39200E-05   -0.31263E-05  4772   0.699E-03    0.594E-03
RMM:   9    -0.413166002009E+03    0.17903E-05   -0.43322E-06  2776   0.259E-03    0.317E-03
RMM:  10    -0.413166000508E+03    0.15008E-05   -0.11637E-06  2504   0.171E-03    0.188E-03
RMM:  11    -0.413165998908E+03    0.15996E-05   -0.73033E-07  2354   0.127E-03    0.903E-04
RMM:  12    -0.413165996489E+03    0.24192E-05   -0.65583E-07  2334   0.114E-03    0.469E-04
RMM:  13    -0.413165994552E+03    0.19373E-05   -0.33451E-07  1747   0.859E-04    0.301E-04
RMM:  14    -0.413165992611E+03    0.19405E-05   -0.22112E-07  1397   0.744E-04    0.176E-04
RMM:  15    -0.413165988974E+03    0.36371E-05   -0.36422E-07  1864   0.836E-04    0.326E-04
RMM:  16    -0.413165985128E+03    0.38458E-05   -0.30233E-07  1382   0.710E-04    0.163E-04
RMM:  17    -0.413165984416E+03    0.71231E-06   -0.80298E-08   929   0.549E-04
   10 T=    61. E= -.41286679E+03 F= -.41316598E+03 E0= -.41314360E+03  EK= 0.29919E+00 SP= 0.00E+00 SK= 0.00E+00
       N       E                     dE             d eps       ncg     rms          rms(c)
RMM:   1    -0.413175794250E+03   -0.98091E-02   -0.63310E+00  4292   0.533E-01    0.903E-01
RMM:   2    -0.413173663852E+03    0.21304E-02   -0.81986E-02  4225   0.790E-02    0.659E-01
RMM:   3    -0.413170841769E+03    0.28221E-02   -0.48913E-02  5061   0.800E-02    0.321E-01
RMM:   4    -0.413189114017E+03   -0.18272E-01   -0.30537E-02  5091   0.149E-01    0.631E-01
RMM:   5    -0.413166617497E+03    0.22497E-01   -0.10949E-02  4703   0.105E-01    0.459E-02
RMM:   6    -0.413166751968E+03   -0.13447E-03   -0.18441E-03  5638   0.417E-02    0.315E-02
RMM:   7    -0.413166759451E+03   -0.74830E-05   -0.32416E-04  5554   0.171E-02    0.208E-02
RMM:   8    -0.413166757868E+03    0.15831E-05   -0.43652E-05  5001   0.768E-03    0.798E-03
RMM:   9    -0.413166758566E+03   -0.69760E-06   -0.80617E-06  3238   0.330E-03
   11 T=    61. E= -.41286707E+03 F= -.41316676E+03 E0= -.41314440E+03  EK= 0.29969E+00 SP= 0.00E+00 SK= 0.00E+00
       N       E                     dE             d eps       ncg     rms          rms(c)
RMM:   1    -0.413175948748E+03   -0.91909E-02   -0.63835E+00  4294   0.537E-01    0.914E-01
RMM:   2    -0.413173585569E+03    0.23632E-02   -0.82569E-02  4277   0.785E-02    0.666E-01
RMM:   3    -0.413178628830E+03   -0.50433E-02   -0.53969E-02  5147   0.114E-01    0.486E-01
RMM:   4    -0.413178902821E+03   -0.27399E-03   -0.29990E-02  5040   0.152E-01    0.484E-01
RMM:   5    -0.413166708167E+03    0.12195E-01   -0.62533E-03  4542   0.803E-02    0.458E-02
RMM:   6    -0.413166714787E+03   -0.66195E-05   -0.90613E-04  5284   0.294E-02    0.288E-02
RMM:   7    -0.413166733350E+03   -0.18563E-04   -0.18753E-04  5361   0.137E-02    0.167E-02
RMM:   8    -0.413166733240E+03    0.10984E-06   -0.28754E-05  4666   0.660E-03    0.529E-03
RMM:   9    -0.413166734021E+03   -0.78043E-06   -0.35328E-06  2706   0.240E-03
   12 T=    61. E= -.41286679E+03 F= -.41316673E+03 E0= -.41314440E+03  EK= 0.29994E+00 SP= 0.00E+00 SK= 0.00E+00
       N       E                     dE             d eps       ncg     rms          rms(c)
RMM:   1    -0.413176970835E+03   -0.10238E-01   -0.63448E+00  4295   0.538E-01    0.925E-01
RMM:   2    -0.413173894830E+03    0.30760E-02   -0.82806E-02  4257   0.733E-02    0.663E-01
RMM:   3    -0.413173440882E+03    0.45395E-03   -0.47080E-02  5139   0.882E-02    0.356E-01
RMM:   4    -0.413185960108E+03   -0.12519E-01   -0.30968E-02  5079   0.152E-01    0.576E-01
RMM:   5    -0.413167269786E+03    0.18690E-01   -0.84283E-03  4671   0.961E-02    0.474E-02
RMM:   6    -0.413167341658E+03   -0.71872E-04   -0.14880E-03  5563   0.375E-02    0.314E-02
RMM:   7    -0.413167334543E+03    0.71147E-05   -0.27534E-04  5580   0.160E-02    0.202E-02
RMM:   8    -0.413167327140E+03    0.74034E-05   -0.38473E-05  4907   0.750E-03    0.723E-03
RMM:   9    -0.413167323917E+03    0.32225E-05   -0.62670E-06  3001   0.300E-03    0.407E-03
RMM:  10    -0.413167321485E+03    0.24323E-05   -0.14557E-06  2521   0.194E-03    0.245E-03
RMM:  11    -0.413167319187E+03    0.22982E-05   -0.80177E-07  2459   0.141E-03    0.121E-03
RMM:  12    -0.413167315246E+03    0.39405E-05   -0.87095E-07  2472   0.133E-03    0.631E-04
RMM:  13    -0.413167312281E+03    0.29658E-05   -0.41181E-07  2005   0.982E-04    0.401E-04
RMM:  14    -0.413167310781E+03    0.14995E-05   -0.19108E-07  1468   0.747E-04    0.239E-04
RMM:  15    -0.413167306044E+03    0.47368E-05   -0.31767E-07  1874   0.840E-04    0.388E-04
RMM:  16    -0.413167301101E+03    0.49433E-05   -0.27118E-07  1383   0.715E-04    0.273E-04
RMM:  17    -0.413167300176E+03    0.92512E-06   -0.77520E-08   921   0.559E-04
   13 T=    61. E= -.41286690E+03 F= -.41316730E+03 E0= -.41314500E+03  EK= 0.30040E+00 SP= 0.00E+00 SK= 0.00E+00
       N       E                     dE             d eps       ncg     rms          rms(c)
RMM:   1    -0.413177030736E+03   -0.97296E-02   -0.63389E+00  4293   0.546E-01    0.905E-01
RMM:   2    -0.413174733583E+03    0.22972E-02   -0.82138E-02  4248   0.713E-02    0.659E-01
RMM:   3    -0.413172110773E+03    0.26228E-02   -0.47787E-02  5082   0.781E-02    0.317E-01
RMM:   4    -0.413190532103E+03   -0.18421E-01   -0.31174E-02  5084   0.151E-01    0.632E-01
RMM:   5    -0.413167877042E+03    0.22655E-01   -0.10849E-02  4701   0.105E-01    0.464E-02
RMM:   6    -0.413168006882E+03   -0.12984E-03   -0.18677E-03  5626   0.417E-02    0.319E-02
RMM:   7    -0.413168004539E+03    0.23436E-05   -0.32478E-04  5528   0.173E-02    0.211E-02
RMM:   8    -0.413168000026E+03    0.45130E-05   -0.44503E-05  5014   0.783E-03    0.811E-03
RMM:   9    -0.413167998997E+03    0.10289E-05   -0.83155E-06  3249   0.337E-03    0.493E-03
RMM:  10    -0.413168000022E+03   -0.10249E-05   -0.15269E-06  2520   0.203E-03    0.293E-03
RMM:  11    -0.413168000459E+03   -0.43796E-06   -0.81496E-07  2483   0.144E-03
   14 T=    61. E= -.41286707E+03 F= -.41316800E+03 E0= -.41314573E+03  EK= 0.30093E+00 SP= 0.00E+00 SK= 0.00E+00
       N       E                     dE             d eps       ncg     rms          rms(c)
RMM:   1    -0.413178266580E+03   -0.10267E-01   -0.64423E+00  4297   0.568E-01    0.909E-01
RMM:   2    -0.413175072893E+03    0.31937E-02   -0.87732E-02  4240   0.758E-02    0.668E-01
RMM:   3    -0.413171200914E+03    0.38720E-02   -0.48191E-02  5036   0.736E-02    0.294E-01
RMM:   4    -0.413193420787E+03   -0.22220E-01   -0.31848E-02  5102   0.152E-01    0.668E-01
RMM:   5    -0.413167871515E+03    0.25549E-01   -0.12385E-02  4740   0.112E-01    0.459E-02
RMM:   6    -0.413168040299E+03   -0.16878E-03   -0.21008E-03  5711   0.445E-02    0.320E-02
RMM:   7    -0.413168035989E+03    0.43106E-05   -0.35113E-04  5606   0.181E-02    0.215E-02
RMM:   8    -0.413168031081E+03    0.49081E-05   -0.48876E-05  5020   0.806E-03    0.880E-03
RMM:   9    -0.413168030873E+03    0.20720E-06   -0.96486E-06  3430   0.364E-03
   15 T=    61. E= -.41286675E+03 F= -.41316803E+03 E0= -.41314580E+03  EK= 0.30128E+00 SP= 0.00E+00 SK= 0.00E+00
       N       E                     dE             d eps       ncg     rms          rms(c)
RMM:   1    -0.413178638488E+03   -0.10607E-01   -0.63909E+00  4298   0.551E-01    0.927E-01
RMM:   2    -0.413175896159E+03    0.27423E-02   -0.83358E-02  4328   0.784E-02    0.665E-01
RMM:   3    -0.413183753578E+03   -0.78574E-02   -0.52985E-02  5150   0.124E-01    0.522E-01
RMM:   4    -0.413179292845E+03    0.44607E-02   -0.30434E-02  5002   0.155E-01    0.438E-01
RMM:   5    -0.413169101010E+03    0.10192E-01   -0.47765E-03  4467   0.753E-02    0.458E-02
RMM:   6    -0.413169087736E+03    0.13273E-04   -0.73476E-04  5211   0.270E-02    0.300E-02
RMM:   7    -0.413169089614E+03   -0.18779E-05   -0.16509E-04  5199   0.134E-02    0.164E-02
RMM:   8    -0.413169084841E+03    0.47733E-05   -0.26252E-05  4548   0.653E-03    0.496E-03
RMM:   9    -0.413169082384E+03    0.24571E-05   -0.32485E-06  2667   0.237E-03    0.270E-03
RMM:  10    -0.413169079795E+03    0.25889E-05   -0.99428E-07  2459   0.155E-03    0.154E-03
RMM:  11    -0.413169076831E+03    0.29634E-05   -0.62568E-07  2107   0.115E-03    0.718E-04
RMM:  12    -0.413169072648E+03    0.41832E-05   -0.54996E-07  2192   0.104E-03    0.431E-04
RMM:  13    -0.413169069295E+03    0.33535E-05   -0.25975E-07  1461   0.783E-04    0.288E-04
RMM:  14    -0.413169065669E+03    0.36258E-05   -0.18941E-07  1248   0.711E-04    0.158E-04
RMM:  15    -0.413169060837E+03    0.48320E-05   -0.21701E-07  1465   0.739E-04    0.251E-04
RMM:  16    -0.413169055054E+03    0.57833E-05   -0.21728E-07  1307   0.689E-04    0.133E-04
RMM:  17    -0.413169054165E+03    0.88862E-06   -0.59520E-08   844   0.540E-04
   16 T=    61. E= -.41286707E+03 F= -.41316905E+03 E0= -.41314686E+03  EK= 0.30198E+00 SP= 0.00E+00 SK= 0.00E+00
       N       E                     dE             d eps       ncg     rms          rms(c)
RMM:   1    -0.413178673527E+03   -0.96185E-02   -0.63688E+00  4298   0.560E-01    0.909E-01
RMM:   2    -0.413176491590E+03    0.21819E-02   -0.82968E-02  4242   0.806E-02    0.659E-01
RMM:   3    -0.413173610713E+03    0.28809E-02   -0.46862E-02  5033   0.826E-02    0.308E-01
RMM:   4    -0.413192613542E+03   -0.19003E-01   -0.31499E-02  5077   0.151E-01    0.638E-01
RMM:   5    -0.413169410302E+03    0.23203E-01   -0.10975E-02  4706   0.106E-01    0.465E-02
RMM:   6    -0.413169546938E+03   -0.13664E-03   -0.18930E-03  5654   0.420E-02    0.325E-02
RMM:   7    -0.413169540866E+03    0.60714E-05   -0.33140E-04  5538   0.175E-02    0.214E-02
RMM:   8    -0.413169534164E+03    0.67021E-05   -0.45168E-05  5015   0.807E-03    0.832E-03
RMM:   9    -0.413169531872E+03    0.22928E-05   -0.86112E-06  3281   0.348E-03    0.506E-03
RMM:  10    -0.413169531378E+03    0.49384E-06   -0.16194E-06  2529   0.210E-03
   17 T=    62. E= -.41286697E+03 F= -.41316953E+03 E0= -.41314737E+03  EK= 0.30256E+00 SP= 0.00E+00 SK= 0.00E+00
       N       E                     dE             d eps       ncg     rms          rms(c)
RMM:   1    -0.413179116426E+03   -0.95846E-02   -0.64786E+00  4303   0.568E-01    0.910E-01
RMM:   2    -0.413177170231E+03    0.19462E-02   -0.83956E-02  4288   0.815E-02    0.667E-01
RMM:   3    -0.413178425647E+03   -0.12554E-02   -0.52403E-02  5103   0.103E-01    0.423E-01
RMM:   4    -0.413186270037E+03   -0.78444E-02   -0.30615E-02  5050   0.152E-01    0.550E-01
RMM:   5    -0.413169975459E+03    0.16295E-01   -0.80055E-03  4610   0.907E-02    0.462E-02
RMM:   6    -0.413170034826E+03   -0.59367E-04   -0.13054E-03  5475   0.341E-02    0.295E-02
RMM:   7    -0.413170035742E+03   -0.91605E-06   -0.24035E-04  5492   0.149E-02    0.183E-02
RMM:   8    -0.413170034009E+03    0.17323E-05   -0.34081E-05  4801   0.702E-03    0.617E-03
RMM:   9    -0.413170033945E+03    0.64490E-07   -0.49657E-06  2864   0.276E-03
   18 T=    62. E= -.41286685E+03 F= -.41317003E+03 E0= -.41314792E+03  EK= 0.30319E+00 SP= 0.00E+00 SK= 0.00E+00
       N       E                     dE             d eps       ncg     rms          rms(c)
RMM:   1    -0.413182296516E+03   -0.12263E-01   -0.64659E+00  4297   0.590E-01    0.925E-01
RMM:   2    -0.413177979839E+03    0.43167E-02   -0.87520E-02  4290   0.805E-02    0.668E-01
RMM:   3    -0.413178676121E+03   -0.69628E-03   -0.47571E-02  5128   0.953E-02    0.384E-01
RMM:   4    -0.413189457862E+03   -0.10782E-01   -0.32539E-02  5062   0.156E-01    0.570E-01
RMM:   5    -0.413171224960E+03    0.18233E-01   -0.80177E-03  4636   0.940E-02    0.483E-02
RMM:   6    -0.413171278385E+03   -0.53424E-04   -0.14222E-03  5517   0.362E-02    0.309E-02
RMM:   7    -0.413171282633E+03   -0.42486E-05   -0.26001E-04  5601   0.154E-02    0.195E-02
RMM:   8    -0.413171276442E+03    0.61917E-05   -0.38376E-05  4910   0.737E-03    0.688E-03
RMM:   9    -0.413171272811E+03    0.36311E-05   -0.56099E-06  2935   0.293E-03    0.378E-03
RMM:  10    -0.413171269915E+03    0.28954E-05   -0.13888E-06  2518   0.190E-03    0.230E-03
RMM:  11    -0.413171267143E+03    0.27725E-05   -0.78075E-07  2445   0.138E-03    0.114E-03
RMM:  12    -0.413171262556E+03    0.45864E-05   -0.76719E-07  2452   0.127E-03    0.592E-04
RMM:  13    -0.413171259156E+03    0.34005E-05   -0.34683E-07  1901   0.927E-04    0.366E-04
RMM:  14    -0.413171257056E+03    0.20995E-05   -0.17416E-07  1397   0.724E-04    0.215E-04
RMM:  15    -0.413171250737E+03    0.63188E-05   -0.25920E-07  1727   0.805E-04    0.363E-04
RMM:  16    -0.413171245372E+03    0.53652E-05   -0.17230E-07  1208   0.663E-04    0.246E-04
RMM:  17    -0.413171244041E+03    0.13314E-05   -0.70274E-08   921   0.567E-04    0.159E-04
RMM:  18    -0.413171241298E+03    0.27429E-05   -0.65616E-08  1025   0.590E-04    0.503E-05
RMM:  19    -0.413171240263E+03    0.10345E-05   -0.38016E-08   896   0.559E-04    0.478E-05
RMM:  20    -0.413171239946E+03    0.31778E-06   -0.15017E-08   688   0.529E-04
   19 T=    62. E= -.41286718E+03 F= -.41317124E+03 E0= -.41314916E+03  EK= 0.30406E+00 SP= 0.00E+00 SK= 0.00E+00
       N       E                     dE             d eps       ncg     rms          rms(c)
RMM:   1    -0.413180898088E+03   -0.96578E-02   -0.64245E+00  4295   0.569E-01    0.916E-01
RMM:   2    -0.413178256591E+03    0.26415E-02   -0.83664E-02  4272   0.739E-02    0.662E-01
RMM:   3    -0.413175725990E+03    0.25306E-02   -0.45981E-02  5091   0.771E-02    0.304E-01
RMM:   4    -0.413195028015E+03   -0.19302E-01   -0.32306E-02  5082   0.153E-01    0.641E-01
RMM:   5    -0.413171508555E+03    0.23519E-01   -0.10939E-02  4709   0.107E-01    0.472E-02
RMM:   6    -0.413171644500E+03   -0.13595E-03   -0.19224E-03  5657   0.423E-02    0.330E-02
RMM:   7    -0.413171644420E+03    0.80028E-07   -0.33722E-04  5533   0.178E-02    0.219E-02
RMM:   8    -0.413171638489E+03    0.59312E-05   -0.46693E-05  5054   0.819E-03    0.860E-03
RMM:   9    -0.413171635632E+03    0.28566E-05   -0.91590E-06  3326   0.357E-03    0.513E-03
RMM:  10    -0.413171633985E+03    0.16477E-05   -0.16760E-06  2538   0.214E-03    0.306E-03
RMM:  11    -0.413171632401E+03    0.15842E-05   -0.86888E-07  2497   0.148E-03    0.161E-03
RMM:  12    -0.413171629220E+03    0.31807E-05   -0.10511E-06  2498   0.153E-03    0.848E-04
RMM:  13    -0.413171626623E+03    0.25965E-05   -0.44400E-07  2179   0.108E-03    0.577E-04
RMM:  14    -0.413171626164E+03    0.45956E-06   -0.19307E-07  1595   0.765E-04
   20 T=    62. E= -.41286689E+03 F= -.41317163E+03 E0= -.41314959E+03  EK= 0.30473E+00 SP= 0.00E+00 SK= 0.00E+00
       N       E                     dE             d eps       ncg     rms          rms(c)
RMM:   1    -0.413181687297E+03   -0.10061E-01   -0.65235E+00  4297   0.579E-01    0.910E-01
RMM:   2    -0.413179720260E+03    0.19670E-02   -0.84173E-02  4263   0.765E-02    0.667E-01
RMM:   3    -0.413176565895E+03    0.31544E-02   -0.49244E-02  5078   0.764E-02    0.317E-01
RMM:   4    -0.413196540857E+03   -0.19975E-01   -0.31542E-02  5090   0.151E-01    0.649E-01
RMM:   5    -0.413172609945E+03    0.23931E-01   -0.11651E-02  4721   0.108E-01    0.462E-02
RMM:   6    -0.413172757896E+03   -0.14795E-03   -0.19776E-03  5694   0.425E-02    0.319E-02
RMM:   7    -0.413172763505E+03   -0.56088E-05   -0.34047E-04  5534   0.181E-02    0.213E-02
RMM:   8    -0.413172761111E+03    0.23936E-05   -0.48066E-05  4992   0.844E-03    0.854E-03
RMM:   9    -0.413172760370E+03    0.74089E-06   -0.97302E-06  3398   0.370E-03
   21 T=    62. E= -.41286705E+03 F= -.41317276E+03 E0= -.41315077E+03  EK= 0.30571E+00 SP= 0.00E+00 SK= 0.00E+00
       N       E                     dE             d eps       ncg     rms          rms(c)
RMM:   1    -0.413183832291E+03   -0.11071E-01   -0.65338E+00  4301   0.588E-01    0.926E-01
RMM:   2    -0.413180742025E+03    0.30903E-02   -0.85317E-02  4354   0.787E-02    0.671E-01
RMM:   3    -0.413186326768E+03   -0.55847E-02   -0.52187E-02  5145   0.115E-01    0.487E-01
RMM:   4    -0.413186386407E+03   -0.59639E-04   -0.31324E-02  5032   0.156E-01    0.482E-01
RMM:   5    -0.413173904746E+03    0.12482E-01   -0.57917E-03  4538   0.817E-02    0.466E-02
RMM:   6    -0.413173918726E+03   -0.13980E-04   -0.94227E-04  5318   0.296E-02    0.300E-02
RMM:   7    -0.413173908275E+03    0.10451E-04   -0.19483E-04  5322   0.143E-02    0.176E-02
RMM:   8    -0.413173905656E+03    0.26187E-05   -0.30627E-05  4662   0.746E-03    0.561E-03
RMM:   9    -0.413173903224E+03    0.24326E-05   -0.43074E-06  2768   0.263E-03    0.306E-03
RMM:  10    -0.413173901130E+03    0.20942E-05   -0.10433E-06  2489   0.165E-03    0.179E-03
RMM:  11    -0.413173898747E+03    0.23826E-05   -0.65581E-07  2239   0.121E-03    0.851E-04
RMM:  12    -0.413173894873E+03    0.38737E-05   -0.58214E-07  2245   0.108E-03    0.455E-04
RMM:  13    -0.413173891702E+03    0.31711E-05   -0.26911E-07  1558   0.805E-04    0.277E-04
RMM:  14    -0.413173888394E+03    0.33078E-05   -0.17581E-07  1259   0.701E-04    0.159E-04
RMM:  15    -0.413173882803E+03    0.55911E-05   -0.20383E-07  1399   0.725E-04    0.254E-04
RMM:  16    -0.413173877578E+03    0.52249E-05   -0.14934E-07  1149   0.650E-04    0.142E-04
RMM:  17    -0.413173876104E+03    0.14741E-05   -0.61832E-08   888   0.568E-04    0.917E-05
RMM:  18    -0.413173873935E+03    0.21696E-05   -0.47502E-08   898   0.565E-04    0.381E-05
RMM:  19    -0.413173872923E+03    0.10118E-05   -0.29252E-08   817   0.543E-04    0.232E-05
RMM:  20    -0.413173872540E+03    0.38271E-06   -0.13500E-08   661   0.516E-04
   22 T=    62. E= -.41286715E+03 F= -.41317387E+03 E0= -.41315193E+03  EK= 0.30672E+00 SP= 0.00E+00 SK= 0.00E+00
       N       E                     dE             d eps       ncg     rms          rms(c)
RMM:   1    -0.413184022499E+03   -0.10150E-01   -0.65075E+00  4293   0.585E-01    0.925E-01
RMM:   2    -0.413181400757E+03    0.26217E-02   -0.84916E-02  4283   0.813E-02    0.666E-01
RMM:   3    -0.413178017429E+03    0.33833E-02   -0.45041E-02  5022   0.783E-02    0.279E-01
RMM:   4    -0.413199894034E+03   -0.21877E-01   -0.32605E-02  5091   0.154E-01    0.663E-01
RMM:   5    -0.413174478700E+03    0.25415E-01   -0.11835E-02  4740   0.110E-01    0.473E-02
RMM:   6    -0.413174632804E+03   -0.15410E-03   -0.20829E-03  5701   0.441E-02    0.338E-02
RMM:   7    -0.413174626792E+03    0.60115E-05   -0.36356E-04  5557   0.184E-02    0.226E-02
RMM:   8    -0.413174618522E+03    0.82709E-05   -0.51582E-05  5074   0.852E-03    0.929E-03
RMM:   9    -0.413174614233E+03    0.42887E-05   -0.10209E-05  3478   0.373E-03    0.564E-03
RMM:  10    -0.413174611412E+03    0.28208E-05   -0.17744E-06  2539   0.219E-03    0.334E-03
RMM:  11    -0.413174609057E+03    0.23552E-05   -0.92753E-07  2499   0.153E-03    0.179E-03
RMM:  12    -0.413174604549E+03    0.45076E-05   -0.12306E-06  2519   0.165E-03    0.940E-04
RMM:  13    -0.413174601018E+03    0.35313E-05   -0.51350E-07  2271   0.115E-03    0.701E-04
RMM:  14    -0.413174600728E+03    0.28989E-06   -0.20878E-07  1687   0.788E-04
   23 T=    63. E= -.41286692E+03 F= -.41317460E+03 E0= -.41315271E+03  EK= 0.30768E+00 SP= 0.00E+00 SK= 0.00E+00
       N       E                     dE             d eps       ncg     rms          rms(c)
RMM:   1    -0.413185195541E+03   -0.10595E-01   -0.65765E+00  4294   0.591E-01    0.912E-01
RMM:   2    -0.413183311125E+03    0.18844E-02   -0.85337E-02  4284   0.822E-02    0.668E-01
RMM:   3    -0.413179640881E+03    0.36702E-02   -0.48208E-02  4995   0.805E-02    0.296E-01
RMM:   4    -0.413201274656E+03   -0.21634E-01   -0.31328E-02  5089   0.151E-01    0.663E-01
RMM:   5    -0.413176057323E+03    0.25217E-01   -0.12199E-02  4743   0.111E-01    0.461E-02
RMM:   6    -0.413176219630E+03   -0.16231E-03   -0.20891E-03  5749   0.437E-02    0.323E-02
RMM:   7    -0.413176220625E+03   -0.99515E-06   -0.35008E-04  5560   0.181E-02    0.218E-02
RMM:   8    -0.413176216294E+03    0.43311E-05   -0.50679E-05  4950   0.865E-03    0.912E-03
RMM:   9    -0.413176214130E+03    0.21637E-05   -0.10706E-05  3482   0.381E-03    0.574E-03
RMM:  10    -0.413176213983E+03    0.14673E-06   -0.17557E-06  2537   0.218E-03
   24 T=    63. E= -.41286719E+03 F= -.41317621E+03 E0= -.41315437E+03  EK= 0.30903E+00 SP= 0.00E+00 SK= 0.00E+00
       N       E                     dE             d eps       ncg     rms          rms(c)
RMM:   1    -0.413186528305E+03   -0.10314E-01   -0.66312E+00  4302   0.594E-01    0.926E-01
RMM:   2    -0.413184407761E+03    0.21205E-02   -0.86170E-02  4333   0.827E-02    0.674E-01
RMM:   3    -0.413185671229E+03   -0.12635E-02   -0.50574E-02  5097   0.105E-01    0.414E-01
RMM:   4    -0.413194247262E+03   -0.85760E-02   -0.31408E-02  5048   0.155E-01    0.557E-01
RMM:   5    -0.413177186719E+03    0.17061E-01   -0.77407E-03  4619   0.915E-02    0.470E-02
RMM:   6    -0.413177243026E+03   -0.56306E-04   -0.13697E-03  5550   0.349E-02    0.306E-02
RMM:   7    -0.413177245807E+03   -0.27810E-05   -0.25556E-04  5482   0.153E-02    0.193E-02
RMM:   8    -0.413177243073E+03    0.27339E-05   -0.35937E-05  4837   0.727E-03    0.671E-03
RMM:   9    -0.413177240854E+03    0.22191E-05   -0.55508E-06  2904   0.288E-03    0.375E-03
RMM:  10    -0.413177239188E+03    0.16656E-05   -0.12653E-06  2505   0.184E-03    0.226E-03
RMM:  11    -0.413177237442E+03    0.17467E-05   -0.70347E-07  2400   0.132E-03    0.113E-03
RMM:  12    -0.413177234047E+03    0.33944E-05   -0.70628E-07  2428   0.122E-03    0.595E-04
RMM:  13    -0.413177231677E+03    0.23705E-05   -0.30604E-07  1860   0.896E-04    0.390E-04
RMM:  14    -0.413177229637E+03    0.20397E-05   -0.15883E-07  1346   0.712E-04    0.221E-04
RMM:  15    -0.413177224712E+03    0.49254E-05   -0.18422E-07  1471   0.737E-04    0.281E-04
RMM:  16    -0.413177219209E+03    0.55025E-05   -0.14814E-07  1158   0.656E-04    0.192E-04
RMM:  17    -0.413177217366E+03    0.18431E-05   -0.62146E-08   928   0.580E-04    0.126E-04
RMM:  18    -0.413177214381E+03    0.29846E-05   -0.57427E-08  1024   0.593E-04    0.438E-05
RMM:  19    -0.413177213400E+03    0.98141E-06   -0.28086E-08   819   0.554E-04
   25 T=    63. E= -.41286696E+03 F= -.41317721E+03 E0= -.41315542E+03  EK= 0.31025E+00 SP= 0.00E+00 SK= 0.00E+00
       N       E                     dE             d eps       ncg     rms          rms(c)
RMM:   1    -0.413188311235E+03   -0.11097E-01   -0.66150E+00  4293   0.601E-01    0.934E-01
RMM:   2    -0.413185488327E+03    0.28229E-02   -0.86734E-02  4289   0.813E-02    0.672E-01
RMM:   3    -0.413182018384E+03    0.34699E-02   -0.44777E-02  5004   0.829E-02    0.277E-01
RMM:   4    -0.413204638458E+03   -0.22620E-01   -0.33320E-02  5087   0.155E-01    0.672E-01
RMM:   5    -0.413178500629E+03    0.26138E-01   -0.12126E-02  4737   0.112E-01    0.478E-02
RMM:   6    -0.413178640148E+03   -0.13952E-03   -0.21713E-03  5726   0.450E-02    0.342E-02
RMM:   7    -0.413178630967E+03    0.91815E-05   -0.36957E-04  5538   0.187E-02    0.229E-02
RMM:   8    -0.413178622590E+03    0.83766E-05   -0.52790E-05  5055   0.870E-03    0.962E-03
RMM:   9    -0.413178618107E+03    0.44830E-05   -0.10687E-05  3524   0.385E-03    0.584E-03
RMM:  10    -0.413178614706E+03    0.34014E-05   -0.18661E-06  2550   0.225E-03    0.347E-03
RMM:  11    -0.413178611857E+03    0.28484E-05   -0.97531E-07  2502   0.157E-03    0.187E-03
RMM:  12    -0.413178606521E+03    0.53368E-05   -0.13124E-06  2531   0.169E-03    0.942E-04
RMM:  13    -0.413178602675E+03    0.38461E-05   -0.53035E-07  2292   0.117E-03    0.699E-04
RMM:  14    -0.413178602316E+03    0.35856E-06   -0.21633E-07  1727   0.801E-04
   26 T=    63. E= -.41286697E+03 F= -.41317860E+03 E0= -.41315685E+03  EK= 0.31163E+00 SP= 0.00E+00 SK= 0.00E+00
       N       E                     dE             d eps       ncg     rms          rms(c)
RMM:   1    -0.413190490265E+03   -0.11888E-01   -0.66595E+00  4294   0.618E-01    0.916E-01
RMM:   2    -0.413187418113E+03    0.30722E-02   -0.87518E-02  4287   0.828E-02    0.670E-01
RMM:   3    -0.413183475131E+03    0.39430E-02   -0.46528E-02  5041   0.751E-02    0.280E-01
RMM:   4    -0.413206757925E+03   -0.23283E-01   -0.32271E-02  5103   0.153E-01    0.677E-01
RMM:   5    -0.413180328126E+03    0.26430E-01   -0.12566E-02  4746   0.113E-01    0.469E-02
RMM:   6    -0.413180480030E+03   -0.15190E-03   -0.22279E-03  5766   0.451E-02    0.326E-02
RMM:   7    -0.413180477484E+03    0.25460E-05   -0.36207E-04  5568   0.185E-02    0.224E-02
RMM:   8    -0.413180469714E+03    0.77694E-05   -0.55227E-05  4979   0.864E-03    0.986E-03
RMM:   9    -0.413180466277E+03    0.34368E-05   -0.10765E-05  3590   0.391E-03    0.620E-03
RMM:  10    -0.413180464814E+03    0.14633E-05   -0.18227E-06  2538   0.223E-03    0.365E-03
RMM:  11    -0.413180463274E+03    0.15397E-05   -0.10497E-06  2500   0.165E-03    0.193E-03
RMM:  12    -0.413180460184E+03    0.30903E-05   -0.13781E-06  2517   0.175E-03    0.105E-03
RMM:  13    -0.413180457865E+03    0.23191E-05   -0.46710E-07  2298   0.117E-03    0.710E-04
RMM:  14    -0.413180457423E+03    0.44208E-06   -0.20221E-07  1687   0.787E-04
   27 T=    64. E= -.41286725E+03 F= -.41318046E+03 E0= -.41315876E+03  EK= 0.31321E+00 SP= 0.00E+00 SK= 0.00E+00
       N       E                     dE             d eps       ncg     rms          rms(c)
RMM:   1    -0.413190758568E+03   -0.10301E-01   -0.67515E+00  4297   0.614E-01    0.927E-01
RMM:   2    -0.413188641585E+03    0.21170E-02   -0.87958E-02  4283   0.844E-02    0.679E-01
RMM:   3    -0.413184497088E+03    0.41445E-02   -0.47924E-02  4995   0.766E-02    0.284E-01
RMM:   4    -0.413207748518E+03   -0.23251E-01   -0.31744E-02  5110   0.152E-01    0.676E-01
RMM:   5    -0.413181434618E+03    0.26314E-01   -0.12640E-02  4749   0.114E-01    0.466E-02
RMM:   6    -0.413181587663E+03   -0.15304E-03   -0.22405E-03  5775   0.453E-02    0.324E-02
RMM:   7    -0.413181590492E+03   -0.28296E-05   -0.35838E-04  5554   0.187E-02    0.222E-02
RMM:   8    -0.413181587518E+03    0.29744E-05   -0.55247E-05  4941   0.885E-03    0.989E-03
RMM:   9    -0.413181585093E+03    0.24244E-05   -0.11313E-05  3610   0.401E-03    0.629E-03
RMM:  10    -0.413181584280E+03    0.81336E-06   -0.19281E-06  2555   0.230E-03
   28 T=    64. E= -.41286696E+03 F= -.41318158E+03 E0= -.41315994E+03  EK= 0.31462E+00 SP= 0.00E+00 SK= 0.00E+00
       N       E                     dE             d eps       ncg     rms          rms(c)
RMM:   1    -0.413193276367E+03   -0.11691E-01   -0.67399E+00  4294   0.624E-01    0.942E-01
RMM:   2    -0.413190526240E+03    0.27501E-02   -0.88640E-02  4330   0.871E-02    0.678E-01
RMM:   3    -0.413191204339E+03   -0.67810E-03   -0.47496E-02  5103   0.100E-01    0.385E-01
RMM:   4    -0.413202259990E+03   -0.11056E-01   -0.33091E-02  5047   0.158E-01    0.576E-01
RMM:   5    -0.413183526760E+03    0.18733E-01   -0.80595E-03  4648   0.966E-02    0.485E-02
RMM:   6    -0.413183584518E+03   -0.57759E-04   -0.15149E-03  5590   0.375E-02    0.323E-02
RMM:   7    -0.413183584407E+03    0.11116E-06   -0.28012E-04  5441   0.170E-02    0.205E-02
RMM:   8    -0.413183580524E+03    0.38830E-05   -0.42178E-05  4841   0.875E-03    0.748E-03
RMM:   9    -0.413183576226E+03    0.42979E-05   -0.78643E-06  3079   0.347E-03    0.407E-03
RMM:  10    -0.413183571518E+03    0.47076E-05   -0.16953E-06  2551   0.211E-03    0.245E-03
RMM:  11    -0.413183567204E+03    0.43143E-05   -0.84974E-07  2468   0.148E-03    0.124E-03
RMM:  12    -0.413183560101E+03    0.71028E-05   -0.83745E-07  2472   0.136E-03    0.621E-04
RMM:  13    -0.413183555812E+03    0.42889E-05   -0.38375E-07  1994   0.978E-04    0.426E-04
RMM:  14    -0.413183553056E+03    0.27559E-05   -0.19807E-07  1506   0.753E-04    0.265E-04
RMM:  15    -0.413183546358E+03    0.66988E-05   -0.18608E-07  1518   0.747E-04    0.269E-04
RMM:  16    -0.413183538694E+03    0.76633E-05   -0.15842E-07  1269   0.676E-04    0.235E-04
RMM:  17    -0.413183535796E+03    0.28982E-05   -0.75529E-08   990   0.588E-04    0.149E-04
RMM:  18    -0.413183532254E+03    0.35420E-05   -0.62341E-08  1070   0.598E-04    0.500E-05
RMM:  19    -0.413183531150E+03    0.11041E-05   -0.36316E-08   896   0.558E-04    0.403E-05
RMM:  20    -0.413183530770E+03    0.38001E-06   -0.18897E-08   741   0.534E-04
   29 T=    64. E= -.41286714E+03 F= -.41318353E+03 E0= -.41316193E+03  EK= 0.31639E+00 SP= 0.00E+00 SK= 0.00E+00
       N       E                     dE             d eps       ncg     rms          rms(c)
RMM:   1    -0.413194515053E+03   -0.10984E-01   -0.67504E+00  4295   0.638E-01    0.924E-01
RMM:   2    -0.413192661706E+03    0.18533E-02   -0.88795E-02  4268   0.920E-02    0.673E-01
RMM:   3    -0.413187866293E+03    0.47954E-02   -0.45607E-02  4960   0.754E-02    0.254E-01
RMM:   4    -0.413212026117E+03   -0.24160E-01   -0.31139E-02  5114   0.150E-01    0.679E-01
RMM:   5    -0.413185221073E+03    0.26805E-01   -0.12935E-02  4759   0.115E-01    0.466E-02
RMM:   6    -0.413185401208E+03   -0.18013E-03   -0.22903E-03  5817   0.459E-02    0.326E-02
RMM:   7    -0.413185415645E+03   -0.14438E-04   -0.34861E-04  5570   0.187E-02    0.220E-02
RMM:   8    -0.413185413477E+03    0.21684E-05   -0.60214E-05  4925   0.925E-03    0.105E-02
RMM:   9    -0.413185410379E+03    0.30980E-05   -0.12666E-05  3709   0.425E-03    0.679E-03
RMM:  10    -0.413185408910E+03    0.14688E-05   -0.23105E-06  2602   0.250E-03    0.396E-03
RMM:  11    -0.413185407181E+03    0.17291E-05   -0.12788E-06  2510   0.182E-03    0.200E-03
RMM:  12    -0.413185404185E+03    0.29956E-05   -0.14542E-06  2526   0.183E-03    0.110E-03
RMM:  13    -0.413185402457E+03    0.17281E-05   -0.46501E-07  2302   0.119E-03    0.685E-04
RMM:  14    -0.413185401787E+03    0.66985E-06   -0.21120E-07  1726   0.803E-04
   30 T=    65. E= -.41286721E+03 F= -.41318540E+03 E0= -.41316385E+03  EK= 0.31819E+00 SP= 0.00E+00 SK= 0.00E+00
       N       E                     dE             d eps       ncg     rms          rms(c)
RMM:   1    -0.413196549902E+03   -0.11147E-01   -0.68879E+00  4296   0.647E-01    0.929E-01
RMM:   2    -0.413194826172E+03    0.17237E-02   -0.92463E-02  4267   0.986E-02    0.683E-01
RMM:   3    -0.413189004218E+03    0.58220E-02   -0.47751E-02  4803   0.799E-02    0.250E-01
RMM:   4    -0.413209717530E+03   -0.20713E-01   -0.25066E-02  5122   0.136E-01    0.628E-01
RMM:   5    -0.413186874460E+03    0.22843E-01   -0.11132E-02  4781   0.105E-01    0.439E-02
RMM:   6    -0.413187015907E+03   -0.14145E-03   -0.19106E-03  5838   0.419E-02    0.296E-02
RMM:   7    -0.413187026900E+03   -0.10992E-04   -0.25435E-04  5592   0.164E-02    0.181E-02
RMM:   8    -0.413187024626E+03    0.22732E-05   -0.52849E-05  4926   0.803E-03    0.988E-03
RMM:   9    -0.413187021134E+03    0.34921E-05   -0.10558E-05  3694   0.393E-03    0.657E-03
RMM:  10    -0.413187020793E+03    0.34176E-06   -0.18330E-06  2549   0.230E-03
   31 T=    65. E= -.41286701E+03 F= -.41318702E+03 E0= -.41316552E+03  EK= 0.32001E+00 SP= 0.00E+00 SK= 0.00E+00
       N       E                     dE             d eps       ncg     rms          rms(c)
RMM:   1    -0.413199368969E+03   -0.12348E-01   -0.68797E+00  4301   0.651E-01    0.948E-01
RMM:   2    -0.413197097596E+03    0.22714E-02   -0.91237E-02  4304   0.104E-01    0.684E-01
RMM:   3    -0.413195086119E+03    0.20115E-02   -0.46599E-02  5010   0.101E-01    0.333E-01
RMM:   4    -0.413213333001E+03   -0.18247E-01   -0.34699E-02  5064   0.160E-01    0.644E-01
RMM:   5    -0.413189504599E+03    0.23828E-01   -0.10568E-02  4690   0.108E-01    0.489E-02
RMM:   6    -0.413189635652E+03   -0.13105E-03   -0.20443E-03  5709   0.432E-02    0.341E-02
RMM:   7    -0.413189640480E+03   -0.48281E-05   -0.35070E-04  5492   0.184E-02    0.227E-02
RMM:   8    -0.413189637026E+03    0.34547E-05   -0.50127E-05  5011   0.892E-03    0.915E-03
RMM:   9    -0.413189631754E+03    0.52720E-05   -0.99072E-06  3346   0.382E-03    0.525E-03
RMM:  10    -0.413189626970E+03    0.47836E-05   -0.18295E-06  2555   0.225E-03    0.321E-03
RMM:  11    -0.413189622593E+03    0.43767E-05   -0.94534E-07  2495   0.158E-03    0.174E-03
RMM:  12    -0.413189614840E+03    0.77535E-05   -0.10752E-06  2490   0.157E-03    0.790E-04
RMM:  13    -0.413189611313E+03    0.35265E-05   -0.45160E-07  2223   0.110E-03    0.565E-04
RMM:  14    -0.413189609135E+03    0.21782E-05   -0.21797E-07  1704   0.802E-04    0.358E-04
RMM:  15    -0.413189603055E+03    0.60798E-05   -0.17694E-07  1641   0.754E-04    0.270E-04
RMM:  16    -0.413189596966E+03    0.60893E-05   -0.11734E-07  1221   0.649E-04    0.253E-04
RMM:  17    -0.413189591392E+03    0.55744E-05   -0.89872E-08  1110   0.618E-04    0.213E-04
RMM:  18    -0.413189588257E+03    0.31351E-05   -0.59372E-08  1004   0.586E-04    0.642E-05
RMM:  19    -0.413189585910E+03    0.23470E-05   -0.47001E-08  1049   0.583E-04    0.570E-05
RMM:  20    -0.413189585674E+03    0.23554E-06   -0.18036E-08   729   0.529E-04
   32 T=    66. E= -.41286737E+03 F= -.41318959E+03 E0= -.41316814E+03  EK= 0.32222E+00 SP= 0.00E+00 SK= 0.00E+00
       N       E                     dE             d eps       ncg     rms          rms(c)
RMM:   1    -0.413200856312E+03   -0.11270E-01   -0.68817E+00  4302   0.665E-01    0.936E-01
RMM:   2    -0.413198679008E+03    0.21773E-02   -0.91697E-02  4273   0.103E-01    0.680E-01
RMM:   3    -0.413193205858E+03    0.54731E-02   -0.44588E-02  4798   0.816E-02    0.220E-01
RMM:   4    -0.413215317660E+03   -0.22112E-01   -0.25877E-02  5122   0.138E-01    0.643E-01
RMM:   5    -0.413191275368E+03    0.24042E-01   -0.11697E-02  4781   0.108E-01    0.451E-02
RMM:   6    -0.413191438365E+03   -0.16300E-03   -0.20689E-03  5823   0.435E-02    0.310E-02
RMM:   7    -0.413191457626E+03   -0.19261E-04   -0.25206E-04  5570   0.167E-02    0.177E-02
RMM:   8    -0.413191456917E+03    0.70890E-06   -0.53755E-05  4968   0.788E-03    0.105E-02
RMM:   9    -0.413191451614E+03    0.53027E-05   -0.11844E-05  3859   0.404E-03    0.704E-03
RMM:  10    -0.413191449142E+03    0.24722E-05   -0.21217E-06  2583   0.246E-03    0.405E-03
RMM:  11    -0.413191446465E+03    0.26772E-05   -0.13777E-06  2515   0.188E-03    0.215E-03
RMM:  12    -0.413191441839E+03    0.46254E-05   -0.14799E-06  2520   0.189E-03    0.117E-03
RMM:  13    -0.413191439746E+03    0.20933E-05   -0.46859E-07  2307   0.121E-03    0.719E-04
RMM:  14    -0.413191438896E+03    0.84955E-06   -0.20784E-07  1743   0.807E-04
   33 T=    66. E= -.41286718E+03 F= -.41319144E+03 E0= -.41317004E+03  EK= 0.32426E+00 SP= 0.00E+00 SK= 0.00E+00
       N       E                     dE             d eps       ncg     rms          rms(c)
RMM:   1    -0.413203236170E+03   -0.11796E-01   -0.70241E+00  4306   0.682E-01    0.934E-01
RMM:   2    -0.413201070625E+03    0.21655E-02   -0.95175E-02  4262   0.108E-01    0.688E-01
RMM:   3    -0.413195369169E+03    0.57015E-02   -0.47619E-02  4657   0.824E-02    0.232E-01
RMM:   4    -0.413209670140E+03   -0.14301E-01   -0.17225E-02  5127   0.113E-01    0.528E-01
RMM:   5    -0.413193655603E+03    0.16015E-01   -0.79216E-03  4796   0.880E-02    0.413E-02
RMM:   6    -0.413193757980E+03   -0.10238E-03   -0.13973E-03  5818   0.356E-02    0.273E-02
RMM:   7    -0.413193778155E+03   -0.20174E-04   -0.17204E-04  5450   0.144E-02    0.148E-02
RMM:   8    -0.413193772719E+03    0.54356E-05   -0.32057E-05  4683   0.611E-03    0.817E-03
RMM:   9    -0.413193773506E+03   -0.78690E-06   -0.86606E-06  3549   0.346E-03
   34 T=    66. E= -.41286721E+03 F= -.41319377E+03 E0= -.41317242E+03  EK= 0.32657E+00 SP= 0.00E+00 SK= 0.00E+00
       N       E                     dE             d eps       ncg     rms          rms(c)
RMM:   1    -0.413206317402E+03   -0.12545E-01   -0.70457E+00  4303   0.701E-01    0.954E-01
RMM:   2    -0.413203464605E+03    0.28528E-02   -0.94679E-02  4302   0.117E-01    0.691E-01
RMM:   3    -0.413202504760E+03    0.95985E-03   -0.47426E-02  4989   0.114E-01    0.347E-01
RMM:   4    -0.413220326058E+03   -0.17821E-01   -0.35381E-02  5049   0.162E-01    0.645E-01
RMM:   5    -0.413196397495E+03    0.23929E-01   -0.10511E-02  4684   0.107E-01    0.492E-02
RMM:   6    -0.413196524987E+03   -0.12749E-03   -0.20352E-03  5707   0.429E-02    0.340E-02
RMM:   7    -0.413196528230E+03   -0.32428E-05   -0.35286E-04  5471   0.184E-02    0.228E-02
RMM:   8    -0.413196525845E+03    0.23851E-05   -0.54979E-05  5026   0.916E-03    0.947E-03
RMM:   9    -0.413196520711E+03    0.51336E-05   -0.10296E-05  3399   0.395E-03    0.510E-03
RMM:  10    -0.413196516219E+03    0.44915E-05   -0.20324E-06  2588   0.236E-03    0.307E-03
RMM:  11    -0.413196512113E+03    0.41060E-05   -0.96250E-07  2493   0.161E-03    0.162E-03
RMM:  12    -0.413196504561E+03    0.75527E-05   -0.10370E-06  2480   0.159E-03    0.767E-04
RMM:  13    -0.413196500201E+03    0.43602E-05   -0.45089E-07  2229   0.112E-03    0.570E-04
RMM:  14    -0.413196498238E+03    0.19621E-05   -0.21106E-07  1713   0.800E-04    0.374E-04
RMM:  15    -0.413196492094E+03    0.61444E-05   -0.16878E-07  1606   0.751E-04    0.264E-04
RMM:  16    -0.413196483866E+03    0.82284E-05   -0.14860E-07  1454   0.700E-04    0.366E-04
RMM:  17    -0.413196479409E+03    0.44566E-05   -0.76280E-08  1048   0.587E-04    0.260E-04
RMM:  18    -0.413196474936E+03    0.44732E-05   -0.63957E-08  1115   0.601E-04    0.826E-05
RMM:  19    -0.413196473387E+03    0.15491E-05   -0.40899E-08  1001   0.567E-04    0.612E-05
RMM:  20    -0.413196472662E+03    0.72530E-06   -0.18485E-08   756   0.529E-04
   35 T=    67. E= -.41286738E+03 F= -.41319647E+03 E0= -.41317516E+03  EK= 0.32910E+00 SP= 0.00E+00 SK= 0.00E+00
       N       E                     dE             d eps       ncg     rms          rms(c)
RMM:   1    -0.413208757933E+03   -0.12285E-01   -0.70574E+00  4307   0.731E-01    0.951E-01
RMM:   2    -0.413205464906E+03    0.32930E-02   -0.95639E-02  4267   0.120E-01    0.688E-01
RMM:   3    -0.413199407127E+03    0.60578E-02   -0.44112E-02  4420   0.899E-02    0.175E-01
RMM:   4    -0.413202298004E+03   -0.28909E-02   -0.45544E-03  5111   0.596E-02    0.261E-01
RMM:   5    -0.413198526686E+03    0.37713E-02   -0.18969E-03  4800   0.431E-02    0.387E-02
RMM:   6    -0.413198584325E+03   -0.57639E-04   -0.60945E-04  5581   0.241E-02    0.322E-02
RMM:   7    -0.413198567701E+03    0.16624E-04   -0.21038E-04  5076   0.160E-02    0.190E-02
RMM:   8    -0.413198559486E+03    0.82152E-05   -0.27694E-05  4443   0.580E-03    0.615E-03
RMM:   9    -0.413198558004E+03    0.14819E-05   -0.34803E-06  2652   0.239E-03    0.346E-03
RMM:  10    -0.413198554536E+03    0.34672E-05   -0.11111E-06  2488   0.177E-03    0.165E-03
RMM:  11    -0.413198551143E+03    0.33936E-05   -0.58668E-07  2375   0.125E-03    0.806E-04
RMM:  12    -0.413198547603E+03    0.35403E-05   -0.33362E-07  1990   0.945E-04    0.382E-04
RMM:  13    -0.413198544644E+03    0.29588E-05   -0.16486E-07  1398   0.735E-04    0.231E-04
RMM:  14    -0.413198540626E+03    0.40181E-05   -0.10225E-07  1073   0.663E-04    0.183E-04
RMM:  15    -0.413198533818E+03    0.68082E-05   -0.11208E-07  1242   0.675E-04    0.113E-04
RMM:  16    -0.413198531134E+03    0.26840E-05   -0.53795E-08   988   0.600E-04    0.109E-04
RMM:  17    -0.413198526324E+03    0.48091E-05   -0.55280E-08  1128   0.610E-04    0.558E-05
RMM:  18    -0.413198524530E+03    0.17940E-05   -0.26571E-08   849   0.548E-04    0.318E-05
RMM:  19    -0.413198523850E+03    0.68047E-06   -0.13294E-08   692   0.524E-04
   36 T=    67. E= -.41286702E+03 F= -.41319852E+03 E0= -.41317726E+03  EK= 0.33150E+00 SP= 0.00E+00 SK= 0.00E+00
       N       E                     dE             d eps       ncg     rms          rms(c)
RMM:   1    -0.413211463769E+03   -0.12939E-01   -0.71800E+00  4311   0.751E-01    0.943E-01
RMM:   2    -0.413208885738E+03    0.25780E-02   -0.98369E-02  4254   0.126E-01    0.693E-01
RMM:   3    -0.413202599516E+03    0.62862E-02   -0.47179E-02  4368   0.954E-02    0.204E-01
RMM:   4    -0.413202825017E+03   -0.22550E-03   -0.28487E-03  5051   0.441E-02    0.155E-01
RMM:   5    -0.413201566080E+03    0.12589E-02   -0.66970E-04  4750   0.266E-02    0.385E-02
RMM:   6    -0.413201611349E+03   -0.45269E-04   -0.44316E-04  5366   0.206E-02    0.318E-02
RMM:   7    -0.413201607920E+03    0.34296E-05   -0.18330E-04  4904   0.149E-02    0.201E-02
RMM:   8    -0.413201599856E+03    0.80636E-05   -0.30523E-05  4640   0.571E-03    0.625E-03
RMM:   9    -0.413201600136E+03   -0.27946E-06   -0.53586E-06  2546   0.237E-03
   37 T=    68. E= -.41286727E+03 F= -.41320160E+03 E0= -.41318038E+03  EK= 0.33433E+00 SP= 0.00E+00 SK= 0.00E+00
       N       E                     dE             d eps       ncg     rms          rms(c)
RMM:   1    -0.413216319345E+03   -0.14719E-01   -0.72701E+00  4311   0.782E-01    0.960E-01
RMM:   2    -0.413211736559E+03    0.45828E-02   -0.10006E-01  4257   0.118E-01    0.700E-01
RMM:   3    -0.413205164590E+03    0.65720E-02   -0.45540E-02  4437   0.857E-02    0.185E-01
RMM:   4    -0.413205981279E+03   -0.81669E-03   -0.30389E-03  5086   0.480E-02    0.182E-01
RMM:   5    -0.413204209368E+03    0.17719E-02   -0.92235E-04  4779   0.311E-02    0.402E-02
RMM:   6    -0.413204230104E+03   -0.20736E-04   -0.44866E-04  5366   0.215E-02    0.324E-02
RMM:   7    -0.413204236129E+03   -0.60251E-05   -0.19624E-04  4953   0.151E-02    0.202E-02
RMM:   8    -0.413204226402E+03    0.97270E-05   -0.28139E-05  4795   0.612E-03    0.800E-03
RMM:   9    -0.413204225144E+03    0.12577E-05   -0.80936E-06  2609   0.248E-03    0.271E-03
RMM:  10    -0.413204221164E+03    0.39801E-05   -0.12393E-06  2469   0.162E-03    0.113E-03
RMM:  11    -0.413204216675E+03    0.44897E-05   -0.55018E-07  2189   0.110E-03    0.549E-04
RMM:  12    -0.413204212639E+03    0.40358E-05   -0.27148E-07  1686   0.833E-04    0.309E-04
RMM:  13    -0.413204207301E+03    0.53378E-05   -0.19925E-07  1317   0.734E-04    0.202E-04
RMM:  14    -0.413204200442E+03    0.68587E-05   -0.16455E-07  1302   0.703E-04    0.149E-04
RMM:  15    -0.413204191780E+03    0.86619E-05   -0.15501E-07  1444   0.707E-04    0.116E-04
RMM:  16    -0.413204187908E+03    0.38718E-05   -0.66375E-08   999   0.580E-04    0.887E-05
RMM:  17    -0.413204185768E+03    0.21408E-05   -0.39404E-08   853   0.543E-04    0.395E-05
RMM:  18    -0.413204184173E+03    0.15944E-05   -0.25848E-08   756   0.526E-04    0.314E-05
RMM:  19    -0.413204183717E+03    0.45590E-06   -0.12016E-08   546   0.498E-04
   38 T=    69. E= -.41286712E+03 F= -.41320418E+03 E0= -.41318300E+03  EK= 0.33707E+00 SP= 0.00E+00 SK= 0.00E+00
       N       E                     dE             d eps       ncg     rms          rms(c)
RMM:   1    -0.413219633776E+03   -0.15450E-01   -0.72860E+00  4309   0.833E-01    0.968E-01
RMM:   2    -0.413214282538E+03    0.53512E-02   -0.10126E-01  4250   0.119E-01    0.697E-01
RMM:   3    -0.413208264406E+03    0.60181E-02   -0.43568E-02  4748   0.831E-02    0.187E-01
RMM:   4    -0.413230195220E+03   -0.21931E-01   -0.24748E-02  5125   0.134E-01    0.636E-01
RMM:   5    -0.413206850286E+03    0.23345E-01   -0.11425E-02  4788   0.106E-01    0.469E-02
RMM:   6    -0.413206899157E+03   -0.48871E-04   -0.19809E-03  5775   0.428E-02    0.325E-02
RMM:   7    -0.413206927223E+03   -0.28065E-04   -0.32599E-04  5559   0.178E-02    0.209E-02
RMM:   8    -0.413206915383E+03    0.11839E-04   -0.58880E-05  5073   0.836E-03    0.107E-02
RMM:   9    -0.413206913813E+03    0.15703E-05   -0.12418E-05  3891   0.428E-03    0.637E-03
RMM:  10    -0.413206910060E+03    0.37527E-05   -0.22609E-06  2615   0.245E-03    0.349E-03
RMM:  11    -0.413206906988E+03    0.30724E-05   -0.10424E-06  2493   0.168E-03    0.195E-03
RMM:  12    -0.413206900953E+03    0.60348E-05   -0.12175E-06  2499   0.175E-03    0.112E-03
RMM:  13    -0.413206897589E+03    0.33636E-05   -0.44501E-07  2282   0.117E-03    0.671E-04
RMM:  14    -0.413206896398E+03    0.11915E-05   -0.20638E-07  1766   0.810E-04    0.406E-04
RMM:  15    -0.413206891479E+03    0.49187E-05   -0.14644E-07  1545   0.740E-04    0.222E-04
RMM:  16    -0.413206887425E+03    0.40539E-05   -0.90737E-08  1237   0.653E-04    0.239E-04
RMM:  17    -0.413206882912E+03    0.45129E-05   -0.71921E-08  1207   0.623E-04    0.260E-04
RMM:  18    -0.413206879097E+03    0.38159E-05   -0.46060E-08   981   0.578E-04    0.134E-04
RMM:  19    -0.413206876924E+03    0.21725E-05   -0.33490E-08   925   0.562E-04    0.488E-05
RMM:  20    -0.413206876288E+03    0.63590E-06   -0.20904E-08   778   0.538E-04
   39 T=    69. E= -.41286701E+03 F= -.41320688E+03 E0= -.41318574E+03  EK= 0.33987E+00 SP= 0.00E+00 SK= 0.00E+00
       N       E                     dE             d eps       ncg     rms          rms(c)
RMM:   1    -0.413222339771E+03   -0.15463E-01   -0.73676E+00  4315   0.848E-01    0.953E-01
RMM:   2    -0.413217841873E+03    0.44979E-02   -0.10311E-01  4250   0.117E-01    0.699E-01
RMM:   3    -0.413212023900E+03    0.58180E-02   -0.45990E-02  4808   0.870E-02    0.224E-01
RMM:   4    -0.413237620137E+03   -0.25596E-01   -0.30073E-02  5118   0.147E-01    0.690E-01
RMM:   5    -0.413210088476E+03    0.27532E-01   -0.13287E-02  4788   0.115E-01    0.482E-02
RMM:   6    -0.413210153476E+03   -0.65000E-04   -0.22949E-03  5792   0.455E-02    0.318E-02
RMM:   7    -0.413210184061E+03   -0.30585E-04   -0.32607E-04  5642   0.173E-02    0.196E-02
RMM:   8    -0.413210177170E+03    0.68907E-05   -0.60814E-05  5064   0.821E-03    0.107E-02
RMM:   9    -0.413210177393E+03   -0.22216E-06   -0.15080E-05  4161   0.458E-03    0.648E-03
RMM:  10    -0.413210175982E+03    0.14102E-05   -0.24551E-06  2634   0.251E-03    0.365E-03
RMM:  11    -0.413210174739E+03    0.12433E-05   -0.11135E-06  2501   0.171E-03    0.210E-03
RMM:  12    -0.413210171497E+03    0.32424E-05   -0.14135E-06  2508   0.183E-03    0.116E-03
RMM:  13    -0.413210169084E+03    0.24129E-05   -0.52624E-07  2339   0.124E-03    0.749E-04
RMM:  14    -0.413210168195E+03    0.88870E-06   -0.22411E-07  1816   0.829E-04
   40 T=    70. E= -.41286730E+03 F= -.41321017E+03 E0= -.41318906E+03  EK= 0.34287E+00 SP= 0.00E+00 SK= 0.00E+00
       N       E                     dE             d eps       ncg     rms          rms(c)
RMM:   1    -0.413224161154E+03   -0.13992E-01   -0.74771E+00  4316   0.877E-01    0.965E-01
RMM:   2    -0.413220396887E+03    0.37643E-02   -0.10778E-01  4252   0.119E-01    0.709E-01
RMM:   3    -0.413214363579E+03    0.60333E-02   -0.45585E-02  4835   0.842E-02    0.218E-01
RMM:   4    -0.413241580031E+03   -0.27216E-01   -0.31752E-02  5122   0.151E-01    0.708E-01
RMM:   5    -0.413212468304E+03    0.29112E-01   -0.14007E-02  4789   0.118E-01    0.494E-02
RMM:   6    -0.413212536159E+03   -0.67855E-04   -0.23842E-03  5790   0.464E-02    0.318E-02
RMM:   7    -0.413212568804E+03   -0.32645E-04   -0.35324E-04  5667   0.178E-02    0.204E-02
RMM:   8    -0.413212560154E+03    0.86498E-05   -0.69410E-05  5114   0.877E-03    0.110E-02
RMM:   9    -0.413212559372E+03    0.78251E-06   -0.15013E-05  4147   0.466E-03    0.614E-03
RMM:  10    -0.413212556919E+03    0.24527E-05   -0.26420E-06  2651   0.252E-03    0.360E-03
RMM:  11    -0.413212554906E+03    0.20128E-05   -0.11011E-06  2501   0.170E-03    0.207E-03
RMM:  12    -0.413212550013E+03    0.48935E-05   -0.13509E-06  2516   0.179E-03    0.113E-03
RMM:  13    -0.413212546348E+03    0.36645E-05   -0.53625E-07  2323   0.122E-03    0.765E-04
RMM:  14    -0.413212545329E+03    0.10195E-05   -0.22848E-07  1783   0.829E-04    0.396E-04
RMM:  15    -0.413212541733E+03    0.35957E-05   -0.14676E-07  1388   0.722E-04    0.220E-04
RMM:  16    -0.413212536590E+03    0.51432E-05   -0.13406E-07  1537   0.717E-04    0.323E-04
RMM:  17    -0.413212534176E+03    0.24133E-05   -0.67493E-08  1069   0.598E-04    0.279E-04
RMM:  18    -0.413212528956E+03    0.52202E-05   -0.76123E-08  1262   0.622E-04    0.190E-04
RMM:  19    -0.413212527326E+03    0.16303E-05   -0.34428E-08   865   0.542E-04    0.677E-05
RMM:  20    -0.413212526186E+03    0.11401E-05   -0.27386E-08   880   0.547E-04    0.580E-05
RMM:  21    -0.413212525874E+03    0.31146E-06   -0.14213E-08   712   0.523E-04
   41 T=    70. E= -.41286705E+03 F= -.41321253E+03 E0= -.41319145E+03  EK= 0.34548E+00 SP= 0.00E+00 SK= 0.00E+00
       N       E                     dE             d eps       ncg     rms          rms(c)
RMM:   1    -0.413228952643E+03   -0.16426E-01   -0.74949E+00  4316   0.950E-01    0.981E-01
RMM:   2    -0.413222882569E+03    0.60701E-02   -0.10843E-01  4282   0.124E-01    0.707E-01
RMM:   3    -0.413217528294E+03    0.53543E-02   -0.42749E-02  4955   0.838E-02    0.218E-01
RMM:   4    -0.413250098324E+03   -0.32570E-01   -0.40037E-02  5120   0.169E-01    0.772E-01
RMM:   5    -0.413215151745E+03    0.34947E-01   -0.16402E-02  4781   0.129E-01    0.525E-02
RMM:   6    -0.413215243043E+03   -0.91297E-04   -0.28187E-03  5788   0.500E-02    0.332E-02
RMM:   7    -0.413215272638E+03   -0.29595E-04   -0.34400E-04  5684   0.175E-02    0.188E-02
RMM:   8    -0.413215269169E+03    0.34685E-05   -0.44137E-05  4795   0.692E-03    0.893E-03
RMM:   9    -0.413215269842E+03   -0.67270E-06   -0.18252E-05  4342   0.446E-03    0.700E-03
RMM:  10    -0.413215264416E+03    0.54253E-05   -0.36536E-06  2824   0.278E-03    0.378E-03
RMM:  11    -0.413215261349E+03    0.30672E-05   -0.14063E-06  2500   0.192E-03    0.224E-03
RMM:  12    -0.413215254143E+03    0.72060E-05   -0.14532E-06  2499   0.193E-03    0.111E-03
RMM:  13    -0.413215250862E+03    0.32814E-05   -0.49951E-07  2371   0.127E-03    0.715E-04
RMM:  14    -0.413215249985E+03    0.87693E-06   -0.21467E-07  1830   0.835E-04
   42 T=    71. E= -.41286723E+03 F= -.41321525E+03 E0= -.41319421E+03  EK= 0.34802E+00 SP= 0.00E+00 SK= 0.00E+00
       N       E                     dE             d eps       ncg     rms          rms(c)
RMM:   1    -0.413231150123E+03   -0.15899E-01   -0.75286E+00  4316   0.997E-01    0.963E-01
RMM:   2    -0.413225363995E+03    0.57861E-02   -0.11038E-01  4347   0.124E-01    0.705E-01
RMM:   3    -0.413220225145E+03    0.51389E-02   -0.44230E-02  4971   0.882E-02    0.243E-01
RMM:   4    -0.413253058636E+03   -0.32833E-01   -0.41962E-02  5108   0.174E-01    0.781E-01
RMM:   5    -0.413217352174E+03    0.35706E-01   -0.16598E-02  4778   0.130E-01    0.531E-02
RMM:   6    -0.413217437192E+03   -0.85018E-04   -0.28670E-03  5770   0.503E-02    0.326E-02
RMM:   7    -0.413217463817E+03   -0.26625E-04   -0.34052E-04  5691   0.173E-02    0.183E-02
RMM:   8    -0.413217462932E+03    0.88561E-06   -0.42706E-05  4722   0.666E-03    0.839E-03
RMM:   9    -0.413217459630E+03    0.33011E-05   -0.10600E-05  3536   0.366E-03    0.516E-03
RMM:  10    -0.413217458216E+03    0.14148E-05   -0.29907E-06  2700   0.241E-03    0.345E-03
RMM:  11    -0.413217454727E+03    0.34890E-05   -0.11757E-06  2498   0.183E-03    0.200E-03
RMM:  12    -0.413217447833E+03    0.68936E-05   -0.12122E-06  2498   0.170E-03    0.966E-04
RMM:  13    -0.413217445081E+03    0.27520E-05   -0.41634E-07  2317   0.113E-03    0.635E-04
RMM:  14    -0.413217443975E+03    0.11059E-05   -0.19150E-07  1697   0.786E-04    0.385E-04
RMM:  15    -0.413217438855E+03    0.51200E-05   -0.14044E-07  1492   0.732E-04    0.215E-04
RMM:  16    -0.413217434537E+03    0.43183E-05   -0.92645E-08  1313   0.662E-04    0.204E-04
RMM:  17    -0.413217430587E+03    0.39496E-05   -0.59390E-08  1117   0.615E-04    0.169E-04
RMM:  18    -0.413217425611E+03    0.49761E-05   -0.64043E-08  1307   0.629E-04    0.123E-04
RMM:  19    -0.413217423141E+03    0.24703E-05   -0.31596E-08   994   0.559E-04    0.462E-05
RMM:  20    -0.413217422488E+03    0.65290E-06   -0.14790E-08   774   0.518E-04
   43 T=    71. E= -.41286728E+03 F= -.41321742E+03 E0= -.41319641E+03  EK= 0.35014E+00 SP= 0.00E+00 SK= 0.00E+00
       N       E                     dE             d eps       ncg     rms          rms(c)
RMM:   1    -0.413232785192E+03   -0.15362E-01   -0.76599E+00  4316   0.105E+00    0.967E-01
RMM:   2    -0.413226909521E+03    0.58757E-02   -0.11598E-01  4360   0.135E-01    0.715E-01
RMM:   3    -0.413222588614E+03    0.43209E-02   -0.45381E-02  4999   0.971E-02    0.284E-01
RMM:   4    -0.413255420268E+03   -0.32832E-01   -0.46476E-02  5093   0.184E-01    0.794E-01
RMM:   5    -0.413218496078E+03    0.36924E-01   -0.16566E-02  4753   0.132E-01    0.541E-02
RMM:   6    -0.413218580373E+03   -0.84295E-04   -0.29414E-03  5769   0.506E-02    0.321E-02
RMM:   7    -0.413218604397E+03   -0.24024E-04   -0.34359E-04  5728   0.175E-02    0.189E-02
RMM:   8    -0.413218611539E+03   -0.71415E-05   -0.78547E-05  5147   0.889E-03    0.117E-02
RMM:   9    -0.413218604621E+03    0.69176E-05   -0.20219E-05  4464   0.516E-03    0.612E-03
RMM:  10    -0.413218603714E+03    0.90733E-06   -0.34002E-06  2717   0.277E-03
   44 T=    72. E= -.41286708E+03 F= -.41321860E+03 E0= -.41319761E+03  EK= 0.35152E+00 SP= 0.00E+00 SK= 0.00E+00
       N       E                     dE             d eps       ncg     rms          rms(c)
RMM:   1    -0.413238890120E+03   -0.20285E-01   -0.76691E+00  4316   0.114E+00    0.984E-01
RMM:   2    -0.413228047612E+03    0.10843E-01   -0.12086E-01  4436   0.142E-01    0.715E-01
RMM:   3    -0.413231848734E+03   -0.38011E-02   -0.47300E-02  5101   0.126E-01    0.457E-01
RMM:   4    -0.413241373784E+03   -0.95250E-02   -0.43187E-02  5036   0.182E-01    0.607E-01
RMM:   5    -0.413219983719E+03    0.21390E-01   -0.75902E-03  4611   0.101E-01    0.523E-02
RMM:   6    -0.413219988558E+03   -0.48397E-05   -0.16486E-03  5575   0.388E-02    0.314E-02
RMM:   7    -0.413219996647E+03   -0.80890E-05   -0.28401E-04  5448   0.170E-02    0.215E-02
RMM:   8    -0.413219991910E+03    0.47373E-05   -0.84721E-05  5040   0.101E-02    0.100E-02
RMM:   9    -0.413219982810E+03    0.90999E-05   -0.98298E-06  3666   0.444E-03    0.442E-03
RMM:  10    -0.413219977528E+03    0.52820E-05   -0.19942E-06  2618   0.218E-03    0.246E-03
RMM:  11    -0.413219971890E+03    0.56382E-05   -0.97533E-07  2479   0.158E-03    0.129E-03
RMM:  12    -0.413219963035E+03    0.88546E-05   -0.75387E-07  2411   0.133E-03    0.594E-04
RMM:  13    -0.413219958745E+03    0.42906E-05   -0.30508E-07  1926   0.925E-04    0.360E-04
RMM:  14    -0.413219955164E+03    0.35807E-05   -0.16362E-07  1345   0.726E-04    0.196E-04
RMM:  15    -0.413219944731E+03    0.10433E-04   -0.18178E-07  1583   0.772E-04    0.223E-04
RMM:  16    -0.413219940749E+03    0.39817E-05   -0.97193E-08  1287   0.644E-04    0.120E-04
RMM:  17    -0.413219935407E+03    0.53423E-05   -0.82293E-08  1310   0.632E-04    0.645E-05
RMM:  18    -0.413219931755E+03    0.36522E-05   -0.53373E-08  1116   0.577E-04    0.536E-05
RMM:  19    -0.413219931147E+03    0.60805E-06   -0.26527E-08   815   0.519E-04
   45 T=    72. E= -.41286740E+03 F= -.41321993E+03 E0= -.41319896E+03  EK= 0.35253E+00 SP= 0.00E+00 SK= 0.00E+00
       N       E                     dE             d eps       ncg     rms          rms(c)
RMM:   1    -0.413237598147E+03   -0.17666E-01   -0.76210E+00  4314   0.121E+00    0.968E-01
RMM:   2    -0.413227608792E+03    0.99894E-02   -0.11876E-01  4423   0.148E-01    0.709E-01
RMM:   3    -0.413226838273E+03    0.77052E-03   -0.43890E-02  5069   0.112E-01    0.358E-01
RMM:   4    -0.413249389851E+03   -0.22552E-01   -0.45561E-02  5066   0.185E-01    0.713E-01
RMM:   5    -0.413219667432E+03    0.29722E-01   -0.11954E-02  4699   0.118E-01    0.544E-02
RMM:   6    -0.413219706783E+03   -0.39350E-04   -0.22508E-03  5705   0.451E-02    0.311E-02
RMM:   7    -0.413219731024E+03   -0.24241E-04   -0.30355E-04  5666   0.171E-02    0.199E-02
RMM:   8    -0.413219734397E+03   -0.33728E-05   -0.96869E-05  5141   0.102E-02    0.118E-02
RMM:   9    -0.413219724771E+03    0.96261E-05   -0.15327E-05  4190   0.513E-03    0.493E-03
RMM:  10    -0.413219721473E+03    0.32974E-05   -0.32728E-06  2741   0.255E-03    0.299E-03
RMM:  11    -0.413219718315E+03    0.31581E-05   -0.11325E-06  2494   0.175E-03    0.159E-03
RMM:  12    -0.413219712444E+03    0.58706E-05   -0.85963E-07  2467   0.149E-03    0.763E-04
RMM:  13    -0.413219708465E+03    0.39793E-05   -0.36944E-07  2104   0.103E-03    0.372E-04
RMM:  14    -0.413219706151E+03    0.23141E-05   -0.19019E-07  1536   0.765E-04    0.204E-04
RMM:  15    -0.413219700248E+03    0.59028E-05   -0.15150E-07  1392   0.735E-04    0.166E-04
RMM:  16    -0.413219697239E+03    0.30095E-05   -0.92575E-08  1170   0.655E-04    0.109E-04
RMM:  17    -0.413219693982E+03    0.32565E-05   -0.76492E-08  1247   0.637E-04    0.725E-05
RMM:  18    -0.413219690450E+03    0.35319E-05   -0.59801E-08  1174   0.606E-04    0.391E-05
RMM:  19    -0.413219688454E+03    0.19959E-05   -0.37765E-08   964   0.558E-04    0.350E-05
RMM:  20    -0.413219688120E+03    0.33430E-06   -0.19386E-08   757   0.524E-04
   46 T=    72. E= -.41286722E+03 F= -.41321969E+03 E0= -.41319874E+03  EK= 0.35247E+00 SP= 0.00E+00 SK= 0.00E+00
       N       E                     dE             d eps       ncg     rms          rms(c)
RMM:   1    -0.413238730325E+03   -0.19042E-01   -0.77217E+00  4316   0.133E+00    0.961E-01
RMM:   2    -0.413226891626E+03    0.11839E-01   -0.12198E-01  4436   0.163E-01    0.715E-01
RMM:   3    -0.413228633121E+03   -0.17415E-02   -0.47914E-02  5083   0.127E-01    0.424E-01
RMM:   4    -0.413244808250E+03   -0.16175E-01   -0.45643E-02  5043   0.187E-01    0.673E-01
RMM:   5    -0.413218603238E+03    0.26205E-01   -0.10240E-02  4670   0.113E-01    0.534E-02
RMM:   6    -0.413218600540E+03    0.26978E-05   -0.18934E-03  5642   0.418E-02    0.290E-02
RMM:   7    -0.413218621336E+03   -0.20796E-04   -0.27396E-04  5644   0.164E-02    0.191E-02
RMM:   8    -0.413218626870E+03   -0.55342E-05   -0.95809E-05  5108   0.103E-02    0.106E-02
RMM:   9    -0.413218619837E+03    0.70330E-05   -0.12786E-05  3998   0.493E-03    0.447E-03
RMM:  10    -0.413218617977E+03    0.18605E-05   -0.28332E-06  2708   0.240E-03    0.266E-03
RMM:  11    -0.413218615693E+03    0.22835E-05   -0.11689E-06  2495   0.171E-03    0.134E-03
RMM:  12    -0.413218611712E+03    0.39818E-05   -0.83112E-07  2425   0.140E-03    0.664E-04
RMM:  13    -0.413218608814E+03    0.28976E-05   -0.37193E-07  1907   0.977E-04    0.314E-04
RMM:  14    -0.413218606341E+03    0.24729E-05   -0.20691E-07  1467   0.771E-04    0.168E-04
RMM:  15    -0.413218601393E+03    0.49479E-05   -0.19543E-07  1463   0.763E-04    0.144E-04
RMM:  16    -0.413218598881E+03    0.25121E-05   -0.11855E-07  1279   0.667E-04    0.958E-05
RMM:  17    -0.413218595151E+03    0.37302E-05   -0.10736E-07  1367   0.660E-04    0.514E-05
RMM:  18    -0.413218592290E+03    0.28611E-05   -0.70922E-08  1127   0.596E-04    0.384E-05
RMM:  19    -0.413218591968E+03    0.32231E-06   -0.31875E-08   795   0.528E-04
   47 T=    72. E= -.41286716E+03 F= -.41321859E+03 E0= -.41319765E+03  EK= 0.35143E+00 SP= 0.00E+00 SK= 0.00E+00
       N       E                     dE             d eps       ncg     rms          rms(c)
RMM:   1    -0.413240022654E+03   -0.21430E-01   -0.76738E+00  4312   0.140E+00    0.974E-01
RMM:   2    -0.413224611428E+03    0.15411E-01   -0.12526E-01  4476   0.171E-01    0.713E-01
RMM:   3    -0.413230484516E+03   -0.58731E-02   -0.46161E-02  5095   0.138E-01    0.492E-01
RMM:   4    -0.413236645349E+03   -0.61608E-02   -0.43746E-02  5026   0.186E-01    0.587E-01
RMM:   5    -0.413216617201E+03    0.20028E-01   -0.68934E-03  4609   0.994E-02    0.534E-02
RMM:   6    -0.413216585482E+03    0.31719E-04   -0.13830E-03  5424   0.365E-02    0.285E-02
RMM:   7    -0.413216607911E+03   -0.22429E-04   -0.21488E-04  5584   0.148E-02    0.179E-02
RMM:   8    -0.413216612030E+03   -0.41187E-05   -0.96488E-05  5148   0.103E-02    0.105E-02
RMM:   9    -0.413216601536E+03    0.10494E-04   -0.12072E-05  3961   0.491E-03    0.419E-03
RMM:  10    -0.413216598228E+03    0.33077E-05   -0.28396E-06  2713   0.237E-03    0.239E-03
RMM:  11    -0.413216593773E+03    0.44552E-05   -0.11165E-06  2485   0.172E-03    0.120E-03
RMM:  12    -0.413216588535E+03    0.52374E-05   -0.60041E-07  2347   0.129E-03    0.640E-04
RMM:  13    -0.413216584635E+03    0.39006E-05   -0.28289E-07  1785   0.905E-04    0.302E-04
RMM:  14    -0.413216580664E+03    0.39712E-05   -0.17025E-07  1412   0.745E-04    0.162E-04
RMM:  15    -0.413216575638E+03    0.50255E-05   -0.13768E-07  1404   0.716E-04    0.124E-04
RMM:  16    -0.413216572477E+03    0.31609E-05   -0.88471E-08  1203   0.639E-04    0.838E-05
RMM:  17    -0.413216566650E+03    0.58271E-05   -0.99860E-08  1450   0.668E-04    0.698E-05
RMM:  18    -0.413216565668E+03    0.98255E-06   -0.37066E-08   842   0.534E-04
   48 T=    71. E= -.41286735E+03 F= -.41321657E+03 E0= -.41319564E+03  EK= 0.34922E+00 SP= 0.00E+00 SK= 0.00E+00
       N       E                     dE             d eps       ncg     rms          rms(c)
RMM:   1    -0.413237082567E+03   -0.20516E-01   -0.75643E+00  4310   0.151E+00    0.963E-01
RMM:   2    -0.413220184435E+03    0.16898E-01   -0.12560E-01  4533   0.182E-01    0.703E-01
RMM:   3    -0.413232763904E+03   -0.12579E-01   -0.48930E-02  5114   0.156E-01    0.597E-01
RMM:   4    -0.413226071622E+03    0.66923E-02   -0.42391E-02  4981   0.186E-01    0.488E-01
RMM:   5    -0.413212284116E+03    0.13788E-01   -0.44672E-03  4562   0.878E-02    0.531E-02
RMM:   6    -0.413212204152E+03    0.79963E-04   -0.75778E-04  4964   0.299E-02    0.277E-02
RMM:   7    -0.413212219800E+03   -0.15648E-04   -0.14290E-04  5578   0.125E-02    0.115E-02
RMM:   8    -0.413212220359E+03   -0.55887E-06   -0.36042E-05  5086   0.654E-03    0.704E-03
RMM:   9    -0.413212214332E+03    0.60272E-05   -0.88670E-06  3658   0.360E-03    0.387E-03
RMM:  10    -0.413212211928E+03    0.24044E-05   -0.16245E-06  2524   0.213E-03    0.221E-03
RMM:  11    -0.413212206183E+03    0.57445E-05   -0.99823E-07  2458   0.167E-03    0.121E-03
RMM:  12    -0.413212202565E+03    0.36177E-05   -0.41722E-07  2257   0.111E-03    0.696E-04
RMM:  13    -0.413212197125E+03    0.54408E-05   -0.28308E-07  1868   0.907E-04    0.391E-04
RMM:  14    -0.413212192658E+03    0.44666E-05   -0.14685E-07  1227   0.698E-04    0.214E-04
RMM:  15    -0.413212187916E+03    0.47424E-05   -0.11689E-07  1162   0.673E-04    0.115E-04
RMM:  16    -0.413212183871E+03    0.40443E-05   -0.93381E-08  1316   0.656E-04    0.103E-04
RMM:  17    -0.413212179682E+03    0.41890E-05   -0.77465E-08  1225   0.606E-04    0.805E-05
RMM:  18    -0.413212177707E+03    0.19755E-05   -0.38696E-08   874   0.528E-04    0.509E-05
RMM:  19    -0.413212176227E+03    0.14800E-05   -0.27436E-08   783   0.512E-04    0.287E-05
RMM:  20    -0.413212175393E+03    0.83372E-06   -0.18590E-08   673   0.495E-04
   49 T=    70. E= -.41286696E+03 F= -.41321218E+03 E0= -.41319125E+03  EK= 0.34522E+00 SP= 0.00E+00 SK= 0.00E+00
       N       E                     dE             d eps       ncg     rms          rms(c)
RMM:   1    -0.413234867879E+03   -0.22692E-01   -0.75594E+00  4311   0.166E+00    0.935E-01
RMM:   2    -0.413215192948E+03    0.19675E-01   -0.13604E-01  4618   0.196E-01    0.703E-01
RMM:   3    -0.413235172839E+03   -0.19980E-01   -0.52756E-02  5133   0.176E-01    0.697E-01
RMM:   4    -0.413218476562E+03    0.16696E-01   -0.46152E-02  4964   0.197E-01    0.445E-01
RMM:   5    -0.413207076859E+03    0.11400E-01   -0.41106E-03  4554   0.881E-02    0.560E-02
RMM:   6    -0.413206961924E+03    0.11493E-03   -0.56830E-04  4801   0.285E-02    0.279E-02
RMM:   7    -0.413206986293E+03   -0.24369E-04   -0.18992E-04  5788   0.149E-02    0.148E-02
RMM:   8    -0.413206978536E+03    0.77566E-05   -0.61215E-05  5157   0.877E-03    0.917E-03
RMM:   9    -0.413206974955E+03    0.35813E-05   -0.11400E-05  4011   0.444E-03    0.392E-03
RMM:  10    -0.413206972105E+03    0.28493E-05   -0.19004E-06  2602   0.224E-03    0.233E-03
RMM:  11    -0.413206967711E+03    0.43948E-05   -0.11757E-06  2496   0.175E-03    0.145E-03
RMM:  12    -0.413206964941E+03    0.27693E-05   -0.50784E-07  2312   0.119E-03    0.770E-04
RMM:  13    -0.413206960742E+03    0.41988E-05   -0.44019E-07  2291   0.103E-03    0.521E-04
RMM:  14    -0.413206957375E+03    0.33669E-05   -0.21556E-07  1396   0.748E-04    0.308E-04
RMM:  15    -0.413206953344E+03    0.40316E-05   -0.18756E-07  1364   0.729E-04    0.138E-04
RMM:  16    -0.413206950801E+03    0.25432E-05   -0.12919E-07  1379   0.666E-04    0.117E-04
RMM:  17    -0.413206947210E+03    0.35903E-05   -0.12821E-07  1384   0.654E-04    0.102E-04
RMM:  18    -0.413206945693E+03    0.15171E-05   -0.63973E-08   985   0.550E-04    0.710E-05
RMM:  19    -0.413206944337E+03    0.13562E-05   -0.47023E-08   942   0.533E-04    0.339E-05
RMM:  20    -0.413206943500E+03    0.83663E-06   -0.32209E-08   827   0.508E-04
   50 T=    69. E= -.41286718E+03 F= -.41320694E+03 E0= -.41318602E+03  EK= 0.33976E+00 SP= 0.00E+00 SK= 0.00E+00
       N       E                     dE             d eps       ncg     rms          rms(c)
RMM:   1    -0.413230250211E+03   -0.23306E-01   -0.74559E+00  4306   0.175E+00    0.939E-01
RMM:   2    -0.413207418947E+03    0.22831E-01   -0.13815E-01  4684   0.204E-01    0.699E-01
RMM:   3    -0.413236549682E+03   -0.29131E-01   -0.57315E-02  5140   0.194E-01    0.799E-01
RMM:   4    -0.413207307742E+03    0.29242E-01   -0.47009E-02  4935   0.202E-01    0.369E-01
RMM:   5    -0.413199552499E+03    0.77552E-02   -0.38529E-03  4753   0.871E-02    0.628E-02
RMM:   6    -0.413199373303E+03    0.17920E-03   -0.43490E-04  4644   0.284E-02    0.308E-02
RMM:   7    -0.413199411140E+03   -0.37838E-04   -0.28941E-04  5645   0.188E-02    0.241E-02
RMM:   8    -0.413199381084E+03    0.30056E-04   -0.79257E-05  4978   0.107E-02    0.999E-03
RMM:   9    -0.413199376638E+03    0.44462E-05   -0.23532E-05  5143   0.580E-03    0.450E-03
RMM:  10    -0.413199372877E+03    0.37606E-05   -0.29323E-06  2737   0.261E-03    0.282E-03
RMM:  11    -0.413199367722E+03    0.51552E-05   -0.13006E-06  2511   0.194E-03    0.192E-03
RMM:  12    -0.413199364118E+03    0.36038E-05   -0.46258E-07  2393   0.120E-03    0.923E-04
RMM:  13    -0.413199360276E+03    0.38420E-05   -0.36917E-07  2201   0.975E-04    0.489E-04
RMM:  14    -0.413199356049E+03    0.42267E-05   -0.24838E-07  1649   0.809E-04    0.349E-04
[...]
RMM:   4    -0.413819958594E+03    0.32381E-01   -0.55493E-02  5295   0.256E-01    0.781E-01
RMM:   5    -0.413810277264E+03    0.96813E-02   -0.48375E-02  4377   0.299E-01    0.278E-01
RMM:   6    -0.413809210433E+03    0.10668E-02   -0.13049E-02  5083   0.148E-01    0.147E-01
RMM:   7    -0.413808547814E+03    0.66262E-03   -0.34563E-03  5349   0.739E-02    0.104E-01
RMM:   8    -0.413808260121E+03    0.28769E-03   -0.96223E-04  4613   0.429E-02    0.554E-02
RMM:   9    -0.413808247890E+03    0.12231E-04   -0.74012E-04  4581   0.356E-02    0.244E-02
RMM:  10    -0.413808263466E+03   -0.15576E-04   -0.14586E-04  5726   0.145E-02    0.161E-02
RMM:  11    -0.413808269214E+03   -0.57486E-05   -0.38652E-05  4660   0.836E-03    0.721E-03
RMM:  12    -0.413808278049E+03   -0.88349E-05   -0.10963E-05  3753   0.439E-03    0.374E-03
RMM:  13    -0.413808283774E+03   -0.57251E-05   -0.38052E-06  2880   0.277E-03    0.233E-03
RMM:  14    -0.413808288431E+03   -0.46565E-05   -0.23933E-06  2692   0.224E-03    0.126E-03
RMM:  15    -0.413808290893E+03   -0.24626E-05   -0.13621E-06  2517   0.162E-03    0.628E-04
RMM:  16    -0.413808292308E+03   -0.14143E-05   -0.88621E-07  2338   0.124E-03    0.356E-04
RMM:  17    -0.413808292894E+03   -0.58674E-06   -0.64283E-07  2094   0.106E-03
  139 T=   226. E= -.41269897E+03 F= -.41380829E+03 E0= -.41378753E+03  EK= 0.11093E+01 SP= 0.00E+00 SK= 0.00E+00
       N       E                     dE             d eps       ncg     rms          rms(c)
RMM:   1    -0.413914470978E+03   -0.10618E+00   -0.24808E+01  4271   0.908E+00    0.117E+00
RMM:   2    -0.413727119062E+03    0.18735E+00   -0.72848E-01  5403   0.990E-01    0.104E+00
RMM:   3    -0.413757474276E+03   -0.30355E-01   -0.12824E-01  5732   0.383E-01    0.102E+00
RMM:   4    -0.413736642798E+03    0.20831E-01   -0.57998E-02  5226   0.255E-01    0.724E-01
RMM:   5    -0.413724709902E+03    0.11933E-01   -0.49099E-02  4591   0.292E-01    0.252E-01
RMM:   6    -0.413722565225E+03    0.21447E-02   -0.55053E-03  4636   0.114E-01    0.998E-02
RMM:   7    -0.413722454223E+03    0.11100E-03   -0.20690E-03  5578   0.567E-02    0.702E-02
RMM:   8    -0.413722426215E+03    0.28008E-04   -0.10531E-03  5222   0.376E-02    0.447E-02
RMM:   9    -0.413722377475E+03    0.48739E-04   -0.33889E-04  4965   0.245E-02    0.239E-02
RMM:  10    -0.413722384492E+03   -0.70166E-05   -0.11713E-04  5659   0.127E-02    0.124E-02
RMM:  11    -0.413722391217E+03   -0.67248E-05   -0.24332E-05  4770   0.611E-03    0.681E-03
RMM:  12    -0.413722396741E+03   -0.55246E-05   -0.65700E-06  3259   0.364E-03    0.316E-03
RMM:  13    -0.413722401375E+03   -0.46335E-05   -0.28240E-06  2743   0.252E-03    0.197E-03
RMM:  14    -0.413722406067E+03   -0.46922E-05   -0.18756E-06  2634   0.209E-03    0.851E-04
RMM:  15    -0.413722407906E+03   -0.18393E-05   -0.81343E-07  2388   0.132E-03    0.477E-04
RMM:  16    -0.413722409512E+03   -0.16054E-05   -0.60878E-07  2147   0.110E-03    0.294E-04
RMM:  17    -0.413722410606E+03   -0.10938E-05   -0.51211E-07  1890   0.958E-04    0.155E-04
RMM:  18    -0.413722411070E+03   -0.46429E-06   -0.33032E-07  1690   0.805E-04
  140 T=   208. E= -.41270288E+03 F= -.41372241E+03 E0= -.41370207E+03  EK= 0.10195E+01 SP= 0.00E+00 SK= 0.00E+00
       N       E                     dE             d eps       ncg     rms          rms(c)
RMM:   1    -0.413731136852E+03   -0.87262E-02   -0.22063E+01  4265   0.845E+00    0.133E+00
RMM:   2    -0.413575458726E+03    0.15568E+00   -0.64798E-01  5370   0.901E-01    0.113E+00
RMM:   3    -0.413641814791E+03   -0.66356E-01   -0.16109E-01  5645   0.407E-01    0.137E+00
RMM:   4    -0.413571935763E+03    0.69879E-01   -0.70709E-02  4854   0.326E-01    0.452E-01
RMM:   5    -0.413571443056E+03    0.49271E-03   -0.39640E-02  5073   0.250E-01    0.218E-01
RMM:   6    -0.413569499644E+03    0.19434E-02   -0.64965E-03  4991   0.110E-01    0.896E-02
RMM:   7    -0.413569452188E+03    0.47456E-04   -0.23296E-03  5631   0.560E-02    0.704E-02
RMM:   8    -0.413569366532E+03    0.85656E-04   -0.74312E-04  5022   0.334E-02    0.350E-02
RMM:   9    -0.413569356031E+03    0.10500E-04   -0.24516E-04  5283   0.203E-02    0.187E-02
RMM:  10    -0.413569360830E+03   -0.47983E-05   -0.75312E-05  5765   0.985E-03    0.988E-03
RMM:  11    -0.413569364867E+03   -0.40376E-05   -0.14177E-05  4314   0.482E-03    0.503E-03
RMM:  12    -0.413569370093E+03   -0.52261E-05   -0.56755E-06  3180   0.347E-03    0.284E-03
RMM:  13    -0.413569373534E+03   -0.34407E-05   -0.18735E-06  2615   0.226E-03    0.167E-03
RMM:  14    -0.413569376104E+03   -0.25702E-05   -0.10201E-06  2530   0.160E-03    0.676E-04
RMM:  15    -0.413569377416E+03   -0.13117E-05   -0.54392E-07  2094   0.108E-03    0.399E-04
RMM:  16    -0.413569378863E+03   -0.14468E-05   -0.53006E-07  2101   0.103E-03    0.274E-04
RMM:  17    -0.413569379509E+03   -0.64639E-06   -0.29277E-07  1568   0.797E-04
  141 T=   177. E= -.41270051E+03 F= -.41356938E+03 E0= -.41354953E+03  EK= 0.86887E+00 SP= 0.00E+00 SK= 0.00E+00
       N       E                     dE             d eps       ncg     rms          rms(c)
RMM:   1    -0.413493035187E+03    0.76344E-01   -0.17182E+01  4264   0.744E+00    0.118E+00
RMM:   2    -0.413398621460E+03    0.94414E-01   -0.46564E-01  5320   0.747E-01    0.938E-01
RMM:   3    -0.413484694294E+03   -0.86073E-01   -0.14652E-01  5534   0.383E-01    0.132E+00
RMM:   4    -0.413399309847E+03    0.85384E-01   -0.72547E-02  4837   0.318E-01    0.292E-01
RMM:   5    -0.413399346304E+03   -0.36457E-04   -0.29007E-02  5441   0.203E-01    0.185E-01
RMM:   6    -0.413397844739E+03    0.15016E-02   -0.64640E-03  5154   0.999E-02    0.829E-02
RMM:   7    -0.413397715925E+03    0.12881E-03   -0.16224E-03  5557   0.480E-02    0.552E-02
RMM:   8    -0.413397697128E+03    0.18797E-04   -0.40295E-04  5058   0.257E-02    0.271E-02
RMM:   9    -0.413397697606E+03   -0.47840E-06   -0.13634E-04  5192   0.147E-02    0.144E-02
RMM:  10    -0.413397700840E+03   -0.32339E-05   -0.44877E-05  5675   0.750E-03    0.797E-03
RMM:  11    -0.413397703717E+03   -0.28768E-05   -0.10100E-05  3806   0.397E-03    0.460E-03
RMM:  12    -0.413397707673E+03   -0.39561E-05   -0.40311E-06  2902   0.321E-03    0.224E-03
RMM:  13    -0.413397709813E+03   -0.21397E-05   -0.14504E-06  2540   0.206E-03    0.127E-03
RMM:  14    -0.413397711394E+03   -0.15817E-05   -0.74841E-07  2482   0.142E-03    0.671E-04
RMM:  15    -0.413397712279E+03   -0.88477E-06   -0.45825E-07  2084   0.103E-03
  142 T=   144. E= -.41268827E+03 F= -.41339771E+03 E0= -.41337805E+03  EK= 0.70944E+00 SP= 0.00E+00 SK= 0.00E+00
       N       E                     dE             d eps       ncg     rms          rms(c)
RMM:   1    -0.413426546427E+03   -0.28835E-01   -0.13847E+01  4272   0.667E+00    0.907E-01
RMM:   2    -0.413359660598E+03    0.66886E-01   -0.37481E-01  5358   0.661E-01    0.713E-01
RMM:   3    -0.413396882811E+03   -0.37222E-01   -0.76468E-02  5543   0.301E-01    0.903E-01
RMM:   4    -0.413367403463E+03    0.29479E-01   -0.46236E-02  5187   0.229E-01    0.463E-01
RMM:   5    -0.413360594247E+03    0.68092E-02   -0.20810E-02  4892   0.193E-01    0.131E-01
RMM:   6    -0.413360348698E+03    0.24555E-03   -0.28513E-03  5538   0.710E-02    0.770E-02
RMM:   7    -0.413360239278E+03    0.10942E-03   -0.89664E-04  5130   0.363E-02    0.472E-02
RMM:   8    -0.413360211011E+03    0.28267E-04   -0.48821E-04  5330   0.272E-02    0.281E-02
RMM:   9    -0.413360210030E+03    0.98156E-06   -0.14265E-04  5685   0.145E-02    0.215E-02
RMM:  10    -0.413360206996E+03    0.30341E-05   -0.61392E-05  5348   0.987E-03    0.810E-03
RMM:  11    -0.413360211704E+03   -0.47083E-05   -0.26592E-05  5069   0.564E-03    0.691E-03
RMM:  12    -0.413360213596E+03   -0.18922E-05   -0.51123E-06  3179   0.349E-03    0.255E-03
RMM:  13    -0.413360215197E+03   -0.16010E-05   -0.16839E-06  2543   0.212E-03    0.133E-03
RMM:  14    -0.413360216886E+03   -0.16895E-05   -0.10840E-06  2436   0.167E-03    0.527E-04
RMM:  15    -0.413360217758E+03   -0.87158E-06   -0.68935E-07  2309   0.128E-03
  143 T=   136. E= -.41269059E+03 F= -.41336022E+03 E0= -.41334049E+03  EK= 0.66963E+00 SP= 0.00E+00 SK= 0.00E+00
       N       E                     dE             d eps       ncg     rms          rms(c)
RMM:   1    -0.413540437089E+03   -0.18022E+00   -0.14931E+01  4292   0.683E+00    0.123E+00
RMM:   2    -0.413442949636E+03    0.97487E-01   -0.39968E-01  5387   0.725E-01    0.104E+00
RMM:   3    -0.413497929858E+03   -0.54980E-01   -0.11907E-01  5524   0.361E-01    0.130E+00
RMM:   4    -0.413439556362E+03    0.58373E-01   -0.73542E-02  5163   0.306E-01    0.519E-01
RMM:   5    -0.413434506791E+03    0.50496E-02   -0.25845E-02  4693   0.224E-01    0.145E-01
RMM:   6    -0.413434481646E+03    0.25145E-04   -0.58846E-03  5607   0.930E-02    0.969E-02
RMM:   7    -0.413434194239E+03    0.28741E-03   -0.15592E-03  5133   0.469E-02    0.551E-02
RMM:   8    -0.413434123669E+03    0.70570E-04   -0.51014E-04  5417   0.291E-02    0.318E-02
RMM:   9    -0.413434131999E+03   -0.83300E-05   -0.21629E-04  5669   0.174E-02    0.222E-02
RMM:  10    -0.413434127260E+03    0.47388E-05   -0.56377E-05  5358   0.971E-03    0.975E-03
RMM:  11    -0.413434133687E+03   -0.64273E-05   -0.41132E-05  5422   0.710E-03    0.825E-03
RMM:  12    -0.413434135665E+03   -0.19781E-05   -0.62640E-06  3372   0.381E-03    0.301E-03
RMM:  13    -0.413434137517E+03   -0.18520E-05   -0.26532E-06  2700   0.241E-03    0.138E-03
RMM:  14    -0.413434139218E+03   -0.17003E-05   -0.11160E-06  2454   0.177E-03    0.638E-04
RMM:  15    -0.413434140098E+03   -0.88007E-06   -0.73252E-07  2299   0.136E-03
  144 T=   149. E= -.41270107E+03 F= -.41343414E+03 E0= -.41341431E+03  EK= 0.73307E+00 SP= 0.00E+00 SK= 0.00E+00
       N       E                     dE             d eps       ncg     rms          rms(c)
RMM:   1    -0.413618578263E+03   -0.18444E+00   -0.16545E+01  4298   0.731E+00    0.122E+00
RMM:   2    -0.413492307341E+03    0.12627E+00   -0.40152E-01  5354   0.760E-01    0.108E+00
RMM:   3    -0.413528976114E+03   -0.36669E-01   -0.11457E-01  5543   0.362E-01    0.125E+00
RMM:   4    -0.413481448270E+03    0.47528E-01   -0.66261E-02  5203   0.297E-01    0.531E-01
RMM:   5    -0.413477880682E+03    0.35676E-02   -0.27778E-02  4713   0.229E-01    0.181E-01
RMM:   6    -0.413477883912E+03   -0.32298E-05   -0.93725E-03  5459   0.116E-01    0.126E-01
RMM:   7    -0.413477094587E+03    0.78932E-03   -0.20460E-03  4877   0.580E-02    0.580E-02
RMM:   8    -0.413477069064E+03    0.25523E-04   -0.76629E-04  5708   0.332E-02    0.356E-02
RMM:   9    -0.413477071528E+03   -0.24639E-05   -0.23294E-04  5408   0.184E-02    0.229E-02
RMM:  10    -0.413477065698E+03    0.58302E-05   -0.64714E-05  5524   0.102E-02    0.101E-02
RMM:  11    -0.413477072668E+03   -0.69704E-05   -0.43925E-05  5451   0.734E-03    0.869E-03
RMM:  12    -0.413477075684E+03   -0.30153E-05   -0.65124E-06  3402   0.388E-03    0.322E-03
RMM:  13    -0.413477077817E+03   -0.21329E-05   -0.28005E-06  2734   0.244E-03    0.137E-03
RMM:  14    -0.413477079975E+03   -0.21582E-05   -0.12049E-06  2494   0.181E-03    0.627E-04
RMM:  15    -0.413477081138E+03   -0.11628E-05   -0.75204E-07  2309   0.138E-03    0.421E-04
RMM:  16    -0.413477081929E+03   -0.79186E-06   -0.54689E-07  2197   0.115E-03
  145 T=   157. E= -.41270471E+03 F= -.41347708E+03 E0= -.41345712E+03  EK= 0.77237E+00 SP= 0.00E+00 SK= 0.00E+00
       N       E                     dE             d eps       ncg     rms          rms(c)
RMM:   1    -0.413551608482E+03   -0.74527E-01   -0.15722E+01  4298   0.733E+00    0.967E-01
RMM:   2    -0.413447249874E+03    0.10436E+00   -0.35117E-01  5286   0.730E-01    0.911E-01
RMM:   3    -0.413455739631E+03   -0.84898E-02   -0.81332E-02  5634   0.313E-01    0.953E-01
RMM:   4    -0.413431366931E+03    0.24373E-01   -0.36918E-02  5220   0.226E-01    0.461E-01
RMM:   5    -0.413430460015E+03    0.90692E-03   -0.19327E-02  4678   0.189E-01    0.212E-01
RMM:   6    -0.413430582747E+03   -0.12273E-03   -0.99101E-03  5247   0.120E-01    0.133E-01
RMM:   7    -0.413429662763E+03    0.91998E-03   -0.20802E-03  4893   0.608E-02    0.614E-02
RMM:   8    -0.413429644378E+03    0.18386E-04   -0.91127E-04  5772   0.349E-02    0.375E-02
RMM:   9    -0.413429628434E+03    0.15944E-04   -0.21501E-04  5191   0.178E-02    0.214E-02
RMM:  10    -0.413429622414E+03    0.60196E-05   -0.72163E-05  5610   0.105E-02    0.912E-03
RMM:  11    -0.413429628343E+03   -0.59284E-05   -0.32160E-05  5248   0.638E-03    0.801E-03
RMM:  12    -0.413429631385E+03   -0.30427E-05   -0.60270E-06  3311   0.368E-03    0.259E-03
RMM:  13    -0.413429633158E+03   -0.17723E-05   -0.21378E-06  2657   0.218E-03    0.115E-03
RMM:  14    -0.413429634894E+03   -0.17362E-05   -0.95641E-07  2469   0.161E-03    0.590E-04
RMM:  15    -0.413429635991E+03   -0.10970E-05   -0.59061E-07  2247   0.122E-03    0.439E-04
RMM:  16    -0.413429636576E+03   -0.58538E-06   -0.41200E-07  2007   0.980E-04
  146 T=   148. E= -.41270220E+03 F= -.41342964E+03 E0= -.41340944E+03  EK= 0.72744E+00 SP= 0.00E+00 SK= 0.00E+00
       N       E                     dE             d eps       ncg     rms          rms(c)
RMM:   1    -0.413394764063E+03    0.34872E-01   -0.12821E+01  4298   0.681E+00    0.754E-01
RMM:   2    -0.413339833691E+03    0.54930E-01   -0.28037E-01  5263   0.661E-01    0.774E-01
RMM:   3    -0.413336762637E+03    0.30711E-02   -0.57496E-02  5661   0.267E-01    0.729E-01
RMM:   4    -0.413323730937E+03    0.13032E-01   -0.21203E-02  5257   0.174E-01    0.383E-01
RMM:   5    -0.413323743586E+03   -0.12648E-04   -0.11650E-02  4673   0.146E-01    0.203E-01
RMM:   6    -0.413324000581E+03   -0.25700E-03   -0.80545E-03  5101   0.110E-01    0.120E-01
RMM:   7    -0.413323270380E+03    0.73020E-03   -0.17738E-03  4948   0.559E-02    0.567E-02
RMM:   8    -0.413323251499E+03    0.18881E-04   -0.79139E-04  5781   0.321E-02    0.338E-02
RMM:   9    -0.413323232219E+03    0.19280E-04   -0.16295E-04  5239   0.154E-02    0.187E-02
RMM:  10    -0.413323226572E+03    0.56474E-05   -0.61962E-05  5617   0.959E-03    0.801E-03
RMM:  11    -0.413323229846E+03   -0.32743E-05   -0.19356E-05  4700   0.510E-03    0.614E-03
RMM:  12    -0.413323231224E+03   -0.13782E-05   -0.36968E-06  2858   0.301E-03    0.201E-03
RMM:  13    -0.413323232006E+03   -0.78206E-06   -0.11052E-06  2499   0.177E-03
  147 T=   127. E= -.41269718E+03 F= -.41332323E+03 E0= -.41330270E+03  EK= 0.62605E+00 SP= 0.00E+00 SK= 0.00E+00
       N       E                     dE             d eps       ncg     rms          rms(c)
RMM:   1    -0.413261887262E+03    0.61344E-01   -0.96806E+00  4290   0.602E+00    0.639E-01
RMM:   2    -0.413242113738E+03    0.19774E-01   -0.21353E-01  5282   0.575E-01    0.666E-01
RMM:   3    -0.413238651487E+03    0.34623E-02   -0.43509E-02  5662   0.229E-01    0.608E-01
RMM:   4    -0.413229805929E+03    0.88456E-02   -0.16059E-02  5310   0.152E-01    0.318E-01
RMM:   5    -0.413229847548E+03   -0.41619E-04   -0.74552E-03  4667   0.118E-01    0.158E-01
RMM:   6    -0.413230068461E+03   -0.22091E-03   -0.47968E-03  5130   0.853E-02    0.945E-02
RMM:   7    -0.413229608120E+03    0.46034E-03   -0.11459E-03  4929   0.441E-02    0.415E-02
RMM:   8    -0.413229613363E+03   -0.52425E-05   -0.52720E-04  5805   0.259E-02    0.267E-02
RMM:   9    -0.413229602517E+03    0.10846E-04   -0.10158E-04  5297   0.121E-02    0.158E-02
RMM:  10    -0.413229597334E+03    0.51827E-05   -0.44161E-05  5517   0.801E-03    0.667E-03
RMM:  11    -0.413229598619E+03   -0.12852E-05   -0.12494E-05  4117   0.415E-03    0.492E-03
RMM:  12    -0.413229598945E+03   -0.32550E-06   -0.21950E-06  2676   0.250E-03
  148 T=   109. E= -.41269344E+03 F= -.41322960E+03 E0= -.41320870E+03  EK= 0.53616E+00 SP= 0.00E+00 SK= 0.00E+00
       N       E                     dE             d eps       ncg     rms          rms(c)
RMM:   1    -0.413223161513E+03    0.64371E-02   -0.79180E+00  4264   0.550E+00    0.595E-01
RMM:   2    -0.413215924765E+03    0.72367E-02   -0.18294E-01  5329   0.523E-01    0.595E-01
RMM:   3    -0.413215245011E+03    0.67975E-03   -0.36718E-02  5645   0.206E-01    0.563E-01
RMM:   4    -0.413207722923E+03    0.75221E-02   -0.15273E-02  5320   0.149E-01    0.287E-01
RMM:   5    -0.413207393516E+03    0.32941E-03   -0.55393E-03  4575   0.106E-01    0.113E-01
RMM:   6    -0.413207504234E+03   -0.11072E-03   -0.23669E-03  5216   0.614E-02    0.684E-02
RMM:   7    -0.413207297570E+03    0.20666E-03   -0.67279E-04  4985   0.321E-02    0.322E-02
RMM:   8    -0.413207296823E+03    0.74682E-06   -0.28372E-04  5747   0.198E-02    0.205E-02
RMM:   9    -0.413207295005E+03    0.18183E-05   -0.70282E-05  5401   0.100E-02    0.135E-02
RMM:  10    -0.413207291508E+03    0.34967E-05   -0.28199E-05  5202   0.658E-03    0.558E-03
RMM:  11    -0.413207293545E+03   -0.20368E-05   -0.10259E-05  3879   0.376E-03    0.434E-03
RMM:  12    -0.413207295133E+03   -0.15879E-05   -0.17538E-06  2607   0.240E-03    0.156E-03
RMM:  13    -0.413207296606E+03   -0.14731E-05   -0.77002E-07  2457   0.145E-03    0.783E-04
RMM:  14    -0.413207298628E+03   -0.20226E-05   -0.51169E-07  2176   0.114E-03    0.374E-04
RMM:  15    -0.413207300825E+03   -0.21967E-05   -0.41068E-07  2020   0.967E-04    0.261E-04
RMM:  16    -0.413207302737E+03   -0.19116E-05   -0.27741E-07  1684   0.812E-04    0.151E-04
RMM:  17    -0.413207304911E+03   -0.21745E-05   -0.30468E-07  1801   0.811E-04    0.137E-04
RMM:  18    -0.413207306512E+03   -0.16003E-05   -0.17597E-07  1292   0.674E-04    0.898E-05
RMM:  19    -0.413207307757E+03   -0.12457E-05   -0.13999E-07  1322   0.646E-04    0.517E-05
RMM:  20    -0.413207308568E+03   -0.81043E-06   -0.82803E-08  1123   0.580E-04
  149 T=   105. E= -.41269206E+03 F= -.41320731E+03 E0= -.41318602E+03  EK= 0.51525E+00 SP= 0.00E+00 SK= 0.00E+00
       N       E                     dE             d eps       ncg     rms          rms(c)
RMM:   1    -0.413296379551E+03   -0.89072E-01   -0.84229E+00  4264   0.561E+00    0.584E-01
RMM:   2    -0.413284055358E+03    0.12324E-01   -0.20947E-01  5357   0.545E-01    0.567E-01
RMM:   3    -0.413286233921E+03   -0.21786E-02   -0.37904E-02  5669   0.209E-01    0.569E-01
RMM:   4    -0.413278262427E+03    0.79715E-02   -0.15071E-02  5290   0.149E-01    0.297E-01
RMM:   5    -0.413277802666E+03    0.45976E-03   -0.51381E-03  4464   0.106E-01    0.106E-01
RMM:   6    -0.413277798369E+03    0.42973E-05   -0.14630E-03  4989   0.516E-02    0.521E-02
RMM:   7    -0.413277752834E+03    0.45535E-04   -0.52399E-04  5310   0.265E-02    0.327E-02
RMM:   8    -0.413277722912E+03    0.29922E-04   -0.19443E-04  5277   0.173E-02    0.190E-02
RMM:   9    -0.413277720663E+03    0.22487E-05   -0.68374E-05  5243   0.102E-02    0.123E-02
RMM:  10    -0.413277718182E+03    0.24816E-05   -0.22700E-05  4896   0.611E-03    0.589E-03
RMM:  11    -0.413277720249E+03   -0.20672E-05   -0.96779E-06  3862   0.378E-03    0.416E-03
RMM:  12    -0.413277722588E+03   -0.23391E-05   -0.18486E-06  2613   0.249E-03    0.167E-03
RMM:  13    -0.413277725007E+03   -0.24191E-05   -0.10340E-06  2519   0.161E-03    0.921E-04
RMM:  14    -0.413277728081E+03   -0.30738E-05   -0.66915E-07  2336   0.128E-03    0.462E-04
RMM:  15    -0.413277730999E+03   -0.29176E-05   -0.59430E-07  2235   0.110E-03    0.333E-04
RMM:  16    -0.413277733797E+03   -0.27984E-05   -0.50624E-07  1980   0.971E-04    0.190E-04
RMM:  17    -0.413277736252E+03   -0.24552E-05   -0.48211E-07  1929   0.912E-04    0.149E-04
RMM:  18    -0.413277737852E+03   -0.15993E-05   -0.26218E-07  1447   0.718E-04    0.946E-05
RMM:  19    -0.413277739313E+03   -0.14616E-05   -0.19091E-07  1384   0.670E-04    0.662E-05
RMM:  20    -0.413277740055E+03   -0.74184E-06   -0.90139E-08  1047   0.572E-04
  150 T=   119. E= -.41269415E+03 F= -.41327774E+03 E0= -.41325598E+03  EK= 0.58359E+00 SP= 0.00E+00 SK= 0.00E+00
