       N       E                     dE             d eps       ncg     rms          rms(c)
RMM:   1     0.220167778786E+04    0.22017E+04   -0.52441E+04  2132   0.654E+02
RMM:   2     0.705934700026E+03   -0.14957E+04   -0.16263E+04  2132   0.177E+02
RMM:   3     0.137602885267E+03   -0.56833E+03   -0.65727E+03  2132   0.117E+02
RMM:   4    -0.159329349753E+03   -0.29693E+03   -0.27855E+03  2132   0.936E+01
RMM:   5    -0.287559377812E+03   -0.12823E+03   -0.11460E+03  2132   0.595E+01
RMM:   6    -0.349863147497E+03   -0.62304E+02   -0.55109E+02  2132   0.423E+01
RMM:   7    -0.382679199043E+03   -0.32816E+02   -0.30380E+02  2132   0.293E+01
RMM:   8    -0.404217743250E+03   -0.21539E+02   -0.18427E+02  2132   0.233E+01
RMM:   9    -0.436013270926E+03   -0.31796E+02   -0.30677E+02  6105   0.173E+01
RMM:  10    -0.441282940702E+03   -0.52697E+01   -0.62555E+01  6399   0.538E+00
RMM:  11    -0.442517259937E+03   -0.12343E+01   -0.11243E+01  6214   0.172E+00
RMM:  12    -0.442903814023E+03   -0.38655E+00   -0.27422E+00  6377   0.600E-01    0.134E+02
RMM:  13    -0.425627801109E+03    0.17276E+02   -0.81008E+01  4675   0.119E+01    0.712E+01
RMM:  14    -0.499308999029E+03   -0.73681E+02   -0.53964E+02  5418   0.232E+01    0.306E+01
RMM:  15    -0.416016302864E+03    0.83293E+02   -0.19889E+02  5092   0.163E+01    0.712E+00
RMM:  16    -0.414003691377E+03    0.20126E+01   -0.39768E+01  6078   0.610E+00    0.425E+00
RMM:  17    -0.413209730889E+03    0.79396E+00   -0.25739E+00  5403   0.188E+00    0.243E+00
RMM:  18    -0.413173611311E+03    0.36120E-01   -0.77745E-01  5973   0.902E-01    0.166E+00
RMM:  19    -0.413169218329E+03    0.43930E-02   -0.27411E-01  5690   0.564E-01    0.864E-01
RMM:  20    -0.413189409398E+03   -0.20191E-01   -0.27031E-01  5581   0.540E-01    0.625E-01
RMM:  21    -0.413168244662E+03    0.21165E-01   -0.35244E-02  4989   0.239E-01    0.287E-01
RMM:  22    -0.413165240256E+03    0.30044E-02   -0.22489E-02  5923   0.141E-01    0.131E-01
RMM:  23    -0.413164423807E+03    0.81645E-03   -0.49930E-03  6006   0.615E-02    0.813E-02
RMM:  24    -0.413163263644E+03    0.11602E-02   -0.16306E-03  5331   0.405E-02    0.525E-02
RMM:  25    -0.413162784631E+03    0.47901E-03   -0.87150E-04  5226   0.285E-02    0.370E-02
RMM:  26    -0.413162945476E+03   -0.16084E-03   -0.10463E-03  5869   0.325E-02    0.361E-02
RMM:  27    -0.413163361190E+03   -0.41571E-03   -0.19985E-04  4554   0.200E-02    0.207E-02
RMM:  28    -0.413163792427E+03   -0.43124E-03   -0.18098E-04  5278   0.181E-02    0.816E-03
RMM:  29    -0.413164180261E+03   -0.38783E-03   -0.10371E-04  4522   0.149E-02    0.464E-03
RMM:  30    -0.413164416397E+03   -0.23614E-03   -0.76472E-05  4291   0.104E-02    0.422E-03
RMM:  31    -0.413164571813E+03   -0.15542E-03   -0.62066E-05  3262   0.780E-03    0.328E-03
RMM:  32    -0.413164597695E+03   -0.25882E-04   -0.21826E-05  2998   0.307E-03    0.195E-03
RMM:  33    -0.413164612406E+03   -0.14711E-04   -0.89539E-06  2798   0.233E-03    0.603E-04
RMM:  34    -0.413164616106E+03   -0.36995E-05   -0.48345E-06  2623   0.157E-03    0.548E-04
RMM:  35    -0.413164617269E+03   -0.11630E-05   -0.25271E-06  2435   0.135E-03    0.909E-04
RMM:  36    -0.413164616170E+03    0.10984E-05   -0.13629E-06  1914   0.955E-04    0.338E-04
RMM:  37    -0.413164616647E+03   -0.47652E-06   -0.35046E-06  1317   0.717E-04
    1 T=    61. E= -.41286680E+03 F= -.41316462E+03 E0= -.41314212E+03  EK= 0.29781E+00 SP= 0.00E+00 SK= 0.00E+00
       N       E                     dE             d eps       ncg     rms          rms(c)
RMM:   1    -0.413156793222E+03    0.78229E-02   -0.10645E+01  3996   0.680E-01    0.886E-01
RMM:   2    -0.413166539452E+03   -0.97462E-02   -0.13071E-01  3973   0.976E-02    0.643E-01
RMM:   3    -0.413164800726E+03    0.17387E-02   -0.82920E-03  4961   0.436E-02    0.154E-01
RMM:   4    -0.413201087080E+03   -0.36286E-01   -0.38868E-02  5197   0.163E-01    0.791E-01
RMM:   5    -0.413164065010E+03    0.37022E-01   -0.17991E-02  4829   0.134E-01    0.449E-02
RMM:   6    -0.413164279051E+03   -0.21404E-03   -0.29529E-03  5798   0.526E-02    0.253E-02
RMM:   7    -0.413164299181E+03   -0.20130E-04   -0.39485E-04  5897   0.168E-02    0.175E-02
RMM:   8    -0.413164304133E+03   -0.49515E-05   -0.61599E-05  5146   0.760E-03    0.885E-03
RMM:   9    -0.413164307068E+03   -0.29348E-05   -0.13682E-05  3872   0.394E-03    0.587E-03
RMM:  10    -0.413164312452E+03   -0.53842E-05   -0.25156E-06  2626   0.210E-03    0.383E-03
RMM:  11    -0.413164319016E+03   -0.65645E-05   -0.16567E-06  2547   0.187E-03    0.183E-03
RMM:  12    -0.413164325406E+03   -0.63898E-05   -0.13324E-06  2523   0.167E-03    0.597E-04
RMM:  13    -0.413164326611E+03   -0.12052E-05   -0.50133E-07  2193   0.109E-03    0.448E-04
RMM:  14    -0.413164326903E+03   -0.29127E-06   -0.28227E-07  1684   0.795E-04
    2 T=    61. E= -.41286654E+03 F= -.41316433E+03 E0= -.41314183E+03  EK= 0.29779E+00 SP= 0.00E+00 SK= 0.00E+00
       N       E                     dE             d eps       ncg     rms          rms(c)
RMM:   1    -0.413157879504E+03    0.64471E-02   -0.10673E+01  4196   0.684E-01    0.909E-01
RMM:   2    -0.413166484010E+03   -0.86045E-02   -0.12841E-01  3972   0.948E-02    0.637E-01
RMM:   3    -0.413165026444E+03    0.14576E-02   -0.82655E-03  4804   0.382E-02    0.148E-01
RMM:   4    -0.413188347596E+03   -0.23321E-01   -0.23668E-02  5186   0.129E-01    0.638E-01
RMM:   5    -0.413164736967E+03    0.23611E-01   -0.11599E-02  4837   0.106E-01    0.395E-02
RMM:   6    -0.413164883927E+03   -0.14696E-03   -0.18926E-03  5794   0.423E-02    0.252E-02
RMM:   7    -0.413164886622E+03   -0.26954E-05   -0.28041E-04  5805   0.149E-02    0.157E-02
RMM:   8    -0.413164884424E+03    0.21976E-05   -0.41735E-05  4876   0.661E-03    0.722E-03
RMM:   9    -0.413164883525E+03    0.89985E-06   -0.86508E-06  3413   0.332E-03
    3 T=    61. E= -.41286684E+03 F= -.41316488E+03 E0= -.41314239E+03  EK= 0.29805E+00 SP= 0.00E+00 SK= 0.00E+00
       N       E                     dE             d eps       ncg     rms          rms(c)
RMM:   1    -0.413157367582E+03    0.75168E-02   -0.10587E+01  4223   0.685E-01    0.892E-01
RMM:   2    -0.413166325092E+03   -0.89575E-02   -0.12754E-01  4292   0.961E-02    0.631E-01
RMM:   3    -0.413171443667E+03   -0.51186E-02   -0.13442E-02  5192   0.833E-02    0.374E-01
RMM:   4    -0.413184481078E+03   -0.13037E-01   -0.35413E-02  5103   0.162E-01    0.588E-01
RMM:   5    -0.413164690806E+03    0.19790E-01   -0.74153E-03  4676   0.981E-02    0.558E-02
RMM:   6    -0.413164642767E+03    0.48039E-04   -0.13426E-03  5382   0.372E-02    0.241E-02
RMM:   7    -0.413164659044E+03   -0.16277E-04   -0.26321E-04  6003   0.155E-02    0.155E-02
RMM:   8    -0.413164658545E+03    0.49943E-06   -0.48632E-05  5257   0.765E-03    0.679E-03
RMM:   9    -0.413164657800E+03    0.74454E-06   -0.10062E-05  3753   0.393E-03    0.361E-03
RMM:  10    -0.413164658885E+03   -0.10845E-05   -0.12800E-06  2528   0.194E-03    0.223E-03
RMM:  11    -0.413164660942E+03   -0.20576E-05   -0.12657E-06  2536   0.177E-03    0.139E-03
RMM:  12    -0.413164661897E+03   -0.95485E-06   -0.56882E-07  2396   0.123E-03
    4 T=    61. E= -.41286662E+03 F= -.41316466E+03 E0= -.41314217E+03  EK= 0.29804E+00 SP= 0.00E+00 SK= 0.00E+00
       N       E                     dE             d eps       ncg     rms          rms(c)
RMM:   1    -0.413157288239E+03    0.73727E-02   -0.10634E+01  4235   0.696E-01    0.883E-01
RMM:   2    -0.413166868894E+03   -0.95807E-02   -0.13086E-01  3952   0.930E-02    0.642E-01
RMM:   3    -0.413165099156E+03    0.17697E-02   -0.80992E-03  4927   0.396E-02    0.145E-01
RMM:   4    -0.413195148196E+03   -0.30049E-01   -0.30968E-02  5162   0.146E-01    0.723E-01
RMM:   5    -0.413164590539E+03    0.30558E-01   -0.14819E-02  4812   0.121E-01    0.416E-02
RMM:   6    -0.413164782449E+03   -0.19191E-03   -0.24720E-03  5780   0.478E-02    0.244E-02
RMM:   7    -0.413164798322E+03   -0.15872E-04   -0.33125E-04  5879   0.156E-02    0.164E-02
RMM:   8    -0.413164802245E+03   -0.39239E-05   -0.51221E-05  4984   0.708E-03    0.809E-03
RMM:   9    -0.413164804728E+03   -0.24829E-05   -0.10936E-05  3634   0.368E-03    0.569E-03
RMM:  10    -0.413164809131E+03   -0.44029E-05   -0.18029E-06  2573   0.197E-03    0.374E-03
RMM:  11    -0.413164815235E+03   -0.61041E-05   -0.16817E-06  2577   0.193E-03    0.168E-03
RMM:  12    -0.413164820112E+03   -0.48771E-05   -0.11507E-06  2500   0.160E-03    0.677E-04
RMM:  13    -0.413164820584E+03   -0.47138E-06   -0.35392E-07  2096   0.999E-04
    5 T=    61. E= -.41286665E+03 F= -.41316482E+03 E0= -.41314234E+03  EK= 0.29817E+00 SP= 0.00E+00 SK= 0.00E+00
       N       E                     dE             d eps       ncg     rms          rms(c)
RMM:   1    -0.413158164531E+03    0.66556E-02   -0.10672E+01  4250   0.696E-01    0.905E-01
RMM:   2    -0.413166986051E+03   -0.88215E-02   -0.12858E-01  4073   0.954E-02    0.639E-01
RMM:   3    -0.413165520507E+03    0.14655E-02   -0.81794E-03  4770   0.392E-02    0.145E-01
RMM:   4    -0.413188065893E+03   -0.22545E-01   -0.22844E-02  5157   0.126E-01    0.628E-01
RMM:   5    -0.413165158568E+03    0.22907E-01   -0.11233E-02  4821   0.104E-01    0.383E-02
RMM:   6    -0.413165297833E+03   -0.13927E-03   -0.18570E-03  5811   0.412E-02    0.240E-02
RMM:   7    -0.413165301319E+03   -0.34863E-05   -0.26201E-04  5809   0.145E-02    0.155E-02
RMM:   8    -0.413165298345E+03    0.29740E-05   -0.44974E-05  4886   0.686E-03    0.760E-03
RMM:   9    -0.413165296984E+03    0.13609E-05   -0.90650E-06  3495   0.350E-03    0.572E-03
RMM:  10    -0.413165297485E+03   -0.50103E-06   -0.13843E-06  2543   0.190E-03
    6 T=    61. E= -.41286687E+03 F= -.41316530E+03 E0= -.41314283E+03  EK= 0.29843E+00 SP= 0.00E+00 SK= 0.00E+00
       N       E                     dE             d eps       ncg     rms          rms(c)
RMM:   1    -0.413157958650E+03    0.73383E-02   -0.10616E+01  4256   0.701E-01    0.900E-01
RMM:   2    -0.413166633533E+03   -0.86749E-02   -0.12772E-01  4183   0.959E-02    0.632E-01
RMM:   3    -0.413167019272E+03   -0.38574E-03   -0.95728E-03  5099   0.563E-02    0.233E-01
RMM:   4    -0.413203394854E+03   -0.36376E-01   -0.45692E-02  5132   0.179E-01    0.809E-01
RMM:   5    -0.413164899712E+03    0.38495E-01   -0.17342E-02  4776   0.135E-01    0.541E-02
RMM:   6    -0.413165034570E+03   -0.13486E-03   -0.28303E-03  5665   0.527E-02    0.247E-02
RMM:   7    -0.413165052727E+03   -0.18158E-04   -0.38648E-04  6021   0.163E-02    0.165E-02
RMM:   8    -0.413165051652E+03    0.10757E-05   -0.60202E-05  5245   0.782E-03    0.775E-03
RMM:   9    -0.413165048080E+03    0.35717E-05   -0.10929E-05  3504   0.364E-03    0.379E-03
RMM:  10    -0.413165048034E+03    0.45642E-07   -0.24838E-06  2599   0.215E-03
    7 T=    61. E= -.41286657E+03 F= -.41316505E+03 E0= -.41314260E+03  EK= 0.29848E+00 SP= 0.00E+00 SK= 0.00E+00
       N       E                     dE             d eps       ncg     rms          rms(c)
RMM:   1    -0.413158265709E+03    0.67824E-02   -0.10618E+01  4264   0.711E-01    0.882E-01
RMM:   2    -0.413167701652E+03   -0.94359E-02   -0.13030E-01  4159   0.951E-02    0.640E-01
RMM:   3    -0.413167202605E+03    0.49905E-03   -0.90941E-03  5081   0.538E-02    0.213E-01
RMM:   4    -0.413209502902E+03   -0.42300E-01   -0.50194E-02  5142   0.187E-01    0.863E-01
RMM:   5    -0.413165394863E+03    0.44108E-01   -0.20311E-02  4799   0.144E-01    0.524E-02
RMM:   6    -0.413165581389E+03   -0.18653E-03   -0.32437E-03  5713   0.560E-02    0.242E-02
RMM:   7    -0.413165607035E+03   -0.25646E-04   -0.43262E-04  6015   0.173E-02    0.174E-02
RMM:   8    -0.413165611369E+03   -0.43347E-05   -0.67283E-05  5246   0.801E-03    0.870E-03
RMM:   9    -0.413165612135E+03   -0.76521E-06   -0.12699E-05  3679   0.389E-03    0.444E-03
RMM:  10    -0.413165615616E+03   -0.34809E-05   -0.27891E-06  2623   0.219E-03    0.299E-03
RMM:  11    -0.413165619099E+03   -0.34839E-05   -0.11887E-06  2519   0.166E-03    0.151E-03
RMM:  12    -0.413165622323E+03   -0.32232E-05   -0.95420E-07  2480   0.141E-03    0.365E-04
RMM:  13    -0.413165623554E+03   -0.12313E-05   -0.43753E-07  2053   0.102E-03    0.290E-04
RMM:  14    -0.413165623924E+03   -0.36958E-06   -0.21978E-07  1540   0.787E-04
    8 T=    61. E= -.41286681E+03 F= -.41316562E+03 E0= -.41314319E+03  EK= 0.29881E+00 SP= 0.00E+00 SK= 0.00E+00
       N       E                     dE             d eps       ncg     rms          rms(c)
RMM:   1    -0.413158578906E+03    0.70446E-02   -0.10674E+01  4280   0.712E-01    0.899E-01
RMM:   2    -0.413167675685E+03   -0.90968E-02   -0.12953E-01  4165   0.986E-02    0.641E-01
RMM:   3    -0.413166170798E+03    0.15049E-02   -0.82850E-03  4894   0.412E-02    0.151E-01
RMM:   4    -0.413197150956E+03   -0.30980E-01   -0.32004E-02  5147   0.149E-01    0.734E-01
RMM:   5    -0.413165602151E+03    0.31549E-01   -0.15362E-02  4807   0.122E-01    0.428E-02
RMM:   6    -0.413165793312E+03   -0.19116E-03   -0.25365E-03  5766   0.483E-02    0.255E-02
RMM:   7    -0.413165802080E+03   -0.87680E-05   -0.34421E-04  5859   0.159E-02    0.169E-02
RMM:   8    -0.413165800492E+03    0.15877E-05   -0.51196E-05  4991   0.717E-03    0.822E-03
RMM:   9    -0.413165799011E+03    0.14812E-05   -0.11177E-05  3662   0.370E-03    0.579E-03
RMM:  10    -0.413165799681E+03   -0.67018E-06   -0.17102E-06  2557   0.197E-03
    9 T=    61. E= -.41286673E+03 F= -.41316580E+03 E0= -.41314339E+03  EK= 0.29907E+00 SP= 0.00E+00 SK= 0.00E+00
       N       E                     dE             d eps       ncg     rms          rms(c)
RMM:   1    -0.413158880012E+03    0.69190E-02   -0.10654E+01  4293   0.714E-01    0.907E-01
RMM:   2    -0.413167361743E+03   -0.84817E-02   -0.12796E-01  4248   0.962E-02    0.633E-01
RMM:   3    -0.413168377678E+03   -0.10159E-02   -0.10171E-02  5095   0.619E-02    0.255E-01
RMM:   4    -0.413200650183E+03   -0.32273E-01   -0.43762E-02  5114   0.175E-01    0.773E-01
RMM:   5    -0.413165733073E+03    0.34917E-01   -0.15359E-02  4751   0.128E-01    0.537E-02
RMM:   6    -0.413165853449E+03   -0.12038E-03   -0.25710E-03  5637   0.500E-02    0.249E-02
RMM:   7    -0.413165868262E+03   -0.14813E-04   -0.35797E-04  6002   0.160E-02    0.164E-02
RMM:   8    -0.413165865149E+03    0.31131E-05   -0.57985E-05  5235   0.779E-03    0.762E-03
RMM:   9    -0.413165860170E+03    0.49795E-05   -0.10003E-05  3407   0.359E-03    0.359E-03
RMM:  10    -0.413165858885E+03    0.12847E-05   -0.22977E-06  2587   0.213E-03    0.250E-03
RMM:  11    -0.413165857141E+03    0.17439E-05   -0.11390E-06  2516   0.165E-03    0.129E-03
RMM:  12    -0.413165855309E+03    0.18318E-05   -0.69580E-07  2431   0.129E-03    0.390E-04
RMM:  13    -0.413165854452E+03    0.85743E-06   -0.33340E-07  1926   0.929E-04
   10 T=    61. E= -.41286656E+03 F= -.41316585E+03 E0= -.41314347E+03  EK= 0.29929E+00 SP= 0.00E+00 SK= 0.00E+00
       N       E                     dE             d eps       ncg     rms          rms(c)
RMM:   1    -0.413159077398E+03    0.67779E-02   -0.10603E+01  4286   0.717E-01    0.883E-01
RMM:   2    -0.413168568427E+03   -0.94910E-02   -0.12945E-01  4207   0.971E-02    0.637E-01
RMM:   3    -0.413166996428E+03    0.15720E-02   -0.80385E-03  4876   0.419E-02    0.149E-01
RMM:   4    -0.413198014209E+03   -0.31018E-01   -0.32086E-02  5144   0.149E-01    0.734E-01
RMM:   5    -0.413166403096E+03    0.31611E-01   -0.15426E-02  4803   0.122E-01    0.422E-02
RMM:   6    -0.413166594204E+03   -0.19111E-03   -0.25482E-03  5789   0.480E-02    0.251E-02
RMM:   7    -0.413166603850E+03   -0.96459E-05   -0.33753E-04  5828   0.158E-02    0.168E-02
RMM:   8    -0.413166603030E+03    0.82001E-06   -0.53148E-05  4984   0.726E-03    0.839E-03
RMM:   9    -0.413166601872E+03    0.11588E-05   -0.11685E-05  3718   0.380E-03    0.593E-03
RMM:  10    -0.413166603117E+03   -0.12457E-05   -0.18091E-06  2564   0.200E-03    0.387E-03
RMM:  11    -0.413166605091E+03   -0.19736E-05   -0.18250E-06  2574   0.203E-03    0.168E-03
RMM:  12    -0.413166606321E+03   -0.12298E-05   -0.11125E-06  2501   0.161E-03    0.678E-04
RMM:  13    -0.413166606412E+03   -0.91150E-07   -0.33749E-07  2099   0.992E-04
   11 T=    61. E= -.41286690E+03 F= -.41316661E+03 E0= -.41314425E+03  EK= 0.29970E+00 SP= 0.00E+00 SK= 0.00E+00
       N       E                     dE             d eps       ncg     rms          rms(c)
RMM:   1    -0.413159198444E+03    0.74079E-02   -0.10680E+01  4292   0.725E-01    0.894E-01
RMM:   2    -0.413168529357E+03   -0.93309E-02   -0.13064E-01  4207   0.958E-02    0.644E-01
RMM:   3    -0.413166785939E+03    0.17434E-02   -0.81940E-03  4816   0.403E-02    0.144E-01
RMM:   4    -0.413193941255E+03   -0.27155E-01   -0.27873E-02  5145   0.139E-01    0.688E-01
RMM:   5    -0.413166341732E+03    0.27600E-01   -0.13515E-02  4806   0.114E-01    0.400E-02
RMM:   6    -0.413166517472E+03   -0.17574E-03   -0.22419E-03  5813   0.449E-02    0.243E-02
RMM:   7    -0.413166526541E+03   -0.90690E-05   -0.29497E-04  5828   0.152E-02    0.161E-02
RMM:   8    -0.413166525319E+03    0.12222E-05   -0.50982E-05  4947   0.718E-03    0.822E-03
RMM:   9    -0.413166524013E+03    0.13052E-05   -0.10661E-05  3655   0.373E-03    0.595E-03
RMM:  10    -0.413166525040E+03   -0.10262E-05   -0.16286E-06  2554   0.197E-03    0.390E-03
RMM:  11    -0.413166526694E+03   -0.16542E-05   -0.18990E-06  2582   0.208E-03    0.169E-03
RMM:  12    -0.413166527542E+03   -0.84806E-06   -0.10168E-06  2483   0.157E-03
   12 T=    61. E= -.41286665E+03 F= -.41316653E+03 E0= -.41314420E+03  EK= 0.29988E+00 SP= 0.00E+00 SK= 0.00E+00
       N       E                     dE             d eps       ncg     rms          rms(c)
RMM:   1    -0.413160282710E+03    0.62440E-02   -0.10684E+01  4293   0.728E-01    0.912E-01
RMM:   2    -0.413168541044E+03   -0.82583E-02   -0.12809E-01  4220   0.924E-02    0.636E-01
RMM:   3    -0.413167367541E+03    0.11735E-02   -0.83610E-03  4891   0.369E-02    0.151E-01
RMM:   4    -0.413192707178E+03   -0.25340E-01   -0.25974E-02  5143   0.134E-01    0.665E-01
RMM:   5    -0.413166963556E+03    0.25744E-01   -0.12664E-02  4801   0.110E-01    0.404E-02
RMM:   6    -0.413167118402E+03   -0.15485E-03   -0.20947E-03  5808   0.433E-02    0.247E-02
RMM:   7    -0.413167120631E+03   -0.22292E-05   -0.27264E-04  5823   0.149E-02    0.156E-02
RMM:   8    -0.413167114502E+03    0.61291E-05   -0.53570E-05  4966   0.731E-03    0.852E-03
RMM:   9    -0.413167109127E+03    0.53748E-05   -0.10694E-05  3773   0.379E-03    0.624E-03
RMM:  10    -0.413167106457E+03    0.26702E-05   -0.15474E-06  2553   0.198E-03    0.402E-03
RMM:  11    -0.413167102619E+03    0.38378E-05   -0.17946E-06  2566   0.206E-03    0.183E-03
RMM:  12    -0.413167099001E+03    0.36178E-05   -0.10369E-06  2479   0.160E-03    0.674E-04
RMM:  13    -0.413167098566E+03    0.43593E-06   -0.33914E-07  2090   0.989E-04
   13 T=    61. E= -.41286677E+03 F= -.41316710E+03 E0= -.41314480E+03  EK= 0.30032E+00 SP= 0.00E+00 SK= 0.00E+00
       N       E                     dE             d eps       ncg     rms          rms(c)
RMM:   1    -0.413160418912E+03    0.66801E-02   -0.10604E+01  4297   0.727E-01    0.887E-01
RMM:   2    -0.413169605535E+03   -0.91866E-02   -0.12925E-01  4219   0.938E-02    0.635E-01
RMM:   3    -0.413168041182E+03    0.15644E-02   -0.80193E-03  4848   0.381E-02    0.146E-01
RMM:   4    -0.413193661103E+03   -0.25620E-01   -0.26301E-02  5141   0.135E-01    0.668E-01
RMM:   5    -0.413167623798E+03    0.26037E-01   -0.12781E-02  4803   0.111E-01    0.394E-02
RMM:   6    -0.413167784100E+03   -0.16030E-03   -0.21032E-03  5807   0.435E-02    0.241E-02
RMM:   7    -0.413167789799E+03   -0.56988E-05   -0.27844E-04  5803   0.149E-02    0.156E-02
RMM:   8    -0.413167786267E+03    0.35312E-05   -0.51318E-05  4938   0.721E-03    0.815E-03
RMM:   9    -0.413167783210E+03    0.30569E-05   -0.10709E-05  3705   0.376E-03    0.597E-03
RMM:  10    -0.413167782818E+03    0.39279E-06   -0.15385E-06  2549   0.195E-03
   14 T=    61. E= -.41286692E+03 F= -.41316778E+03 E0= -.41314551E+03  EK= 0.30087E+00 SP= 0.00E+00 SK= 0.00E+00
       N       E                     dE             d eps       ncg     rms          rms(c)
RMM:   1    -0.413160508293E+03    0.72749E-02   -0.10692E+01  4303   0.740E-01    0.891E-01
RMM:   2    -0.413170113004E+03   -0.96047E-02   -0.13145E-01  4268   0.979E-02    0.646E-01
RMM:   3    -0.413169981854E+03    0.13115E-03   -0.97274E-03  5085   0.578E-02    0.235E-01
RMM:   4    -0.413209928532E+03   -0.39947E-01   -0.50422E-02  5121   0.187E-01    0.845E-01
RMM:   5    -0.413167624105E+03    0.42304E-01   -0.19105E-02  4773   0.140E-01    0.537E-02
RMM:   6    -0.413167783968E+03   -0.15986E-03   -0.30458E-03  5681   0.545E-02    0.239E-02
RMM:   7    -0.413167806183E+03   -0.22214E-04   -0.40995E-04  5995   0.168E-02    0.167E-02
RMM:   8    -0.413167808100E+03   -0.19167E-05   -0.63376E-05  5230   0.794E-03    0.808E-03
RMM:   9    -0.413167806355E+03    0.17448E-05   -0.12365E-05  3610   0.382E-03    0.385E-03
RMM:  10    -0.413167807644E+03   -0.12888E-05   -0.27437E-06  2619   0.218E-03    0.267E-03
RMM:  11    -0.413167808749E+03   -0.11058E-05   -0.11215E-06  2512   0.162E-03    0.134E-03
RMM:  12    -0.413167809407E+03   -0.65747E-06   -0.77803E-07  2434   0.131E-03
   15 T=    61. E= -.41286659E+03 F= -.41316781E+03 E0= -.41314557E+03  EK= 0.30122E+00 SP= 0.00E+00 SK= 0.00E+00
       N       E                     dE             d eps       ncg     rms          rms(c)
RMM:   1    -0.413162001490E+03    0.58073E-02   -0.10717E+01  4300   0.738E-01    0.914E-01
RMM:   2    -0.413170511787E+03   -0.85103E-02   -0.12890E-01  4253   0.985E-02    0.639E-01
RMM:   3    -0.413169241818E+03    0.12700E-02   -0.85890E-03  4918   0.429E-02    0.160E-01
RMM:   4    -0.413203066577E+03   -0.33825E-01   -0.35143E-02  5144   0.156E-01    0.766E-01
RMM:   5    -0.413168619731E+03    0.34447E-01   -0.16748E-02  4801   0.128E-01    0.448E-02
RMM:   6    -0.413168820127E+03   -0.20040E-03   -0.28113E-03  5801   0.504E-02    0.271E-02
RMM:   7    -0.413168821743E+03   -0.16154E-05   -0.36369E-04  5827   0.168E-02    0.179E-02
RMM:   8    -0.413168814324E+03    0.74187E-05   -0.60491E-05  5039   0.777E-03    0.936E-03
RMM:   9    -0.413168807665E+03    0.66590E-05   -0.12866E-05  3884   0.402E-03    0.651E-03
RMM:  10    -0.413168804033E+03    0.36321E-05   -0.19917E-06  2578   0.210E-03    0.419E-03
RMM:  11    -0.413168799584E+03    0.44486E-05   -0.17710E-06  2554   0.205E-03    0.190E-03
RMM:  12    -0.413168794939E+03    0.46453E-05   -0.12108E-06  2502   0.173E-03    0.691E-04
RMM:  13    -0.413168794300E+03    0.63939E-06   -0.38601E-07  2197   0.108E-03
   16 T=    61. E= -.41286687E+03 F= -.41316879E+03 E0= -.41314660E+03  EK= 0.30192E+00 SP= 0.00E+00 SK= 0.00E+00
       N       E                     dE             d eps       ncg     rms          rms(c)
RMM:   1    -0.413161985815E+03    0.68091E-02   -0.10633E+01  4299   0.739E-01    0.893E-01
RMM:   2    -0.413171159995E+03   -0.91742E-02   -0.12936E-01  4253   0.977E-02    0.635E-01
RMM:   3    -0.413169553446E+03    0.16065E-02   -0.81584E-03  4872   0.421E-02    0.154E-01
RMM:   4    -0.413200330601E+03   -0.30777E-01   -0.31735E-02  5138   0.148E-01    0.730E-01
RMM:   5    -0.413169059701E+03    0.31271E-01   -0.15336E-02  4803   0.122E-01    0.423E-02
RMM:   6    -0.413169247822E+03   -0.18812E-03   -0.25289E-03  5805   0.477E-02    0.257E-02
RMM:   7    -0.413169252409E+03   -0.45870E-05   -0.32672E-04  5813   0.161E-02    0.168E-02
RMM:   8    -0.413169247139E+03    0.52701E-05   -0.57313E-05  5014   0.754E-03    0.890E-03
RMM:   9    -0.413169242042E+03    0.50962E-05   -0.12258E-05  3847   0.396E-03    0.630E-03
RMM:  10    -0.413169239733E+03    0.23098E-05   -0.17993E-06  2559   0.204E-03    0.409E-03
RMM:  11    -0.413169236535E+03    0.31973E-05   -0.19467E-06  2575   0.212E-03    0.179E-03
RMM:  12    -0.413169233570E+03    0.29653E-05   -0.10646E-06  2490   0.165E-03    0.669E-04
RMM:  13    -0.413169233233E+03    0.33658E-06   -0.34267E-07  2132   0.101E-03
   17 T=    62. E= -.41286677E+03 F= -.41316923E+03 E0= -.41314707E+03  EK= 0.30246E+00 SP= 0.00E+00 SK= 0.00E+00
       N       E                     dE             d eps       ncg     rms          rms(c)
RMM:   1    -0.413162368494E+03    0.68651E-02   -0.10706E+01  4299   0.753E-01    0.889E-01
RMM:   2    -0.413172018488E+03   -0.96500E-02   -0.13195E-01  4265   0.100E-01    0.647E-01
RMM:   3    -0.413170146130E+03    0.18724E-02   -0.82771E-03  4867   0.424E-02    0.147E-01
RMM:   4    -0.413200894373E+03   -0.30748E-01   -0.31888E-02  5140   0.148E-01    0.731E-01
RMM:   5    -0.413169557492E+03    0.31337E-01   -0.15367E-02  4792   0.122E-01    0.418E-02
RMM:   6    -0.413169747102E+03   -0.18961E-03   -0.25286E-03  5804   0.475E-02    0.250E-02
RMM:   7    -0.413169756641E+03   -0.95386E-05   -0.32430E-04  5811   0.159E-02    0.165E-02
RMM:   8    -0.413169754493E+03    0.21476E-05   -0.57186E-05  5007   0.751E-03    0.873E-03
RMM:   9    -0.413169751592E+03    0.29018E-05   -0.12407E-05  3852   0.397E-03    0.609E-03
RMM:  10    -0.413169751764E+03   -0.17265E-06   -0.18489E-06  2560   0.204E-03
   18 T=    62. E= -.41286671E+03 F= -.41316975E+03 E0= -.41314763E+03  EK= 0.30304E+00 SP= 0.00E+00 SK= 0.00E+00
       N       E                     dE             d eps       ncg     rms          rms(c)
RMM:   1    -0.413164021067E+03    0.57305E-02   -0.10746E+01  4305   0.749E-01    0.912E-01
RMM:   2    -0.413172651383E+03   -0.86303E-02   -0.13025E-01  4307   0.958E-02    0.643E-01
RMM:   3    -0.413173798587E+03   -0.11472E-02   -0.10514E-02  5097   0.636E-02    0.264E-01
RMM:   4    -0.413206313799E+03   -0.32515E-01   -0.45377E-02  5104   0.178E-01    0.777E-01
RMM:   5    -0.413170822468E+03    0.35491E-01   -0.15544E-02  4742   0.129E-01    0.534E-02
RMM:   6    -0.413170943796E+03   -0.12133E-03   -0.25910E-03  5646   0.501E-02    0.252E-02
RMM:   7    -0.413170955137E+03   -0.11341E-04   -0.35645E-04  6001   0.161E-02    0.167E-02
RMM:   8    -0.413170950204E+03    0.49332E-05   -0.58637E-05  5210   0.787E-03    0.777E-03
RMM:   9    -0.413170943152E+03    0.70518E-05   -0.10710E-05  3474   0.370E-03    0.361E-03
RMM:  10    -0.413170940347E+03    0.28056E-05   -0.23464E-06  2580   0.214E-03    0.251E-03
RMM:  11    -0.413170936496E+03    0.38506E-05   -0.10915E-06  2512   0.164E-03    0.129E-03
RMM:  12    -0.413170932772E+03    0.37244E-05   -0.63415E-07  2402   0.128E-03    0.383E-04
RMM:  13    -0.413170931042E+03    0.17295E-05   -0.30632E-07  1905   0.916E-04    0.241E-04
RMM:  14    -0.413170929534E+03    0.15085E-05   -0.18354E-07  1448   0.758E-04    0.161E-04
RMM:  15    -0.413170926725E+03    0.28086E-05   -0.17801E-07  1392   0.741E-04    0.873E-05
RMM:  16    -0.413170924995E+03    0.17297E-05   -0.11894E-07  1351   0.682E-04    0.867E-05
RMM:  17    -0.413170922581E+03    0.24142E-05   -0.11235E-07  1353   0.656E-04    0.457E-05
RMM:  18    -0.413170920962E+03    0.16189E-05   -0.67376E-08  1056   0.584E-04    0.273E-05
RMM:  19    -0.413170920616E+03    0.34627E-06   -0.30704E-08   805   0.532E-04
   19 T=    62. E= -.41286705E+03 F= -.41317092E+03 E0= -.41314884E+03  EK= 0.30388E+00 SP= 0.00E+00 SK= 0.00E+00
       N       E                     dE             d eps       ncg     rms          rms(c)
RMM:   1    -0.413164243005E+03    0.66780E-02   -0.10685E+01  4300   0.750E-01    0.902E-01
RMM:   2    -0.413172999377E+03   -0.87564E-02   -0.12947E-01  4254   0.976E-02    0.636E-01
RMM:   3    -0.413171902402E+03    0.10970E-02   -0.84814E-03  4961   0.436E-02    0.169E-01
RMM:   4    -0.413210405698E+03   -0.38503E-01   -0.40904E-02  5142   0.168E-01    0.816E-01
RMM:   5    -0.413171087750E+03    0.39318E-01   -0.19079E-02  4789   0.136E-01    0.478E-02
RMM:   6    -0.413171310557E+03   -0.22281E-03   -0.32139E-03  5780   0.537E-02    0.278E-02
RMM:   7    -0.413171315351E+03   -0.47940E-05   -0.41540E-04  5839   0.175E-02    0.187E-02
RMM:   8    -0.413171307985E+03    0.73667E-05   -0.64935E-05  5108   0.800E-03    0.958E-03
RMM:   9    -0.413171300801E+03    0.71841E-05   -0.14420E-05  4012   0.417E-03    0.635E-03
RMM:  10    -0.413171297080E+03    0.37207E-05   -0.23090E-06  2594   0.215E-03    0.412E-03
RMM:  11    -0.413171293178E+03    0.39020E-05   -0.14952E-06  2525   0.191E-03    0.197E-03
RMM:  12    -0.413171288766E+03    0.44115E-05   -0.11743E-06  2505   0.173E-03    0.618E-04
RMM:  13    -0.413171287824E+03    0.94241E-06   -0.40393E-07  2246   0.112E-03
   20 T=    62. E= -.41286675E+03 F= -.41317129E+03 E0= -.41314925E+03  EK= 0.30454E+00 SP= 0.00E+00 SK= 0.00E+00
       N       E                     dE             d eps       ncg     rms          rms(c)
RMM:   1    -0.413165832122E+03    0.54566E-02   -0.10735E+01  4302   0.784E-01    0.889E-01
RMM:   2    -0.413174691470E+03   -0.88593E-02   -0.13452E-01  4269   0.100E-01    0.647E-01
RMM:   3    -0.413172786412E+03    0.19051E-02   -0.83288E-03  4919   0.423E-02    0.152E-01
RMM:   4    -0.413206409381E+03   -0.33623E-01   -0.35039E-02  5138   0.155E-01    0.763E-01
RMM:   5    -0.413172168328E+03    0.34241E-01   -0.16831E-02  4800   0.127E-01    0.433E-02
RMM:   6    -0.413172367958E+03   -0.19963E-03   -0.27610E-03  5807   0.499E-02    0.256E-02
RMM:   7    -0.413172377106E+03   -0.91480E-05   -0.35239E-04  5825   0.165E-02    0.170E-02
RMM:   8    -0.413172374205E+03    0.29007E-05   -0.62094E-05  5062   0.778E-03    0.925E-03
RMM:   9    -0.413172369878E+03    0.43267E-05   -0.13633E-05  3985   0.413E-03    0.636E-03
RMM:  10    -0.413172369004E+03    0.87403E-06   -0.20735E-06  2581   0.210E-03
   21 T=    62. E= -.41286689E+03 F= -.41317237E+03 E0= -.41315038E+03  EK= 0.30548E+00 SP= 0.00E+00 SK= 0.00E+00
       N       E                     dE             d eps       ncg     rms          rms(c)
RMM:   1    -0.413166501859E+03    0.58680E-02   -0.10789E+01  4302   0.762E-01    0.910E-01
RMM:   2    -0.413175462291E+03   -0.89604E-02   -0.13167E-01  4316   0.981E-02    0.647E-01
RMM:   3    -0.413176742058E+03   -0.12798E-02   -0.10903E-02  5102   0.662E-02    0.278E-01
RMM:   4    -0.413208107025E+03   -0.31365E-01   -0.45844E-02  5105   0.179E-01    0.769E-01
RMM:   5    -0.413173348752E+03    0.34758E-01   -0.14999E-02  4735   0.127E-01    0.534E-02
RMM:   6    -0.413173455474E+03   -0.10672E-03   -0.25250E-03  5645   0.492E-02    0.250E-02
RMM:   7    -0.413173464476E+03   -0.90017E-05   -0.34768E-04  6004   0.160E-02    0.166E-02
RMM:   8    -0.413173459150E+03    0.53259E-05   -0.59337E-05  5193   0.794E-03    0.776E-03
RMM:   9    -0.413173451752E+03    0.73975E-05   -0.10710E-05  3490   0.374E-03    0.352E-03
RMM:  10    -0.413173449106E+03    0.26466E-05   -0.22841E-06  2584   0.212E-03    0.242E-03
RMM:  11    -0.413173445194E+03    0.39115E-05   -0.11008E-06  2510   0.165E-03    0.127E-03
RMM:  12    -0.413173441543E+03    0.36511E-05   -0.60819E-07  2390   0.127E-03    0.381E-04
RMM:  13    -0.413173439725E+03    0.18181E-05   -0.29424E-07  1878   0.905E-04    0.229E-04
RMM:  14    -0.413173437945E+03    0.17797E-05   -0.18172E-07  1437   0.758E-04    0.145E-04
RMM:  15    -0.413173435200E+03    0.27458E-05   -0.15961E-07  1393   0.731E-04    0.857E-05
RMM:  16    -0.413173433393E+03    0.18063E-05   -0.11182E-07  1334   0.670E-04    0.823E-05
RMM:  17    -0.413173430692E+03    0.27014E-05   -0.10682E-07  1365   0.653E-04    0.432E-05
RMM:  18    -0.413173429248E+03    0.14443E-05   -0.58572E-08  1018   0.570E-04    0.271E-05
RMM:  19    -0.413173428780E+03    0.46773E-06   -0.28383E-08   804   0.532E-04
   22 T=    62. E= -.41286698E+03 F= -.41317343E+03 E0= -.41315149E+03  EK= 0.30645E+00 SP= 0.00E+00 SK= 0.00E+00
       N       E                     dE             d eps       ncg     rms          rms(c)
RMM:   1    -0.413167305231E+03    0.61240E-02   -0.10767E+01  4296   0.771E-01    0.912E-01
RMM:   2    -0.413175980929E+03   -0.86757E-02   -0.13065E-01  4269   0.104E-01    0.640E-01
RMM:   3    -0.413174617508E+03    0.13634E-02   -0.86614E-03  4887   0.458E-02    0.163E-01
RMM:   4    -0.413209912724E+03   -0.35295E-01   -0.36873E-02  5149   0.159E-01    0.781E-01
RMM:   5    -0.413173955830E+03    0.35957E-01   -0.17599E-02  4791   0.131E-01    0.460E-02
RMM:   6    -0.413174159901E+03   -0.20407E-03   -0.29842E-03  5797   0.515E-02    0.280E-02
RMM:   7    -0.413174162653E+03   -0.27520E-05   -0.37545E-04  5793   0.171E-02    0.182E-02
RMM:   8    -0.413174154387E+03    0.82652E-05   -0.66355E-05  5094   0.809E-03    0.988E-03
RMM:   9    -0.413174145880E+03    0.85078E-05   -0.14374E-05  4063   0.426E-03    0.675E-03
RMM:  10    -0.413174140929E+03    0.49510E-05   -0.21578E-06  2588   0.216E-03    0.436E-03
RMM:  11    -0.413174135325E+03    0.56037E-05   -0.17035E-06  2535   0.204E-03    0.207E-03
RMM:  12    -0.413174129262E+03    0.60628E-05   -0.12082E-06  2497   0.179E-03    0.678E-04
RMM:  13    -0.413174128134E+03    0.11277E-05   -0.41644E-07  2243   0.114E-03    0.496E-04
RMM:  14    -0.413174127782E+03    0.35237E-06   -0.19485E-07  1732   0.799E-04
   23 T=    63. E= -.41286672E+03 F= -.41317413E+03 E0= -.41315223E+03  EK= 0.30740E+00 SP= 0.00E+00 SK= 0.00E+00
       N       E                     dE             d eps       ncg     rms          rms(c)
RMM:   1    -0.413168380745E+03    0.57474E-02   -0.10766E+01  4296   0.780E-01    0.892E-01
RMM:   2    -0.413178077484E+03   -0.96967E-02   -0.13334E-01  4270   0.104E-01    0.647E-01
RMM:   3    -0.413175890752E+03    0.21867E-02   -0.83174E-03  4785   0.434E-02    0.146E-01
RMM:   4    -0.413202399368E+03   -0.26509E-01   -0.27118E-02  5146   0.137E-01    0.678E-01
RMM:   5    -0.413175526236E+03    0.26873E-01   -0.13292E-02  4804   0.113E-01    0.402E-02
RMM:   6    -0.413175673777E+03   -0.14754E-03   -0.21813E-03  5817   0.441E-02    0.248E-02
RMM:   7    -0.413175676841E+03   -0.30636E-05   -0.28197E-04  5790   0.152E-02    0.157E-02
RMM:   8    -0.413175672270E+03    0.45709E-05   -0.55134E-05  4985   0.748E-03    0.853E-03
RMM:   9    -0.413175667216E+03    0.50539E-05   -0.11428E-05  3818   0.391E-03    0.606E-03
RMM:  10    -0.413175665426E+03    0.17904E-05   -0.15976E-06  2545   0.198E-03    0.397E-03
RMM:  11    -0.413175662625E+03    0.28006E-05   -0.18504E-06  2559   0.212E-03    0.173E-03
RMM:  12    -0.413175660199E+03    0.24268E-05   -0.93822E-07  2465   0.158E-03    0.680E-04
RMM:  13    -0.413175659888E+03    0.31021E-06   -0.31489E-07  2071   0.971E-04
   24 T=    63. E= -.41286699E+03 F= -.41317566E+03 E0= -.41315381E+03  EK= 0.30867E+00 SP= 0.00E+00 SK= 0.00E+00
       N       E                     dE             d eps       ncg     rms          rms(c)
RMM:   1    -0.413169557497E+03    0.61027E-02   -0.10854E+01  4297   0.790E-01    0.907E-01
RMM:   2    -0.413178931462E+03   -0.93740E-02   -0.13349E-01  4274   0.106E-01    0.652E-01
RMM:   3    -0.413176858237E+03    0.20732E-02   -0.84682E-03  4731   0.429E-02    0.143E-01
RMM:   4    -0.413198483636E+03   -0.21625E-01   -0.22083E-02  5145   0.124E-01    0.615E-01
RMM:   5    -0.413176513745E+03    0.21970E-01   -0.10867E-02  4808   0.102E-01    0.382E-02
RMM:   6    -0.413176624326E+03   -0.11058E-03   -0.17849E-03  5824   0.395E-02    0.228E-02
RMM:   7    -0.413176625080E+03   -0.75346E-06   -0.19068E-04  5660   0.128E-02    0.109E-02
RMM:   8    -0.413176620112E+03    0.49679E-05   -0.32843E-05  4746   0.572E-03    0.719E-03
RMM:   9    -0.413176616450E+03    0.36616E-05   -0.65537E-06  3153   0.291E-03    0.535E-03
RMM:  10    -0.413176615143E+03    0.13074E-05   -0.14054E-06  2535   0.186E-03    0.383E-03
RMM:  11    -0.413176610320E+03    0.48229E-05   -0.19171E-06  2552   0.222E-03    0.175E-03
RMM:  12    -0.413176607212E+03    0.31080E-05   -0.91186E-07  2461   0.159E-03    0.990E-04
RMM:  13    -0.413176606667E+03    0.54569E-06   -0.26425E-07  2102   0.947E-04
   25 T=    63. E= -.41286687E+03 F= -.41317661E+03 E0= -.41315481E+03  EK= 0.30974E+00 SP= 0.00E+00 SK= 0.00E+00
       N       E                     dE             d eps       ncg     rms          rms(c)
RMM:   1    -0.413171866047E+03    0.47412E-02   -0.10874E+01  4295   0.800E-01    0.921E-01
RMM:   2    -0.413179653157E+03   -0.77871E-02   -0.13358E-01  4272   0.105E-01    0.645E-01
RMM:   3    -0.413178063281E+03    0.15899E-02   -0.86065E-03  4663   0.427E-02    0.150E-01
RMM:   4    -0.413195997130E+03   -0.17934E-01   -0.18240E-02  5156   0.113E-01    0.561E-01
RMM:   5    -0.413177860945E+03    0.18136E-01   -0.90570E-03  4819   0.925E-02    0.377E-02
RMM:   6    -0.413177935560E+03   -0.74614E-04   -0.14464E-03  5828   0.358E-02    0.224E-02
RMM:   7    -0.413177927810E+03    0.77495E-05   -0.15794E-04  5593   0.122E-02    0.101E-02
RMM:   8    -0.413177920145E+03    0.76650E-05   -0.26946E-05  4580   0.532E-03    0.679E-03
RMM:   9    -0.413177914300E+03    0.58460E-05   -0.46264E-06  2925   0.259E-03    0.489E-03
RMM:  10    -0.413177911724E+03    0.25757E-05   -0.10940E-06  2508   0.170E-03    0.352E-03
RMM:  11    -0.413177902002E+03    0.97218E-05   -0.16670E-06  2524   0.214E-03    0.172E-03
RMM:  12    -0.413177897230E+03    0.47724E-05   -0.75388E-07  2400   0.147E-03    0.979E-04
RMM:  13    -0.413177896333E+03    0.89638E-06   -0.23169E-07  1983   0.886E-04
   26 T=    63. E= -.41286684E+03 F= -.41317790E+03 E0= -.41315615E+03  EK= 0.31105E+00 SP= 0.00E+00 SK= 0.00E+00
       N       E                     dE             d eps       ncg     rms          rms(c)
RMM:   1    -0.413172443719E+03    0.54535E-02   -0.10829E+01  4293   0.792E-01    0.898E-01
RMM:   2    -0.413181762510E+03   -0.93188E-02   -0.13372E-01  4270   0.103E-01    0.647E-01
RMM:   3    -0.413179901700E+03    0.18608E-02   -0.83908E-03  4579   0.433E-02    0.140E-01
RMM:   4    -0.413193970438E+03   -0.14069E-01   -0.14415E-02  5147   0.100E-01    0.499E-01
RMM:   5    -0.413179710143E+03    0.14260E-01   -0.71717E-03  4822   0.818E-02    0.346E-02
RMM:   6    -0.413179760624E+03   -0.50482E-04   -0.11260E-03  5840   0.314E-02    0.206E-02
RMM:   7    -0.413179759592E+03    0.10323E-05   -0.14372E-04  5638   0.116E-02    0.104E-02
RMM:   8    -0.413179751571E+03    0.80212E-05   -0.29072E-05  4692   0.561E-03    0.651E-03
RMM:   9    -0.413179749949E+03    0.16220E-05   -0.70366E-06  3384   0.318E-03    0.528E-03
RMM:  10    -0.413179746682E+03    0.32670E-05   -0.98247E-07  2510   0.180E-03    0.323E-03
RMM:  11    -0.413179742496E+03    0.41863E-05   -0.10301E-06  2498   0.166E-03    0.158E-03
RMM:  12    -0.413179738163E+03    0.43325E-05   -0.68891E-07  2371   0.132E-03    0.554E-04
RMM:  13    -0.413179737115E+03    0.10482E-05   -0.23527E-07  1850   0.855E-04    0.359E-04
RMM:  14    -0.413179736348E+03    0.76673E-06   -0.11026E-07  1287   0.671E-04
   27 T=    64. E= -.41286704E+03 F= -.41317974E+03 E0= -.41315804E+03  EK= 0.31270E+00 SP= 0.00E+00 SK= 0.00E+00
       N       E                     dE             d eps       ncg     rms          rms(c)
RMM:   1    -0.413183440726E+03   -0.37036E-02   -0.11045E+01  4291   0.876E-01    0.905E-01
RMM:   2    -0.413183112443E+03    0.32828E-03   -0.15048E-01  4269   0.113E-01    0.660E-01
RMM:   3    -0.413181041354E+03    0.20711E-02   -0.82262E-03  4534   0.433E-02    0.156E-01
RMM:   4    -0.413193070000E+03   -0.12029E-01   -0.12621E-02  5150   0.951E-02    0.462E-01
RMM:   5    -0.413180868672E+03    0.12201E-01   -0.61268E-03  4819   0.757E-02    0.338E-02
RMM:   6    -0.413180906820E+03   -0.38148E-04   -0.97253E-04  5841   0.292E-02    0.207E-02
RMM:   7    -0.413180909891E+03   -0.30711E-05   -0.16350E-04  5585   0.123E-02    0.125E-02
RMM:   8    -0.413180898166E+03    0.11725E-04   -0.31184E-05  4703   0.612E-03    0.596E-03
RMM:   9    -0.413180896633E+03    0.15329E-05   -0.60161E-06  3152   0.310E-03    0.468E-03
RMM:  10    -0.413180894292E+03    0.23409E-05   -0.94958E-07  2495   0.177E-03    0.286E-03
RMM:  11    -0.413180891333E+03    0.29585E-05   -0.79649E-07  2481   0.147E-03    0.140E-03
RMM:  12    -0.413180888128E+03    0.32056E-05   -0.57610E-07  2316   0.120E-03    0.545E-04
RMM:  13    -0.413180887262E+03    0.86627E-06   -0.20857E-07  1744   0.815E-04
   28 T=    64. E= -.41286674E+03 F= -.41318089E+03 E0= -.41315924E+03  EK= 0.31415E+00 SP= 0.00E+00 SK= 0.00E+00
       N       E                     dE             d eps       ncg     rms          rms(c)
RMM:   1    -0.413176513959E+03    0.43742E-02   -0.10995E+01  4292   0.819E-01    0.929E-01
RMM:   2    -0.413184630846E+03   -0.81169E-02   -0.13502E-01  4270   0.107E-01    0.652E-01
RMM:   3    -0.413182959891E+03    0.16710E-02   -0.89687E-03  4488   0.449E-02    0.146E-01
RMM:   4    -0.413192562163E+03   -0.96023E-02   -0.99780E-03  5160   0.837E-02    0.412E-01
RMM:   5    -0.413182904533E+03    0.96576E-02   -0.49178E-03  4831   0.677E-02    0.345E-02
RMM:   6    -0.413182927624E+03   -0.23092E-04   -0.81258E-04  5838   0.267E-02    0.210E-02
RMM:   7    -0.413182923721E+03    0.39034E-05   -0.17125E-04  5488   0.129E-02    0.136E-02
RMM:   8    -0.413182908143E+03    0.15578E-04   -0.24087E-05  4490   0.578E-03    0.580E-03
RMM:   9    -0.413182904290E+03    0.38531E-05   -0.46885E-06  2979   0.275E-03    0.448E-03
RMM:  10    -0.413182898730E+03    0.55603E-05   -0.11098E-06  2492   0.184E-03    0.258E-03
RMM:  11    -0.413182892140E+03    0.65902E-05   -0.76094E-07  2463   0.149E-03    0.127E-03
RMM:  12    -0.413182885773E+03    0.63666E-05   -0.46908E-07  2285   0.116E-03    0.547E-04
RMM:  13    -0.413182883627E+03    0.21461E-05   -0.19892E-07  1720   0.806E-04    0.263E-04
RMM:  14    -0.413182881189E+03    0.24384E-05   -0.11364E-07  1286   0.681E-04    0.169E-04
RMM:  15    -0.413182875350E+03    0.58385E-05   -0.12225E-07  1473   0.711E-04    0.140E-04
RMM:  16    -0.413182874759E+03    0.59081E-06   -0.45623E-08   907   0.582E-04
   29 T=    64. E= -.41286693E+03 F= -.41318287E+03 E0= -.41316128E+03  EK= 0.31594E+00 SP= 0.00E+00 SK= 0.00E+00
       N       E                     dE             d eps       ncg     rms          rms(c)
RMM:   1    -0.413178205483E+03    0.46699E-02   -0.10948E+01  4289   0.827E-01    0.908E-01
RMM:   2    -0.413186966183E+03   -0.87607E-02   -0.13603E-01  4263   0.111E-01    0.650E-01
RMM:   3    -0.413184858078E+03    0.21081E-02   -0.86873E-03  4475   0.462E-02    0.141E-01
RMM:   4    -0.413193833327E+03   -0.89752E-02   -0.94357E-03  5162   0.822E-02    0.399E-01
RMM:   5    -0.413184775486E+03    0.90578E-02   -0.45945E-03  4828   0.656E-02    0.336E-02
RMM:   6    -0.413184796825E+03   -0.21339E-04   -0.75974E-04  5822   0.261E-02    0.219E-02
RMM:   7    -0.413184793501E+03    0.33239E-05   -0.17968E-04  5449   0.131E-02    0.134E-02
RMM:   8    -0.413184779852E+03    0.13649E-04   -0.21647E-05  4383   0.563E-03    0.558E-03
RMM:   9    -0.413184777336E+03    0.25165E-05   -0.40322E-06  2891   0.260E-03    0.416E-03
RMM:  10    -0.413184773553E+03    0.37830E-05   -0.10865E-06  2487   0.177E-03    0.239E-03
RMM:  11    -0.413184768996E+03    0.45567E-05   -0.74449E-07  2460   0.145E-03    0.116E-03
RMM:  12    -0.413184765090E+03    0.39054E-05   -0.43054E-07  2226   0.110E-03    0.502E-04
RMM:  13    -0.413184763634E+03    0.14568E-05   -0.18517E-07  1639   0.777E-04    0.231E-04
RMM:  14    -0.413184761667E+03    0.19671E-05   -0.10866E-07  1202   0.674E-04    0.138E-04
RMM:  15    -0.413184758269E+03    0.33980E-05   -0.98236E-08  1259   0.675E-04    0.866E-05
RMM:  16    -0.413184757415E+03    0.85392E-06   -0.48207E-08   947   0.595E-04
   30 T=    65. E= -.41286690E+03 F= -.41318476E+03 E0= -.41316321E+03  EK= 0.31786E+00 SP= 0.00E+00 SK= 0.00E+00
       N       E                     dE             d eps       ncg     rms          rms(c)
RMM:   1    -0.413191074260E+03   -0.63160E-02   -0.11186E+01  4292   0.930E-01    0.909E-01
RMM:   2    -0.413189386490E+03    0.16878E-02   -0.14657E-01  4273   0.124E-01    0.665E-01
RMM:   3    -0.413186438233E+03    0.29483E-02   -0.87708E-03  4388   0.484E-02    0.141E-01
RMM:   4    -0.413191891827E+03   -0.54536E-02   -0.60883E-03  5153   0.663E-02    0.311E-01
RMM:   5    -0.413186446258E+03    0.54456E-02   -0.27289E-03  4820   0.509E-02    0.315E-02
RMM:   6    -0.413186457857E+03   -0.11599E-04   -0.49470E-04  5794   0.214E-02    0.213E-02
RMM:   7    -0.413186453641E+03    0.42159E-05   -0.15866E-04  5286   0.123E-02    0.120E-02
RMM:   8    -0.413186444264E+03    0.93766E-05   -0.13772E-05  4008   0.483E-03    0.521E-03
RMM:   9    -0.413186442944E+03    0.13200E-05   -0.22614E-06  2669   0.215E-03    0.349E-03
RMM:  10    -0.413186440366E+03    0.25783E-05   -0.10645E-06  2480   0.165E-03    0.184E-03
RMM:  11    -0.413186437741E+03    0.26249E-05   -0.63458E-07  2397   0.130E-03    0.830E-04
RMM:  12    -0.413186435648E+03    0.20936E-05   -0.32605E-07  2032   0.954E-04    0.371E-04
RMM:  13    -0.413186434515E+03    0.11322E-05   -0.15502E-07  1344   0.718E-04    0.197E-04
RMM:  14    -0.413186432879E+03    0.16362E-05   -0.10608E-07  1123   0.668E-04    0.119E-04
RMM:  15    -0.413186430626E+03    0.22532E-05   -0.95320E-08  1195   0.665E-04    0.696E-05
RMM:  16    -0.413186429800E+03    0.82597E-06   -0.48764E-08   934   0.597E-04
   31 T=    65. E= -.41286662E+03 F= -.41318643E+03 E0= -.41316493E+03  EK= 0.31981E+00 SP= 0.00E+00 SK= 0.00E+00
       N       E                     dE             d eps       ncg     rms          rms(c)
RMM:   1    -0.413182411509E+03    0.40191E-02   -0.11140E+01  4293   0.844E-01    0.935E-01
RMM:   2    -0.413191198154E+03   -0.87866E-02   -0.13923E-01  4283   0.124E-01    0.660E-01
RMM:   3    -0.413189123596E+03    0.20746E-02   -0.92044E-03  4350   0.523E-02    0.144E-01
RMM:   4    -0.413192231928E+03   -0.31083E-02   -0.38426E-03  5133   0.541E-02    0.235E-01
RMM:   5    -0.413189146596E+03    0.30853E-02   -0.15467E-03  4821   0.389E-02    0.331E-02
RMM:   6    -0.413189148053E+03   -0.14568E-05   -0.35922E-04  5667   0.189E-02    0.239E-02
RMM:   7    -0.413189126715E+03    0.21339E-04   -0.15524E-04  5103   0.123E-02    0.115E-02
RMM:   8    -0.413189119841E+03    0.68736E-05   -0.11677E-05  3791   0.441E-03    0.511E-03
RMM:   9    -0.413189117479E+03    0.23624E-05   -0.16381E-06  2530   0.193E-03    0.310E-03
RMM:  10    -0.413189110047E+03    0.74313E-05   -0.91289E-07  2480   0.156E-03    0.148E-03
RMM:  11    -0.413189105570E+03    0.44772E-05   -0.43201E-07  2243   0.108E-03    0.732E-04
RMM:  12    -0.413189100689E+03    0.48812E-05   -0.25804E-07  1884   0.885E-04    0.275E-04
RMM:  13    -0.413189097844E+03    0.28452E-05   -0.12735E-07  1267   0.694E-04    0.167E-04
RMM:  14    -0.413189094086E+03    0.37579E-05   -0.88993E-08  1155   0.653E-04    0.120E-04
RMM:  15    -0.413189089612E+03    0.44737E-05   -0.82604E-08  1233   0.651E-04    0.763E-05
RMM:  16    -0.413189087783E+03    0.18290E-05   -0.46621E-08   974   0.579E-04    0.629E-05
RMM:  17    -0.413189084448E+03    0.33347E-05   -0.55484E-08  1165   0.596E-04    0.295E-05
RMM:  18    -0.413189083384E+03    0.10646E-05   -0.23096E-08   767   0.519E-04    0.186E-05
RMM:  19    -0.413189083125E+03    0.25886E-06   -0.12081E-08   631   0.498E-04
   32 T=    66. E= -.41286695E+03 F= -.41318908E+03 E0= -.41316763E+03  EK= 0.32213E+00 SP= 0.00E+00 SK= 0.00E+00
       N       E                     dE             d eps       ncg     rms          rms(c)
RMM:   1    -0.413184093634E+03    0.49897E-02   -0.11108E+01  4290   0.858E-01    0.922E-01
RMM:   2    -0.413193321521E+03   -0.92279E-02   -0.14057E-01  4277   0.128E-01    0.656E-01
RMM:   3    -0.413190959737E+03    0.23618E-02   -0.88690E-03  4212   0.451E-02    0.145E-01
RMM:   4    -0.413191240836E+03   -0.28110E-03   -0.12384E-03  4932   0.277E-02    0.653E-02
RMM:   5    -0.413191059345E+03    0.18149E-03   -0.15072E-04  4715   0.126E-02    0.341E-02
RMM:   6    -0.413191045432E+03    0.13913E-04   -0.15816E-04  5268   0.129E-02    0.235E-02
RMM:   7    -0.413191020942E+03    0.24490E-04   -0.12893E-04  4717   0.107E-02    0.121E-02
RMM:   8    -0.413191017667E+03    0.32751E-05   -0.88329E-06  3345   0.381E-03    0.458E-03
RMM:   9    -0.413191016347E+03    0.13200E-05   -0.19940E-06  2333   0.181E-03    0.192E-03
RMM:  10    -0.413191007982E+03    0.83651E-05   -0.76103E-07  2220   0.132E-03    0.621E-04
RMM:  11    -0.413191004361E+03    0.36209E-05   -0.23645E-07  1674   0.822E-04    0.264E-04
RMM:  12    -0.413191000832E+03    0.35288E-05   -0.13223E-07  1353   0.707E-04    0.176E-04
RMM:  13    -0.413190997193E+03    0.36389E-05   -0.72274E-08   969   0.630E-04    0.923E-05
RMM:  14    -0.413190992773E+03    0.44205E-05   -0.65236E-08  1042   0.625E-04    0.935E-05
RMM:  15    -0.413190988580E+03    0.41923E-05   -0.53487E-08   997   0.590E-04    0.652E-05
RMM:  16    -0.413190987029E+03    0.15514E-05   -0.23671E-08   659   0.514E-04    0.352E-05
RMM:  17    -0.413190986002E+03    0.10271E-05   -0.13235E-08   555   0.497E-04    0.202E-05
RMM:  18    -0.413190985342E+03    0.65951E-06   -0.83665E-09   483   0.491E-04
   33 T=    66. E= -.41286668E+03 F= -.41319099E+03 E0= -.41316958E+03  EK= 0.32431E+00 SP= 0.00E+00 SK= 0.00E+00
       N       E                     dE             d eps       ncg     rms          rms(c)
RMM:   1    -0.413205260211E+03   -0.14274E-01   -0.11401E+01  4296   0.994E-01    0.912E-01
RMM:   2    -0.413195908393E+03    0.93518E-02   -0.16713E-01  4277   0.138E-01    0.672E-01
RMM:   3    -0.413193498688E+03    0.24097E-02   -0.82861E-03  4328   0.508E-02    0.171E-01
RMM:   4    -0.413196721862E+03   -0.32232E-02   -0.43275E-03  5112   0.582E-02    0.240E-01
RMM:   5    -0.413193522347E+03    0.31995E-02   -0.15586E-03  4791   0.397E-02    0.322E-02
RMM:   6    -0.413193515041E+03    0.73057E-05   -0.33136E-04  5695   0.188E-02    0.228E-02
RMM:   7    -0.413193506242E+03    0.87990E-05   -0.15391E-04  5102   0.119E-02    0.115E-02
RMM:   8    -0.413193499116E+03    0.71264E-05   -0.11729E-05  3860   0.451E-03    0.504E-03
RMM:   9    -0.413193498078E+03    0.10382E-05   -0.17745E-06  2547   0.196E-03    0.284E-03
RMM:  10    -0.413193494988E+03    0.30894E-05   -0.92233E-07  2462   0.153E-03    0.141E-03
RMM:  11    -0.413193492456E+03    0.25329E-05   -0.46738E-07  2208   0.109E-03    0.715E-04
RMM:  12    -0.413193490082E+03    0.23732E-05   -0.26907E-07  1785   0.860E-04    0.291E-04
RMM:  13    -0.413193488420E+03    0.16623E-05   -0.14040E-07  1235   0.693E-04    0.174E-04
RMM:  14    -0.413193486578E+03    0.18419E-05   -0.10060E-07  1086   0.645E-04    0.135E-04
RMM:  15    -0.413193483850E+03    0.27281E-05   -0.95734E-08  1141   0.645E-04    0.625E-05
RMM:  16    -0.413193483062E+03    0.78765E-06   -0.44888E-08   844   0.573E-04
   34 T=    67. E= -.41286669E+03 F= -.41319348E+03 E0= -.41317213E+03  EK= 0.32679E+00 SP= 0.00E+00 SK= 0.00E+00
       N       E                     dE             d eps       ncg     rms          rms(c)
RMM:   1    -0.413189674531E+03    0.38093E-02   -0.11314E+01  4303   0.900E-01    0.939E-01
RMM:   2    -0.413198550622E+03   -0.88761E-02   -0.14525E-01  4259   0.131E-01    0.670E-01
RMM:   3    -0.413196281750E+03    0.22689E-02   -0.91654E-03  4351   0.510E-02    0.147E-01
RMM:   4    -0.413198570566E+03   -0.22888E-02   -0.31416E-03  5144   0.471E-02    0.204E-01
RMM:   5    -0.413196290465E+03    0.22801E-02   -0.11534E-03  4807   0.341E-02    0.337E-02
RMM:   6    -0.413196281499E+03    0.89667E-05   -0.30194E-04  5610   0.176E-02    0.247E-02
RMM:   7    -0.413196263854E+03    0.17645E-04   -0.16223E-04  5018   0.118E-02    0.128E-02
RMM:   8    -0.413196257656E+03    0.61978E-05   -0.12364E-05  3744   0.434E-03    0.523E-03
RMM:   9    -0.413196255752E+03    0.19046E-05   -0.19364E-06  2514   0.192E-03    0.275E-03
RMM:  10    -0.413196248850E+03    0.69016E-05   -0.86713E-07  2458   0.152E-03    0.135E-03
RMM:  11    -0.413196244928E+03    0.39215E-05   -0.37152E-07  2132   0.101E-03    0.789E-04
RMM:  12    -0.413196239856E+03    0.50729E-05   -0.25276E-07  1799   0.862E-04    0.248E-04
RMM:  13    -0.413196236825E+03    0.30300E-05   -0.11968E-07  1220   0.679E-04    0.157E-04
RMM:  14    -0.413196232528E+03    0.42977E-05   -0.92895E-08  1117   0.646E-04    0.125E-04
RMM:  15    -0.413196227718E+03    0.48095E-05   -0.82190E-08  1179   0.641E-04    0.670E-05
RMM:  16    -0.413196225763E+03    0.19554E-05   -0.47495E-08   972   0.575E-04    0.516E-05
RMM:  17    -0.413196223118E+03    0.26451E-05   -0.38439E-08   910   0.562E-04    0.271E-05
RMM:  18    -0.413196222285E+03    0.83306E-06   -0.20349E-08   710   0.522E-04
   35 T=    67. E= -.41286691E+03 F= -.41319622E+03 E0= -.41317491E+03  EK= 0.32931E+00 SP= 0.00E+00 SK= 0.00E+00
       N       E                     dE             d eps       ncg     rms          rms(c)
RMM:   1    -0.413194763258E+03    0.14599E-02   -0.11340E+01  4298   0.956E-01    0.939E-01
RMM:   2    -0.413200345565E+03   -0.55823E-02   -0.14776E-01  4252   0.131E-01    0.664E-01
RMM:   3    -0.413198485469E+03    0.18601E-02   -0.92984E-03  4685   0.526E-02    0.167E-01
RMM:   4    -0.413223161087E+03   -0.24676E-01   -0.24886E-02  5165   0.133E-01    0.657E-01
RMM:   5    -0.413198265391E+03    0.24896E-01   -0.12579E-02  4799   0.109E-01    0.429E-02
RMM:   6    -0.413198289430E+03   -0.24038E-04   -0.20763E-03  5851   0.429E-02    0.268E-02
RMM:   7    -0.413198296112E+03   -0.66826E-05   -0.27889E-04  5708   0.154E-02    0.154E-02
RMM:   8    -0.413198283907E+03    0.12205E-04   -0.54391E-05  4976   0.765E-03    0.878E-03
RMM:   9    -0.413198279807E+03    0.41002E-05   -0.13621E-05  4134   0.434E-03    0.615E-03
RMM:  10    -0.413198273355E+03    0.64524E-05   -0.18297E-06  2570   0.221E-03    0.368E-03
RMM:  11    -0.413198268414E+03    0.49405E-05   -0.10780E-06  2495   0.168E-03    0.216E-03
RMM:  12    -0.413198258416E+03    0.99985E-05   -0.12372E-06  2497   0.183E-03    0.956E-04
RMM:  13    -0.413198254729E+03    0.36861E-05   -0.43642E-07  2269   0.118E-03    0.579E-04
RMM:  14    -0.413198254258E+03    0.47159E-06   -0.18956E-07  1710   0.791E-04
   36 T=    68. E= -.41286662E+03 F= -.41319825E+03 E0= -.41317699E+03  EK= 0.33163E+00 SP= 0.00E+00 SK= 0.00E+00
       N       E                     dE             d eps       ncg     rms          rms(c)
RMM:   1    -0.413202899040E+03   -0.46443E-02   -0.11453E+01  4305   0.103E+00    0.922E-01
RMM:   2    -0.413204203133E+03   -0.13041E-02   -0.15740E-01  4253   0.139E-01    0.675E-01
RMM:   3    -0.413201553180E+03    0.26500E-02   -0.90015E-03  4626   0.552E-02    0.164E-01
RMM:   4    -0.413223286799E+03   -0.21734E-01   -0.22011E-02  5161   0.125E-01    0.617E-01
RMM:   5    -0.413201359925E+03    0.21927E-01   -0.11078E-02  4805   0.103E-01    0.414E-02
RMM:   6    -0.413201373283E+03   -0.13358E-04   -0.18105E-03  5840   0.404E-02    0.263E-02
RMM:   7    -0.413201382047E+03   -0.87642E-05   -0.27649E-04  5684   0.152E-02    0.155E-02
RMM:   8    -0.413201369842E+03    0.12205E-04   -0.53370E-05  5004   0.775E-03    0.799E-03
RMM:   9    -0.413201367149E+03    0.26929E-05   -0.11034E-05  3836   0.402E-03    0.512E-03
RMM:  10    -0.413201363028E+03    0.41208E-05   -0.15974E-06  2556   0.203E-03    0.316E-03
RMM:  11    -0.413201358838E+03    0.41900E-05   -0.10162E-06  2496   0.162E-03    0.162E-03
RMM:  12    -0.413201352830E+03    0.60084E-05   -0.89384E-07  2438   0.151E-03    0.688E-04
RMM:  13    -0.413201350725E+03    0.21043E-05   -0.33985E-07  2102   0.101E-03    0.436E-04
RMM:  14    -0.413201350039E+03    0.68573E-06   -0.16045E-07  1441   0.732E-04
   37 T=    68. E= -.41286697E+03 F= -.41320135E+03 E0= -.41318013E+03  EK= 0.33438E+00 SP= 0.00E+00 SK= 0.00E+00
       N       E                     dE             d eps       ncg     rms          rms(c)
RMM:   1    -0.413202256243E+03   -0.90552E-03   -0.11541E+01  4307   0.103E+00    0.943E-01
RMM:   2    -0.413206754854E+03   -0.44986E-02   -0.15368E-01  4256   0.129E-01    0.679E-01
RMM:   3    -0.413204064248E+03    0.26906E-02   -0.95439E-03  4783   0.538E-02    0.173E-01
RMM:   4    -0.413239301550E+03   -0.35237E-01   -0.35986E-02  5152   0.158E-01    0.781E-01
RMM:   5    -0.413203617063E+03    0.35684E-01   -0.18116E-02  4804   0.131E-01    0.469E-02
RMM:   6    -0.413203674966E+03   -0.57903E-04   -0.28046E-03  5836   0.503E-02    0.283E-02
RMM:   7    -0.413203686671E+03   -0.11705E-04   -0.34934E-04  5786   0.167E-02    0.160E-02
RMM:   8    -0.413203677545E+03    0.91262E-05   -0.64430E-05  5060   0.808E-03    0.985E-03
RMM:   9    -0.413203673750E+03    0.37946E-05   -0.19709E-05  4495   0.492E-03    0.633E-03
RMM:  10    -0.413203667832E+03    0.59185E-05   -0.26895E-06  2649   0.246E-03    0.382E-03
RMM:  11    -0.413203663670E+03    0.41615E-05   -0.13029E-06  2495   0.185E-03    0.224E-03
RMM:  12    -0.413203655161E+03    0.85088E-05   -0.13317E-06  2496   0.192E-03    0.942E-04
RMM:  13    -0.413203651621E+03    0.35408E-05   -0.49968E-07  2331   0.126E-03    0.665E-04
RMM:  14    -0.413203651406E+03    0.21499E-06   -0.21316E-07  1830   0.831E-04
   38 T=    69. E= -.41286676E+03 F= -.41320365E+03 E0= -.41318247E+03  EK= 0.33689E+00 SP= 0.00E+00 SK= 0.00E+00
       N       E                     dE             d eps       ncg     rms          rms(c)
RMM:   1    -0.413216512484E+03   -0.12861E-01   -0.11686E+01  4306   0.111E+00    0.956E-01
RMM:   2    -0.413208822578E+03    0.76899E-02   -0.15828E-01  4257   0.125E-01    0.674E-01
RMM:   3    -0.413207024019E+03    0.17986E-02   -0.98976E-03  4983   0.538E-02    0.204E-01
RMM:   4    -0.413255646492E+03   -0.48622E-01   -0.52004E-02  5142   0.190E-01    0.914E-01
RMM:   5    -0.413206102389E+03    0.49544E-01   -0.24638E-02  4790   0.154E-01    0.544E-02
RMM:   6    -0.413206224949E+03   -0.12256E-03   -0.39474E-03  5829   0.593E-02    0.314E-02
RMM:   7    -0.413206236682E+03   -0.11732E-04   -0.43991E-04  5751   0.186E-02    0.175E-02
RMM:   8    -0.413206231390E+03    0.52919E-05   -0.70772E-05  5087   0.799E-03    0.104E-02
RMM:   9    -0.413206222263E+03    0.91265E-05   -0.23932E-05  4579   0.510E-03    0.702E-03
RMM:  10    -0.413206215827E+03    0.64364E-05   -0.45857E-06  2861   0.296E-03    0.409E-03
RMM:  11    -0.413206209737E+03    0.60904E-05   -0.17946E-06  2528   0.216E-03    0.243E-03
RMM:  12    -0.413206198264E+03    0.11472E-04   -0.13650E-06  2494   0.201E-03    0.780E-04
RMM:  13    -0.413206193565E+03    0.46989E-05   -0.53893E-07  2374   0.132E-03    0.649E-04
RMM:  14    -0.413206192881E+03    0.68448E-06   -0.23544E-07  1972   0.880E-04
   39 T=    69. E= -.41286672E+03 F= -.41320619E+03 E0= -.41318505E+03  EK= 0.33947E+00 SP= 0.00E+00 SK= 0.00E+00
       N       E                     dE             d eps       ncg     rms          rms(c)
RMM:   1    -0.413211582300E+03   -0.53887E-02   -0.11617E+01  4311   0.113E+00    0.934E-01
RMM:   2    -0.413212381914E+03   -0.79961E-03   -0.15894E-01  4262   0.130E-01    0.679E-01
RMM:   3    -0.413210336788E+03    0.20451E-02   -0.98829E-03  5021   0.569E-02    0.213E-01
RMM:   4    -0.413262823854E+03   -0.52487E-01   -0.57818E-02  5130   0.200E-01    0.950E-01
RMM:   5    -0.413209040330E+03    0.53784E-01   -0.26424E-02  4784   0.160E-01    0.560E-02
RMM:   6    -0.413209179490E+03   -0.13916E-03   -0.42346E-03  5813   0.614E-02    0.311E-02
RMM:   7    -0.413209196344E+03   -0.16854E-04   -0.48102E-04  5828   0.192E-02    0.186E-02
RMM:   8    -0.413209196566E+03   -0.22224E-06   -0.96782E-05  5230   0.928E-03    0.124E-02
RMM:   9    -0.413209184738E+03    0.11828E-04   -0.27013E-05  4661   0.570E-03    0.652E-03
RMM:  10    -0.413209179941E+03    0.47967E-05   -0.45778E-06  2800   0.291E-03    0.394E-03
RMM:  11    -0.413209175783E+03    0.41583E-05   -0.16544E-06  2506   0.210E-03    0.229E-03
RMM:  12    -0.413209168502E+03    0.72808E-05   -0.11922E-06  2488   0.186E-03    0.731E-04
RMM:  13    -0.413209165079E+03    0.34230E-05   -0.51156E-07  2359   0.127E-03    0.503E-04
RMM:  14    -0.413209163765E+03    0.13143E-05   -0.23290E-07  1910   0.867E-04    0.325E-04
RMM:  15    -0.413209160039E+03    0.37259E-05   -0.13842E-07  1416   0.727E-04    0.154E-04
RMM:  16    -0.413209157539E+03    0.25005E-05   -0.83623E-08  1129   0.648E-04    0.121E-04
RMM:  17    -0.413209155260E+03    0.22786E-05   -0.61253E-08  1061   0.622E-04    0.823E-05
RMM:  18    -0.413209152219E+03    0.30412E-05   -0.57288E-08  1173   0.629E-04    0.625E-05
RMM:  19    -0.413209150225E+03    0.19940E-05   -0.39042E-08  1039   0.592E-04    0.469E-05
RMM:  20    -0.413209149515E+03    0.70962E-06   -0.21306E-08   835   0.549E-04
   40 T=    70. E= -.41286697E+03 F= -.41320915E+03 E0= -.41318805E+03  EK= 0.34218E+00 SP= 0.00E+00 SK= 0.00E+00
       N       E                     dE             d eps       ncg     rms          rms(c)
RMM:   1    -0.413235610431E+03   -0.26460E-01   -0.11970E+01  4309   0.127E+00    0.944E-01
RMM:   2    -0.413214450096E+03    0.21160E-01   -0.18521E-01  4270   0.142E-01    0.692E-01
RMM:   3    -0.413213164516E+03    0.12856E-02   -0.10061E-02  5056   0.616E-02    0.268E-01
RMM:   4    -0.413269758688E+03   -0.56594E-01   -0.66087E-02  5124   0.214E-01    0.993E-01
RMM:   5    -0.413211018658E+03    0.58740E-01   -0.28383E-02  4772   0.168E-01    0.610E-02
RMM:   6    -0.413211170929E+03   -0.15227E-03   -0.45895E-03  5796   0.641E-02    0.319E-02
RMM:   7    -0.413211190617E+03   -0.19689E-04   -0.55645E-04  5895   0.203E-02    0.217E-02
RMM:   8    -0.413211190798E+03   -0.18086E-06   -0.11861E-04  5279   0.105E-02    0.132E-02
RMM:   9    -0.413211178277E+03    0.12521E-04   -0.24607E-05  4558   0.578E-03    0.556E-03
RMM:  10    -0.413211174497E+03    0.37807E-05   -0.55543E-06  2929   0.292E-03    0.346E-03
RMM:  11    -0.413211171254E+03    0.32424E-05   -0.14784E-06  2506   0.198E-03    0.197E-03
RMM:  12    -0.413211166235E+03    0.50198E-05   -0.90148E-07  2472   0.162E-03    0.652E-04
RMM:  13    -0.413211163460E+03    0.27744E-05   -0.44295E-07  2278   0.115E-03    0.344E-04
RMM:  14    -0.413211161859E+03    0.16011E-05   -0.23010E-07  1798   0.843E-04    0.240E-04
RMM:  15    -0.413211158940E+03    0.29194E-05   -0.14242E-07  1325   0.715E-04    0.111E-04
RMM:  16    -0.413211157129E+03    0.18107E-05   -0.90833E-08  1126   0.657E-04    0.767E-05
RMM:  17    -0.413211155234E+03    0.18948E-05   -0.70096E-08  1111   0.639E-04    0.605E-05
RMM:  18    -0.413211153213E+03    0.20215E-05   -0.57222E-08  1094   0.625E-04    0.302E-05
RMM:  19    -0.413211151644E+03    0.15686E-05   -0.41575E-08  1035   0.600E-04    0.264E-05
RMM:  20    -0.413211151125E+03    0.51947E-06   -0.22207E-08   801   0.560E-04
   41 T=    70. E= -.41286669E+03 F= -.41321115E+03 E0= -.41319008E+03  EK= 0.34446E+00 SP= 0.00E+00 SK= 0.00E+00
       N       E                     dE             d eps       ncg     rms          rms(c)
RMM:   1    -0.413215596851E+03   -0.44452E-02   -0.11783E+01  4310   0.122E+00    0.969E-01
RMM:   2    -0.413216310585E+03   -0.71373E-03   -0.16089E-01  4285   0.138E-01    0.683E-01
RMM:   3    -0.413217272552E+03   -0.96197E-03   -0.12502E-02  5085   0.735E-02    0.304E-01
RMM:   4    -0.413254812524E+03   -0.37540E-01   -0.53083E-02  5094   0.194E-01    0.838E-01
RMM:   5    -0.413213678733E+03    0.41134E-01   -0.18493E-02  4742   0.140E-01    0.574E-02
RMM:   6    -0.413213743627E+03   -0.64894E-04   -0.31752E-03  5764   0.535E-02    0.314E-02
RMM:   7    -0.413213751152E+03   -0.75253E-05   -0.42227E-04  5807   0.183E-02    0.209E-02
RMM:   8    -0.413213747498E+03    0.36547E-05   -0.10790E-04  5196   0.103E-02    0.118E-02
RMM:   9    -0.413213733283E+03    0.14215E-04   -0.20036E-05  4418   0.545E-03    0.471E-03
RMM:  10    -0.413213727864E+03    0.54192E-05   -0.41276E-06  2798   0.260E-03    0.297E-03
RMM:  11    -0.413213722008E+03    0.58562E-05   -0.12349E-06  2498   0.184E-03    0.161E-03
RMM:  12    -0.413213714141E+03    0.78667E-05   -0.69981E-07  2432   0.146E-03    0.584E-04
RMM:  13    -0.413213709919E+03    0.42224E-05   -0.34412E-07  2102   0.102E-03    0.291E-04
RMM:  14    -0.413213707178E+03    0.27412E-05   -0.18487E-07  1566   0.780E-04    0.182E-04
RMM:  15    -0.413213701396E+03    0.57821E-05   -0.13392E-07  1351   0.721E-04    0.129E-04
RMM:  16    -0.413213699165E+03    0.22307E-05   -0.83905E-08  1162   0.655E-04    0.828E-05
RMM:  17    -0.413213695638E+03    0.35269E-05   -0.72162E-08  1243   0.651E-04    0.634E-05
RMM:  18    -0.413213693057E+03    0.25806E-05   -0.55185E-08  1156   0.609E-04    0.363E-05
RMM:  19    -0.413213691302E+03    0.17551E-05   -0.36643E-08   977   0.566E-04    0.327E-05
RMM:  20    -0.413213691050E+03    0.25194E-06   -0.18659E-08   747   0.531E-04
   42 T=    71. E= -.41286684E+03 F= -.41321369E+03 E0= -.41319265E+03  EK= 0.34685E+00 SP= 0.00E+00 SK= 0.00E+00
       N       E                     dE             d eps       ncg     rms          rms(c)
RMM:   1    -0.413220975108E+03   -0.72838E-02   -0.11769E+01  4311   0.130E+00    0.946E-01
RMM:   2    -0.413218487835E+03    0.24873E-02   -0.16562E-01  4287   0.148E-01    0.684E-01
RMM:   3    -0.413220366331E+03   -0.18785E-02   -0.13065E-02  5093   0.803E-02    0.335E-01
RMM:   4    -0.413254083303E+03   -0.33717E-01   -0.52421E-02  5083   0.193E-01    0.810E-01
RMM:   5    -0.413215760350E+03    0.38323E-01   -0.16793E-02  4720   0.135E-01    0.570E-02
RMM:   6    -0.413215805598E+03   -0.45249E-04   -0.28950E-03  5762   0.513E-02    0.307E-02
RMM:   7    -0.413215810334E+03   -0.47360E-05   -0.38716E-04  5797   0.178E-02    0.208E-02
RMM:   8    -0.413215806424E+03    0.39101E-05   -0.10082E-04  5165   0.101E-02    0.111E-02
RMM:   9    -0.413215794341E+03    0.12083E-04   -0.19125E-05  4367   0.537E-03    0.428E-03
RMM:  10    -0.413215790634E+03    0.37066E-05   -0.37060E-06  2755   0.250E-03    0.266E-03
RMM:  11    -0.413215786089E+03    0.45456E-05   -0.12420E-06  2497   0.181E-03    0.144E-03
RMM:  12    -0.413215780672E+03    0.54172E-05   -0.65092E-07  2431   0.138E-03    0.552E-04
RMM:  13    -0.413215777628E+03    0.30441E-05   -0.32067E-07  1943   0.962E-04    0.258E-04
RMM:  14    -0.413215775192E+03    0.24355E-05   -0.18294E-07  1476   0.768E-04    0.155E-04
RMM:  15    -0.413215770565E+03    0.46274E-05   -0.14600E-07  1321   0.727E-04    0.115E-04
RMM:  16    -0.413215768987E+03    0.15772E-05   -0.87262E-08  1140   0.656E-04    0.759E-05
RMM:  17    -0.413215765777E+03    0.32102E-05   -0.80636E-08  1260   0.658E-04    0.581E-05
RMM:  18    -0.413215763674E+03    0.21029E-05   -0.56297E-08  1118   0.608E-04    0.389E-05
RMM:  19    -0.413215762746E+03    0.92895E-06   -0.31301E-08   856   0.555E-04
   43 T=    71. E= -.41286683E+03 F= -.41321576E+03 E0= -.41319475E+03  EK= 0.34894E+00 SP= 0.00E+00 SK= 0.00E+00
       N       E                     dE             d eps       ncg     rms          rms(c)
RMM:   1    -0.413242689237E+03   -0.26926E-01   -0.12088E+01  4312   0.145E+00    0.947E-01
RMM:   2    -0.413220144786E+03    0.22544E-01   -0.19470E-01  4288   0.170E-01    0.701E-01
RMM:   3    -0.413222803905E+03   -0.26591E-02   -0.13505E-02  5086   0.879E-02    0.384E-01
RMM:   4    -0.413255393480E+03   -0.32590E-01   -0.54889E-02  5068   0.199E-01    0.814E-01
RMM:   5    -0.413217047604E+03    0.38346E-01   -0.16801E-02  4713   0.137E-01    0.601E-02
RMM:   6    -0.413217071332E+03   -0.23728E-04   -0.28369E-03  5715   0.511E-02    0.309E-02
RMM:   7    -0.413217075221E+03   -0.38897E-05   -0.38577E-04  5866   0.178E-02    0.215E-02
RMM:   8    -0.413217070678E+03    0.45434E-05   -0.98877E-05  5187   0.100E-02    0.109E-02
RMM:   9    -0.413217059741E+03    0.10937E-04   -0.21336E-05  4441   0.558E-03    0.416E-03
RMM:  10    -0.413217057177E+03    0.25644E-05   -0.39188E-06  2772   0.248E-03    0.247E-03
RMM:  11    -0.413217053575E+03    0.36015E-05   -0.15434E-06  2528   0.190E-03    0.142E-03
RMM:  12    -0.413217050185E+03    0.33898E-05   -0.63109E-07  2450   0.138E-03    0.612E-04
RMM:  13    -0.413217047891E+03    0.22940E-05   -0.31984E-07  1793   0.928E-04    0.270E-04
RMM:  14    -0.413217045677E+03    0.22138E-05   -0.20116E-07  1441   0.775E-04    0.150E-04
RMM:  15    -0.413217042764E+03    0.29135E-05   -0.15877E-07  1357   0.729E-04    0.925E-05
RMM:  16    -0.413217040970E+03    0.17937E-05   -0.10341E-07  1222   0.670E-04    0.699E-05
RMM:  17    -0.413217038918E+03    0.20524E-05   -0.80452E-08  1180   0.637E-04    0.466E-05
RMM:  18    -0.413217036828E+03    0.20895E-05   -0.62907E-08  1106   0.605E-04    0.386E-05
RMM:  19    -0.413217036267E+03    0.56112E-06   -0.33173E-08   844   0.553E-04
   44 T=    71. E= -.41286654E+03 F= -.41321704E+03 E0= -.41319605E+03  EK= 0.35049E+00 SP= 0.00E+00 SK= 0.00E+00
       N       E                     dE             d eps       ncg     rms          rms(c)
RMM:   1    -0.413229740703E+03   -0.12704E-01   -0.11954E+01  4310   0.147E+00    0.976E-01
RMM:   2    -0.413221027575E+03    0.87131E-02   -0.17046E-01  4330   0.172E-01    0.693E-01
RMM:   3    -0.413229588867E+03   -0.85613E-02   -0.19212E-02  5121   0.110E-01    0.478E-01
RMM:   4    -0.413239354771E+03   -0.97659E-02   -0.42036E-02  5026   0.178E-01    0.607E-01
RMM:   5    -0.413218799233E+03    0.20556E-01   -0.77282E-03  4613   0.103E-01    0.529E-02
RMM:   6    -0.413218767276E+03    0.31957E-04   -0.15311E-03  5538   0.379E-02    0.291E-02
RMM:   7    -0.413218762490E+03    0.47862E-05   -0.24171E-04  5611   0.151E-02    0.198E-02
RMM:   8    -0.413218753026E+03    0.94636E-05   -0.96936E-05  5072   0.101E-02    0.934E-03
RMM:   9    -0.413218739281E+03    0.13745E-04   -0.14472E-05  4167   0.513E-03    0.376E-03
RMM:  10    -0.413218735341E+03    0.39405E-05   -0.24465E-06  2665   0.215E-03    0.216E-03
RMM:  11    -0.413218728342E+03    0.69984E-05   -0.10792E-06  2477   0.170E-03    0.119E-03
RMM:  12    -0.413218722239E+03    0.61038E-05   -0.50966E-07  2387   0.125E-03    0.556E-04
RMM:  13    -0.413218718736E+03    0.35029E-05   -0.23409E-07  1716   0.842E-04    0.278E-04
RMM:  14    -0.413218715235E+03    0.35011E-05   -0.13367E-07  1272   0.692E-04    0.147E-04
RMM:  15    -0.413218709785E+03    0.54497E-05   -0.11579E-07  1257   0.683E-04    0.124E-04
RMM:  16    -0.413218707495E+03    0.22904E-05   -0.68583E-08  1055   0.618E-04    0.983E-05
RMM:  17    -0.413218703506E+03    0.39883E-05   -0.66295E-08  1212   0.630E-04    0.613E-05
RMM:  18    -0.413218700661E+03    0.28452E-05   -0.47222E-08  1075   0.584E-04    0.439E-05
RMM:  19    -0.413218700103E+03    0.55792E-06   -0.22453E-08   768   0.524E-04
   45 T=    72. E= -.41286683E+03 F= -.41321870E+03 E0= -.41319774E+03  EK= 0.35187E+00 SP= 0.00E+00 SK= 0.00E+00
       N       E                     dE             d eps       ncg     rms          rms(c)
RMM:   1    -0.413256887320E+03   -0.38187E-01   -0.12119E+01  4310   0.166E+00    0.959E-01
RMM:   2    -0.413221313043E+03    0.35574E-01   -0.17891E-01  4354   0.186E-01    0.689E-01
RMM:   3    -0.413232647851E+03   -0.11335E-01   -0.21306E-02  5123   0.120E-01    0.532E-01
RMM:   4    -0.413236050913E+03   -0.34031E-02   -0.40878E-02  5013   0.177E-01    0.558E-01
RMM:   5    -0.413219065603E+03    0.16985E-01   -0.63042E-03  4575   0.967E-02    0.525E-02
RMM:   6    -0.413219015100E+03    0.50504E-04   -0.12107E-03  5370   0.344E-02    0.282E-02
RMM:   7    -0.413219010208E+03    0.48922E-05   -0.19353E-04  5579   0.137E-02    0.187E-02
RMM:   8    -0.413219002786E+03    0.74213E-05   -0.10684E-04  5107   0.105E-02    0.987E-03
RMM:   9    -0.413218988317E+03    0.14470E-04   -0.16237E-05  4298   0.544E-03    0.389E-03
RMM:  10    -0.413218985252E+03    0.30646E-05   -0.26944E-06  2696   0.219E-03    0.221E-03
RMM:  11    -0.413218978976E+03    0.62758E-05   -0.12192E-06  2485   0.178E-03    0.121E-03
RMM:  12    -0.413218974380E+03    0.45960E-05   -0.52883E-07  2400   0.128E-03    0.644E-04
RMM:  13    -0.413218970895E+03    0.34850E-05   -0.24367E-07  1729   0.864E-04    0.318E-04
RMM:  14    -0.413218967527E+03    0.33682E-05   -0.13227E-07  1272   0.690E-04    0.165E-04
RMM:  15    -0.413218963330E+03    0.41971E-05   -0.10411E-07  1187   0.663E-04    0.115E-04
RMM:  16    -0.413218961104E+03    0.22262E-05   -0.63019E-08  1011   0.609E-04    0.103E-04
RMM:  17    -0.413218958056E+03    0.30476E-05   -0.57910E-08  1077   0.608E-04    0.592E-05
RMM:  18    -0.413218955133E+03    0.29231E-05   -0.49334E-08  1078   0.593E-04    0.479E-05
RMM:  19    -0.413218954592E+03    0.54116E-06   -0.18734E-08   701   0.516E-04
   46 T=    72. E= -.41286661E+03 F= -.41321895E+03 E0= -.41319801E+03  EK= 0.35234E+00 SP= 0.00E+00 SK= 0.00E+00
       N       E                     dE             d eps       ncg     rms          rms(c)
RMM:   1    -0.413240401900E+03   -0.21447E-01   -0.11981E+01  4310   0.168E+00    0.947E-01
RMM:   2    -0.413221477163E+03    0.18925E-01   -0.19019E-01  4339   0.202E-01    0.703E-01
RMM:   3    -0.413233148127E+03   -0.11671E-01   -0.21641E-02  5125   0.126E-01    0.552E-01
RMM:   4    -0.413237223945E+03   -0.40758E-02   -0.43835E-02  5007   0.183E-01    0.582E-01
RMM:   5    -0.413218627063E+03    0.18597E-01   -0.70491E-03  4576   0.102E-01    0.548E-02
RMM:   6    -0.413218569883E+03    0.57180E-04   -0.13080E-03  5364   0.360E-02    0.288E-02
RMM:   7    -0.413218563776E+03    0.61070E-05   -0.20746E-04  5642   0.141E-02    0.200E-02
RMM:   8    -0.413218554590E+03    0.91854E-05   -0.10799E-04  5127   0.106E-02    0.996E-03
RMM:   9    -0.413218541252E+03    0.13338E-04   -0.17577E-05  4342   0.560E-03    0.394E-03
RMM:  10    -0.413218539128E+03    0.21235E-05   -0.27704E-06  2707   0.221E-03    0.226E-03
RMM:  11    -0.413218534884E+03    0.42443E-05   -0.14050E-06  2511   0.185E-03    0.131E-03
RMM:  12    -0.413218531879E+03    0.30053E-05   -0.56170E-07  2423   0.133E-03    0.688E-04
RMM:  13    -0.413218529200E+03    0.26791E-05   -0.27988E-07  1772   0.913E-04    0.328E-04
RMM:  14    -0.413218526741E+03    0.24587E-05   -0.16113E-07  1361   0.732E-04    0.175E-04
RMM:  15    -0.413218523920E+03    0.28204E-05   -0.12433E-07  1233   0.687E-04    0.109E-04
RMM:  16    -0.413218522059E+03    0.18612E-05   -0.81937E-08  1115   0.627E-04    0.982E-05
RMM:  17    -0.413218520048E+03    0.20110E-05   -0.64686E-08  1067   0.605E-04    0.520E-05
RMM:  18    -0.413218517882E+03    0.21662E-05   -0.55444E-08  1040   0.593E-04    0.425E-05
RMM:  19    -0.413218517466E+03    0.41598E-06   -0.21907E-08   709   0.527E-04
   47 T=    72. E= -.41286652E+03 F= -.41321852E+03 E0= -.41319759E+03  EK= 0.35200E+00 SP= 0.00E+00 SK= 0.00E+00
       N       E                     dE             d eps       ncg     rms          rms(c)
RMM:   1    -0.413260861039E+03   -0.42343E-01   -0.12140E+01  4306   0.186E+00    0.971E-01
RMM:   2    -0.413219834832E+03    0.41026E-01   -0.19795E-01  4413   0.208E-01    0.699E-01
RMM:   3    -0.413238988760E+03   -0.19154E-01   -0.28094E-02  5146   0.146E-01    0.660E-01
RMM:   4    -0.413228740941E+03    0.10248E-01   -0.40256E-02  4972   0.179E-01    0.473E-01
RMM:   5    -0.413217499143E+03    0.11242E-01   -0.48946E-03  4525   0.911E-02    0.564E-02
RMM:   6    -0.413217381894E+03    0.11725E-03   -0.61418E-04  4861   0.291E-02    0.289E-02
RMM:   7    -0.413217369845E+03    0.12049E-04   -0.17449E-04  5929   0.132E-02    0.147E-02
RMM:   8    -0.413217363075E+03    0.67701E-05   -0.97813E-05  5199   0.109E-02    0.129E-02
RMM:   9    -0.413217350588E+03    0.12487E-04   -0.21984E-05  4552   0.575E-03    0.461E-03
RMM:  10    -0.413217346891E+03    0.36974E-05   -0.35712E-06  2770   0.282E-03    0.229E-03
RMM:  11    -0.413217341494E+03    0.53965E-05   -0.20986E-06  2512   0.232E-03    0.150E-03
RMM:  12    -0.413217336940E+03    0.45537E-05   -0.82334E-07  2411   0.164E-03    0.920E-04
RMM:  13    -0.413217333363E+03    0.35775E-05   -0.35130E-07  2202   0.105E-03    0.587E-04
RMM:  14    -0.413217327798E+03    0.55651E-05   -0.21995E-07  1867   0.838E-04    0.379E-04
RMM:  15    -0.413217323885E+03    0.39123E-05   -0.11650E-07  1183   0.643E-04    0.182E-04
RMM:  16    -0.413217321976E+03    0.19094E-05   -0.71026E-08   989   0.583E-04    0.951E-05
RMM:  17    -0.413217318651E+03    0.33250E-05   -0.73079E-08  1077   0.606E-04    0.905E-05
RMM:  18    -0.413217317146E+03    0.15048E-05   -0.34949E-08   833   0.564E-04    0.610E-05
RMM:  19    -0.413217316389E+03    0.75736E-06   -0.22519E-08   760   0.548E-04
   48 T=    71. E= -.41286676E+03 F= -.41321732E+03 E0= -.41319640E+03  EK= 0.35055E+00 SP= 0.00E+00 SK= 0.00E+00
       N       E                     dE             d eps       ncg     rms          rms(c)
RMM:   1    -0.413261696114E+03   -0.44379E-01   -0.11983E+01  4306   0.198E+00    0.962E-01
RMM:   2    -0.413216236871E+03    0.45459E-01   -0.19449E-01  4474   0.220E-01    0.689E-01
RMM:   3    -0.413242099115E+03   -0.25862E-01   -0.33956E-02  5157   0.162E-01    0.743E-01
RMM:   4    -0.413221698969E+03    0.20400E-01   -0.39505E-02  4947   0.180E-01    0.407E-01
RMM:   5    -0.413214038719E+03    0.76602E-02   -0.46090E-03  4633   0.897E-02    0.643E-02
RMM:   6    -0.413213846765E+03    0.19195E-03   -0.47056E-04  4666   0.294E-02    0.322E-02
RMM:   7    -0.413213847230E+03   -0.46474E-06   -0.22771E-04  5769   0.159E-02    0.228E-02
RMM:   8    -0.413213817035E+03    0.30196E-04   -0.81261E-05  4994   0.102E-02    0.886E-03
RMM:   9    -0.413213808005E+03    0.90293E-05   -0.15053E-05  4132   0.490E-03    0.439E-03
RMM:  10    -0.413213803240E+03    0.47653E-05   -0.20497E-06  2590   0.228E-03    0.249E-03
RMM:  11    -0.413213796582E+03    0.66582E-05   -0.10296E-06  2492   0.167E-03    0.158E-03
RMM:  12    -0.413213792852E+03    0.37300E-05   -0.36805E-07  2333   0.110E-03    0.794E-04
RMM:  13    -0.413213787241E+03    0.56111E-05   -0.30465E-07  1899   0.913E-04    0.398E-04
RMM:  14    -0.413213782613E+03    0.46274E-05   -0.19517E-07  1599   0.764E-04    0.350E-04
RMM:  15    -0.413213778260E+03    0.43537E-05   -0.13245E-07  1193   0.661E-04    0.144E-04
RMM:  16    -0.413213775801E+03    0.24582E-05   -0.83308E-08  1128   0.617E-04    0.101E-04
RMM:  17    -0.413213773183E+03    0.26186E-05   -0.64095E-08  1095   0.600E-04    0.754E-05
RMM:  18    -0.413213771778E+03    0.14044E-05   -0.42724E-08   979   0.563E-04    0.608E-05
RMM:  19    -0.413213770135E+03    0.16437E-05   -0.37067E-08   969   0.557E-04    0.354E-05
RMM:  20    -0.413213769581E+03    0.55369E-06   -0.19857E-08   776   0.520E-04
   49 T=    71. E= -.41286642E+03 F= -.41321377E+03 E0= -.41319287E+03  EK= 0.34735E+00 SP= 0.00E+00 SK= 0.00E+00
       N       E                     dE             d eps       ncg     rms          rms(c)
RMM:   1    -0.413236794383E+03   -0.23024E-01   -0.11618E+01  4306   0.200E+00    0.933E-01
RMM:   2    -0.413212562239E+03    0.24232E-01   -0.19441E-01  4482   0.229E-01    0.694E-01
RMM:   3    -0.413237878396E+03   -0.25316E-01   -0.33506E-02  5158   0.164E-01    0.747E-01
RMM:   4    -0.413217953499E+03    0.19925E-01   -0.40716E-02  4948   0.184E-01    0.417E-01
RMM:   5    -0.413209714439E+03    0.82391E-02   -0.50647E-03  4666   0.932E-02    0.673E-02
RMM:   6    -0.413209493230E+03    0.22121E-03   -0.50797E-04  4673   0.308E-02    0.328E-02
RMM:   7    -0.413209493133E+03    0.97461E-07   -0.23141E-04  5782   0.160E-02    0.227E-02
RMM:   8    -0.413209464852E+03    0.28281E-04   -0.81594E-05  5035   0.100E-02    0.934E-03
RMM:   9    -0.413209457323E+03    0.75292E-05   -0.15986E-05  4223   0.506E-03    0.443E-03
RMM:  10    -0.413209453531E+03    0.37920E-05   -0.24173E-06  2615   0.236E-03    0.257E-03
RMM:  11    -0.413209448891E+03    0.46400E-05   -0.10346E-06  2491   0.169E-03    0.162E-03
[...]
       N       E                     dE             d eps       ncg     rms          rms(c)
RMM:   1    -0.413109523028E+03   -0.27952E-01   -0.52078E+00  4293   0.208E+00    0.473E-01
RMM:   2    -0.413110354729E+03   -0.83170E-03   -0.10594E-01  4570   0.210E-01    0.390E-01
RMM:   3    -0.413117963150E+03   -0.76084E-02   -0.11121E-02  5263   0.106E-01    0.444E-01
RMM:   4    -0.413111173796E+03    0.67894E-02   -0.11744E-02  4996   0.105E-01    0.224E-01
RMM:   5    -0.413109060710E+03    0.21131E-02   -0.34151E-03  5118   0.715E-02    0.786E-02
RMM:   6    -0.413108817943E+03    0.24277E-03   -0.41851E-04  4635   0.288E-02    0.307E-02
RMM:   7    -0.413108821600E+03   -0.36565E-05   -0.12838E-04  5616   0.125E-02    0.189E-02
RMM:   8    -0.413108855043E+03   -0.33443E-04   -0.69989E-05  5522   0.867E-03    0.838E-03
RMM:   9    -0.413108875098E+03   -0.20055E-04   -0.12365E-05  3792   0.465E-03    0.392E-03
RMM:  10    -0.413108887269E+03   -0.12171E-04   -0.27429E-06  2724   0.236E-03    0.248E-03
RMM:  11    -0.413108904396E+03   -0.17127E-04   -0.17686E-06  2628   0.183E-03    0.180E-03
RMM:  12    -0.413108916951E+03   -0.12555E-04   -0.11875E-06  2375   0.137E-03    0.102E-03
RMM:  13    -0.413108927284E+03   -0.10333E-04   -0.10585E-06  2511   0.133E-03    0.468E-04
RMM:  14    -0.413108933707E+03   -0.64232E-05   -0.57191E-07  2002   0.102E-03    0.404E-04
RMM:  15    -0.413108938467E+03   -0.47593E-05   -0.33273E-07  1679   0.840E-04    0.267E-04
RMM:  16    -0.413108942232E+03   -0.37655E-05   -0.23015E-07  1634   0.765E-04    0.108E-04
RMM:  17    -0.413108945057E+03   -0.28247E-05   -0.17194E-07  1541   0.690E-04    0.873E-05
RMM:  18    -0.413108946344E+03   -0.12875E-05   -0.87543E-08  1148   0.566E-04    0.606E-05
RMM:  19    -0.413108947509E+03   -0.11644E-05   -0.70412E-08  1175   0.562E-04    0.366E-05
RMM:  20    -0.413108947887E+03   -0.37830E-06   -0.36471E-08   946   0.505E-04
  139 T=    66. E= -.41278479E+03 F= -.41310895E+03 E0= -.41308702E+03  EK= 0.32415E+00 SP= 0.00E+00 SK= 0.00E+00
       N       E                     dE             d eps       ncg     rms          rms(c)
RMM:   1    -0.413108043941E+03    0.90357E-03   -0.54939E+00  4292   0.197E+00    0.543E-01
RMM:   2    -0.413109870503E+03   -0.18266E-02   -0.10844E-01  4542   0.202E-01    0.448E-01
RMM:   3    -0.413117921442E+03   -0.80509E-02   -0.14303E-02  5226   0.115E-01    0.458E-01
RMM:   4    -0.413112455909E+03    0.54655E-02   -0.18925E-02  5011   0.130E-01    0.307E-01
RMM:   5    -0.413107365350E+03    0.50906E-02   -0.39252E-03  5001   0.798E-02    0.813E-02
RMM:   6    -0.413107100661E+03    0.26469E-03   -0.48889E-04  4765   0.299E-02    0.332E-02
RMM:   7    -0.413107105048E+03   -0.43872E-05   -0.14276E-04  5526   0.133E-02    0.193E-02
RMM:   8    -0.413107157891E+03   -0.52843E-04   -0.11907E-04  5686   0.116E-02    0.124E-02
RMM:   9    -0.413107171805E+03   -0.13914E-04   -0.17170E-05  4322   0.563E-03    0.501E-03
RMM:  10    -0.413107185405E+03   -0.13600E-04   -0.61184E-06  3258   0.321E-03    0.257E-03
RMM:  11    -0.413107202589E+03   -0.17184E-04   -0.20986E-06  2620   0.223E-03    0.185E-03
RMM:  12    -0.413107215547E+03   -0.12958E-04   -0.13545E-06  2497   0.155E-03    0.121E-03
RMM:  13    -0.413107227497E+03   -0.11951E-04   -0.14882E-06  2550   0.152E-03    0.486E-04
RMM:  14    -0.413107234365E+03   -0.68682E-05   -0.76971E-07  2167   0.115E-03    0.417E-04
RMM:  15    -0.413107239361E+03   -0.49955E-05   -0.46043E-07  1943   0.940E-04    0.297E-04
RMM:  16    -0.413107242486E+03   -0.31249E-05   -0.24042E-07  1496   0.758E-04    0.146E-04
RMM:  17    -0.413107245002E+03   -0.25165E-05   -0.17763E-07  1536   0.718E-04    0.754E-05
RMM:  18    -0.413107246324E+03   -0.13215E-05   -0.99648E-08  1367   0.614E-04    0.694E-05
RMM:  19    -0.413107247046E+03   -0.72239E-06   -0.57739E-08  1127   0.539E-04
  140 T=    68. E= -.41277196E+03 F= -.41310725E+03 E0= -.41308544E+03  EK= 0.33529E+00 SP= 0.00E+00 SK= 0.00E+00
       N       E                     dE             d eps       ncg     rms          rms(c)
RMM:   1    -0.413126412552E+03   -0.19166E-01   -0.59635E+00  4308   0.230E+00    0.747E-01
RMM:   2    -0.413104619459E+03    0.21793E-01   -0.90831E-02  4595   0.221E-01    0.452E-01
RMM:   3    -0.413118684033E+03   -0.14065E-01   -0.23677E-02  5238   0.140E-01    0.536E-01
RMM:   4    -0.413104390248E+03    0.14294E-01   -0.14391E-02  4929   0.117E-01    0.182E-01
RMM:   5    -0.413103087229E+03    0.13030E-02   -0.18925E-03  5248   0.584E-02    0.613E-02
RMM:   6    -0.413102982412E+03    0.10482E-03   -0.32456E-04  4813   0.239E-02    0.263E-02
RMM:   7    -0.413103029318E+03   -0.46906E-04   -0.19405E-04  5678   0.157E-02    0.188E-02
RMM:   8    -0.413103027072E+03    0.22453E-05   -0.62535E-05  5150   0.918E-03    0.100E-02
RMM:   9    -0.413103036293E+03   -0.92204E-05   -0.19929E-05  4830   0.568E-03    0.444E-03
RMM:  10    -0.413103041609E+03   -0.53167E-05   -0.41710E-06  2913   0.271E-03    0.245E-03
RMM:  11    -0.413103049599E+03   -0.79892E-05   -0.20922E-06  2623   0.217E-03    0.162E-03
RMM:  12    -0.413103054955E+03   -0.53561E-05   -0.13712E-06  2506   0.158E-03    0.107E-03
RMM:  13    -0.413103058967E+03   -0.40120E-05   -0.11260E-06  2387   0.131E-03    0.471E-04
RMM:  14    -0.413103061317E+03   -0.23504E-05   -0.76844E-07  1956   0.105E-03    0.329E-04
RMM:  15    -0.413103062983E+03   -0.16655E-05   -0.71419E-07  1950   0.101E-03    0.238E-04
RMM:  16    -0.413103063470E+03   -0.48708E-06   -0.31716E-07  1470   0.747E-04
  141 T=    66. E= -.41277718E+03 F= -.41310306E+03 E0= -.41308136E+03  EK= 0.32589E+00 SP= 0.00E+00 SK= 0.00E+00
       N       E                     dE             d eps       ncg     rms          rms(c)
RMM:   1    -0.413113606904E+03   -0.10544E-01   -0.46887E+00  4301   0.198E+00    0.503E-01
RMM:   2    -0.413108183021E+03    0.54239E-02   -0.70603E-02  4553   0.182E-01    0.374E-01
RMM:   3    -0.413107346678E+03    0.83634E-03   -0.61793E-03  5267   0.711E-02    0.143E-01
RMM:   4    -0.413122414361E+03   -0.15068E-01   -0.18433E-02  5178   0.119E-01    0.525E-01
RMM:   5    -0.413106747534E+03    0.15667E-01   -0.79027E-03  4911   0.933E-02    0.681E-02
RMM:   6    -0.413106634662E+03    0.11287E-03   -0.13198E-03  5517   0.389E-02    0.239E-02
RMM:   7    -0.413106667516E+03   -0.32854E-04   -0.30959E-04  5997   0.167E-02    0.179E-02
RMM:   8    -0.413106687972E+03   -0.20455E-04   -0.86294E-05  5280   0.979E-03    0.898E-03
RMM:   9    -0.413106697765E+03   -0.97938E-05   -0.16513E-05  4224   0.496E-03    0.427E-03
RMM:  10    -0.413106704917E+03   -0.71517E-05   -0.34843E-06  2793   0.261E-03    0.251E-03
RMM:  11    -0.413106713854E+03   -0.89372E-05   -0.19263E-06  2598   0.204E-03    0.165E-03
RMM:  12    -0.413106722688E+03   -0.88336E-05   -0.19887E-06  2598   0.176E-03    0.937E-04
RMM:  13    -0.413106725563E+03   -0.28748E-05   -0.65496E-07  2037   0.109E-03    0.514E-04
RMM:  14    -0.413106728364E+03   -0.28011E-05   -0.64599E-07  2047   0.105E-03    0.326E-04
RMM:  15    -0.413106730058E+03   -0.16937E-05   -0.48192E-07  1741   0.891E-04    0.236E-04
RMM:  16    -0.413106730820E+03   -0.76245E-06   -0.34867E-07  1592   0.804E-04
  142 T=    67. E= -.41277646E+03 F= -.41310673E+03 E0= -.41308514E+03  EK= 0.33027E+00 SP= 0.00E+00 SK= 0.00E+00
       N       E                     dE             d eps       ncg     rms          rms(c)
RMM:   1    -0.413127776121E+03   -0.21046E-01   -0.58050E+00  4285   0.180E+00    0.636E-01
RMM:   2    -0.413128671400E+03   -0.89528E-03   -0.97724E-02  4543   0.186E-01    0.516E-01
RMM:   3    -0.413125873540E+03    0.27979E-02   -0.20479E-02  5057   0.107E-01    0.191E-01
RMM:   4    -0.413148530856E+03   -0.22657E-01   -0.28069E-02  5170   0.150E-01    0.649E-01
RMM:   5    -0.413124279374E+03    0.24251E-01   -0.11689E-02  4867   0.113E-01    0.825E-02
RMM:   6    -0.413124132269E+03    0.14710E-03   -0.19651E-03  5591   0.465E-02    0.284E-02
RMM:   7    -0.413124165298E+03   -0.33029E-04   -0.38642E-04  6009   0.186E-02    0.190E-02
RMM:   8    -0.413124194429E+03   -0.29131E-04   -0.87047E-05  5413   0.974E-03    0.892E-03
RMM:   9    -0.413124217253E+03   -0.22824E-04   -0.20277E-05  4362   0.529E-03    0.454E-03
RMM:  10    -0.413124231087E+03   -0.13834E-04   -0.43789E-06  2837   0.276E-03    0.269E-03
RMM:  11    -0.413124245442E+03   -0.14355E-04   -0.22809E-06  2631   0.211E-03    0.179E-03
RMM:  12    -0.413124259439E+03   -0.13997E-04   -0.23494E-06  2637   0.186E-03    0.110E-03
RMM:  13    -0.413124264431E+03   -0.49924E-05   -0.91088E-07  2120   0.118E-03    0.563E-04
RMM:  14    -0.413124268867E+03   -0.44361E-05   -0.77409E-07  2055   0.109E-03    0.348E-04
RMM:  15    -0.413124272185E+03   -0.33179E-05   -0.68160E-07  1816   0.979E-04    0.243E-04
RMM:  16    -0.413124273472E+03   -0.12871E-05   -0.36702E-07  1555   0.805E-04    0.127E-04
RMM:  17    -0.413124273812E+03   -0.33965E-06   -0.17268E-07  1289   0.682E-04
  143 T=    71. E= -.41277314E+03 F= -.41312427E+03 E0= -.41310281E+03  EK= 0.35113E+00 SP= 0.00E+00 SK= 0.00E+00
       N       E                     dE             d eps       ncg     rms          rms(c)
RMM:   1    -0.413151479847E+03   -0.27206E-01   -0.54375E+00  4303   0.196E+00    0.663E-01
RMM:   2    -0.413137114860E+03    0.14365E-01   -0.69704E-02  4524   0.184E-01    0.437E-01
RMM:   3    -0.413142543283E+03   -0.54284E-02   -0.15936E-02  5225   0.109E-01    0.374E-01
RMM:   4    -0.413139151191E+03    0.33921E-02   -0.13502E-02  5026   0.110E-01    0.274E-01
RMM:   5    -0.413135182877E+03    0.39683E-02   -0.28496E-03  4991   0.680E-02    0.700E-02
RMM:   6    -0.413135014409E+03    0.16847E-03   -0.39639E-04  4757   0.271E-02    0.279E-02
RMM:   7    -0.413135035770E+03   -0.21361E-04   -0.22722E-04  5596   0.166E-02    0.201E-02
RMM:   8    -0.413135049942E+03   -0.14171E-04   -0.10182E-04  5480   0.113E-02    0.147E-02
RMM:   9    -0.413135044992E+03    0.49503E-05   -0.19488E-05  4683   0.588E-03    0.558E-03
RMM:  10    -0.413135047441E+03   -0.24497E-05   -0.10148E-05  3912   0.366E-03    0.233E-03
RMM:  11    -0.413135049832E+03   -0.23903E-05   -0.15077E-06  2529   0.207E-03    0.147E-03
RMM:  12    -0.413135050963E+03   -0.11310E-05   -0.88805E-07  2477   0.138E-03    0.101E-03
RMM:  13    -0.413135050860E+03    0.10246E-06   -0.13404E-06  2482   0.141E-03
  144 T=    71. E= -.41278564E+03 F= -.41313505E+03 E0= -.41311369E+03  EK= 0.34941E+00 SP= 0.00E+00 SK= 0.00E+00
       N       E                     dE             d eps       ncg     rms          rms(c)
RMM:   1    -0.413127353417E+03    0.76975E-02   -0.53287E+00  4303   0.189E+00    0.617E-01
RMM:   2    -0.413115584965E+03    0.11768E-01   -0.72573E-02  4500   0.181E-01    0.409E-01
RMM:   3    -0.413117876695E+03   -0.22917E-02   -0.11740E-02  5244   0.922E-02    0.283E-01
RMM:   4    -0.413120055030E+03   -0.21783E-02   -0.12997E-02  5093   0.105E-01    0.335E-01
RMM:   5    -0.413114045989E+03    0.60090E-02   -0.36744E-03  4977   0.733E-02    0.717E-02
RMM:   6    -0.413113875038E+03    0.17095E-03   -0.58977E-04  4952   0.304E-02    0.282E-02
RMM:   7    -0.413113893895E+03   -0.18857E-04   -0.25566E-04  5685   0.170E-02    0.206E-02
RMM:   8    -0.413113903368E+03   -0.94729E-05   -0.10464E-04  5439   0.115E-02    0.134E-02
RMM:   9    -0.413113898656E+03    0.47120E-05   -0.18973E-05  4622   0.564E-03    0.537E-03
RMM:  10    -0.413113899763E+03   -0.11073E-05   -0.86832E-06  3740   0.348E-03    0.242E-03
RMM:  11    -0.413113900800E+03   -0.10374E-05   -0.14483E-06  2521   0.205E-03    0.148E-03
RMM:  12    -0.413113900776E+03    0.24549E-07   -0.99769E-07  2507   0.146E-03
  145 T=    69. E= -.41277697E+03 F= -.41311390E+03 E0= -.41309265E+03  EK= 0.33693E+00 SP= 0.00E+00 SK= 0.00E+00
       N       E                     dE             d eps       ncg     rms          rms(c)
RMM:   1    -0.413145535121E+03   -0.31634E-01   -0.57733E+00  4293   0.166E+00    0.590E-01
RMM:   2    -0.413146021830E+03   -0.48671E-03   -0.73339E-02  4555   0.167E-01    0.462E-01
RMM:   3    -0.413148991723E+03   -0.29699E-02   -0.16320E-02  5246   0.109E-01    0.323E-01
RMM:   4    -0.413155381746E+03   -0.63900E-02   -0.22223E-02  5084   0.136E-01    0.459E-01
RMM:   5    -0.413143494946E+03    0.11887E-01   -0.67401E-03  4960   0.956E-02    0.807E-02
RMM:   6    -0.413143259515E+03    0.23543E-03   -0.97858E-04  5095   0.368E-02    0.320E-02
RMM:   7    -0.413143261955E+03   -0.24394E-05   -0.25387E-04  5628   0.166E-02    0.190E-02
RMM:   8    -0.413143292501E+03   -0.30546E-04   -0.11785E-04  5716   0.117E-02    0.128E-02
RMM:   9    -0.413143299462E+03   -0.69620E-05   -0.20622E-05  4571   0.571E-03    0.574E-03
RMM:  10    -0.413143307923E+03   -0.84606E-05   -0.92001E-06  3710   0.362E-03    0.266E-03
RMM:  11    -0.413143316371E+03   -0.84481E-05   -0.17543E-06  2555   0.216E-03    0.188E-03
RMM:  12    -0.413143324505E+03   -0.81335E-05   -0.13825E-06  2549   0.165E-03    0.115E-03
RMM:  13    -0.413143330902E+03   -0.63973E-05   -0.13397E-06  2464   0.136E-03    0.522E-04
RMM:  14    -0.413143333739E+03   -0.28373E-05   -0.82152E-07  1911   0.102E-03    0.314E-04
RMM:  15    -0.413143335029E+03   -0.12893E-05   -0.65878E-07  1858   0.945E-04    0.221E-04
RMM:  16    -0.413143334954E+03    0.74877E-07   -0.39555E-07  1584   0.776E-04
  146 T=    73. E= -.41278533E+03 F= -.41314333E+03 E0= -.41312220E+03  EK= 0.35801E+00 SP= 0.00E+00 SK= 0.00E+00
       N       E                     dE             d eps       ncg     rms          rms(c)
RMM:   1    -0.413143369138E+03   -0.34109E-04   -0.59177E+00  4297   0.164E+00    0.587E-01
RMM:   2    -0.413142770499E+03    0.59864E-03   -0.70389E-02  4512   0.161E-01    0.438E-01
RMM:   3    -0.413145780125E+03   -0.30096E-02   -0.10774E-02  5271   0.936E-02    0.299E-01
RMM:   4    -0.413150975902E+03   -0.51958E-02   -0.18143E-02  5089   0.122E-01    0.413E-01
RMM:   5    -0.413141450109E+03    0.95258E-02   -0.58838E-03  4980   0.897E-02    0.792E-02
RMM:   6    -0.413141190532E+03    0.25958E-03   -0.88311E-04  4997   0.360E-02    0.310E-02
RMM:   7    -0.413141193391E+03   -0.28589E-05   -0.25447E-04  5695   0.166E-02    0.181E-02
RMM:   8    -0.413141223186E+03   -0.29796E-04   -0.11143E-04  5730   0.111E-02    0.125E-02
RMM:   9    -0.413141226725E+03   -0.35385E-05   -0.18910E-05  4513   0.556E-03    0.533E-03
RMM:  10    -0.413141232730E+03   -0.60052E-05   -0.85227E-06  3661   0.348E-03    0.246E-03
RMM:  11    -0.413141239611E+03   -0.68806E-05   -0.15723E-06  2540   0.210E-03    0.162E-03
RMM:  12    -0.413141245513E+03   -0.59025E-05   -0.11370E-06  2510   0.155E-03    0.995E-04
RMM:  13    -0.413141249919E+03   -0.44053E-05   -0.10134E-06  2372   0.124E-03    0.467E-04
RMM:  14    -0.413141252022E+03   -0.21035E-05   -0.72373E-07  1897   0.994E-04    0.267E-04
RMM:  15    -0.413141252598E+03   -0.57621E-06   -0.52828E-07  1775   0.896E-04
  147 T=    74. E= -.41277903E+03 F= -.41314125E+03 E0= -.41312023E+03  EK= 0.36222E+00 SP= 0.00E+00 SK= 0.00E+00
       N       E                     dE             d eps       ncg     rms          rms(c)
RMM:   1    -0.413138319804E+03    0.29322E-02   -0.70363E+00  4303   0.190E+00    0.770E-01
RMM:   2    -0.413119278948E+03    0.19041E-01   -0.75548E-02  4468   0.182E-01    0.456E-01
RMM:   3    -0.413119269969E+03    0.89788E-05   -0.10702E-02  5202   0.759E-02    0.145E-01
RMM:   4    -0.413132865947E+03   -0.13596E-01   -0.16147E-02  5194   0.112E-01    0.500E-01
RMM:   5    -0.413118933394E+03    0.13933E-01   -0.73357E-03  4925   0.896E-02    0.729E-02
RMM:   6    -0.413118817972E+03    0.11542E-03   -0.13390E-03  5454   0.401E-02    0.283E-02
RMM:   7    -0.413118850011E+03   -0.32040E-04   -0.36435E-04  5978   0.188E-02    0.219E-02
RMM:   8    -0.413118847801E+03    0.22100E-05   -0.98732E-05  5183   0.108E-02    0.878E-03
RMM:   9    -0.413118846449E+03    0.13529E-05   -0.20140E-05  4596   0.524E-03    0.447E-03
RMM:  10    -0.413118845861E+03    0.58774E-06   -0.35070E-06  2801   0.264E-03
  148 T=    70. E= -.41277565E+03 F= -.41311885E+03 E0= -.41309792E+03  EK= 0.34319E+00 SP= 0.00E+00 SK= 0.00E+00
       N       E                     dE             d eps       ncg     rms          rms(c)
RMM:   1    -0.413134596042E+03   -0.15750E-01   -0.61724E+00  4298   0.170E+00    0.542E-01
RMM:   2    -0.413133078638E+03    0.15174E-02   -0.67831E-02  4519   0.160E-01    0.400E-01
RMM:   3    -0.413144770793E+03   -0.11692E-01   -0.14922E-02  5253   0.113E-01    0.481E-01
RMM:   4    -0.413134926217E+03    0.98446E-02   -0.14246E-02  4980   0.114E-01    0.212E-01
RMM:   5    -0.413132885617E+03    0.20406E-02   -0.32307E-03  5157   0.713E-02    0.742E-02
RMM:   6    -0.413132659219E+03    0.22640E-03   -0.44410E-04  4672   0.293E-02    0.275E-02
RMM:   7    -0.413132667425E+03   -0.82062E-05   -0.16302E-04  5529   0.145E-02    0.155E-02
RMM:   8    -0.413132708782E+03   -0.41357E-04   -0.83066E-05  5638   0.958E-03    0.119E-02
RMM:   9    -0.413132716200E+03   -0.74175E-05   -0.13585E-05  4139   0.498E-03    0.465E-03
RMM:  10    -0.413132725374E+03   -0.91739E-05   -0.65623E-06  3423   0.318E-03    0.212E-03
RMM:  11    -0.413132737294E+03   -0.11920E-04   -0.18227E-06  2542   0.212E-03    0.134E-03
RMM:  12    -0.413132744761E+03   -0.74670E-05   -0.10560E-06  2473   0.142E-03    0.811E-04
RMM:  13    -0.413132751467E+03   -0.67067E-05   -0.11850E-06  2419   0.130E-03    0.447E-04
RMM:  14    -0.413132754687E+03   -0.32196E-05   -0.65338E-07  2032   0.984E-04    0.357E-04
RMM:  15    -0.413132756798E+03   -0.21110E-05   -0.55219E-07  1625   0.883E-04    0.164E-04
RMM:  16    -0.413132757389E+03   -0.59081E-06   -0.26771E-07  1476   0.729E-04
  149 T=    72. E= -.41278105E+03 F= -.41313276E+03 E0= -.41311195E+03  EK= 0.35171E+00 SP= 0.00E+00 SK= 0.00E+00
       N       E                     dE             d eps       ncg     rms          rms(c)
RMM:   1    -0.413131542287E+03    0.12145E-02   -0.73401E+00  4295   0.167E+00    0.634E-01
RMM:   2    -0.413132780372E+03   -0.12381E-02   -0.10291E-01  4535   0.172E-01    0.514E-01
RMM:   3    -0.413153916526E+03   -0.21136E-01   -0.26507E-02  5210   0.147E-01    0.664E-01
RMM:   4    -0.413133471321E+03    0.20445E-01   -0.26458E-02  4938   0.156E-01    0.241E-01
RMM:   5    -0.413130411994E+03    0.30593E-02   -0.38152E-03  5084   0.811E-02    0.782E-02
RMM:   6    -0.413130183358E+03    0.22864E-03   -0.47717E-04  4735   0.298E-02    0.325E-02
RMM:   7    -0.413130193155E+03   -0.97977E-05   -0.14229E-04  5468   0.135E-02    0.199E-02
RMM:   8    -0.413130250365E+03   -0.57210E-04   -0.86807E-05  5630   0.989E-03    0.113E-02
RMM:   9    -0.413130279026E+03   -0.28661E-04   -0.16493E-05  4265   0.529E-03    0.460E-03
RMM:  10    -0.413130300314E+03   -0.21288E-04   -0.53431E-06  3022   0.297E-03    0.257E-03
RMM:  11    -0.413130324595E+03   -0.24281E-04   -0.22001E-06  2608   0.217E-03    0.171E-03
RMM:  12    -0.413130342691E+03   -0.18096E-04   -0.14881E-06  2508   0.154E-03    0.109E-03
RMM:  13    -0.413130358784E+03   -0.16093E-04   -0.14742E-06  2540   0.144E-03    0.625E-04
RMM:  14    -0.413130369280E+03   -0.10495E-04   -0.87729E-07  2031   0.109E-03    0.441E-04
RMM:  15    -0.413130377851E+03   -0.85715E-05   -0.65668E-07  1823   0.961E-04    0.244E-04
RMM:  16    -0.413130382066E+03   -0.42152E-05   -0.29534E-07  1523   0.758E-04    0.128E-04
RMM:  17    -0.413130384724E+03   -0.26575E-05   -0.16024E-07  1429   0.678E-04    0.951E-05
RMM:  18    -0.413130386022E+03   -0.12980E-05   -0.85904E-08  1233   0.594E-04    0.544E-05
RMM:  19    -0.413130386885E+03   -0.86359E-06   -0.53574E-08  1145   0.556E-04
  150 T=    74. E= -.41276796E+03 F= -.41313039E+03 E0= -.41310971E+03  EK= 0.36243E+00 SP= 0.00E+00 SK= 0.00E+00
