       N       E                     dE             d eps       ncg     rms          rms(c)
RMM:   1     0.220101316672E+04    0.22010E+04   -0.52440E+04  2132   0.654E+02
RMM:   2     0.705121201620E+03   -0.14959E+04   -0.16263E+04  2132   0.177E+02
RMM:   3     0.137593278913E+03   -0.56753E+03   -0.65704E+03  2132   0.117E+02
RMM:   4    -0.159130313733E+03   -0.29672E+03   -0.27816E+03  2132   0.936E+01
RMM:   5    -0.287310138856E+03   -0.12818E+03   -0.11443E+03  2132   0.595E+01
RMM:   6    -0.349817332592E+03   -0.62507E+02   -0.55183E+02  2132   0.423E+01
RMM:   7    -0.382736716501E+03   -0.32919E+02   -0.30436E+02  2132   0.293E+01
RMM:   8    -0.404183375180E+03   -0.21447E+02   -0.18429E+02  2132   0.233E+01
RMM:   9    -0.435993038362E+03   -0.31810E+02   -0.30747E+02  6103   0.173E+01
RMM:  10    -0.441310636559E+03   -0.53176E+01   -0.63689E+01  6390   0.539E+00
RMM:  11    -0.442489679625E+03   -0.11790E+01   -0.11059E+01  6225   0.173E+00
RMM:  12    -0.442864316809E+03   -0.37464E+00   -0.25991E+00  6365   0.598E-01    0.134E+02
RMM:  13    -0.425549914316E+03    0.17314E+02   -0.80947E+01  4680   0.119E+01    0.712E+01
RMM:  14    -0.498784162365E+03   -0.73234E+02   -0.53737E+02  5412   0.232E+01    0.306E+01
RMM:  15    -0.414645948087E+03    0.84138E+02   -0.19541E+02  5069   0.162E+01    0.626E+00
RMM:  16    -0.414043993062E+03    0.60196E+00   -0.38778E+01  6073   0.601E+00    0.427E+00
RMM:  17    -0.413221350510E+03    0.82264E+00   -0.23193E+00  5337   0.181E+00    0.245E+00
RMM:  18    -0.413165531471E+03    0.55819E-01   -0.88559E-01  5947   0.969E-01    0.159E+00
RMM:  19    -0.413168326202E+03   -0.27947E-02   -0.27697E-01  5717   0.559E-01    0.857E-01
RMM:  20    -0.413183842982E+03   -0.15517E-01   -0.21410E-01  5408   0.504E-01    0.556E-01
RMM:  21    -0.413167029284E+03    0.16814E-01   -0.31905E-02  4989   0.226E-01    0.260E-01
RMM:  22    -0.413165213790E+03    0.18155E-02   -0.14842E-02  6060   0.108E-01    0.144E-01
RMM:  23    -0.413163950091E+03    0.12637E-02   -0.52373E-03  5926   0.671E-02    0.823E-02
RMM:  24    -0.413162747935E+03    0.12022E-02   -0.14740E-03  5379   0.394E-02    0.398E-02
RMM:  25    -0.413162510030E+03    0.23791E-03   -0.76822E-04  5671   0.250E-02    0.298E-02
RMM:  26    -0.413162750523E+03   -0.24049E-03   -0.70255E-04  5840   0.277E-02    0.332E-02
RMM:  27    -0.413163182566E+03   -0.43204E-03   -0.17143E-04  4541   0.192E-02    0.189E-02
RMM:  28    -0.413163668340E+03   -0.48577E-03   -0.19928E-04  5263   0.200E-02    0.858E-03
RMM:  29    -0.413164045209E+03   -0.37687E-03   -0.96431E-05  4363   0.146E-02    0.424E-03
RMM:  30    -0.413164271305E+03   -0.22610E-03   -0.75530E-05  4115   0.100E-02    0.341E-03
RMM:  31    -0.413164373907E+03   -0.10260E-03   -0.42985E-05  3103   0.569E-03    0.262E-03
RMM:  32    -0.413164400441E+03   -0.26534E-04   -0.16884E-05  2916   0.286E-03    0.139E-03
RMM:  33    -0.413164410907E+03   -0.10466E-04   -0.77221E-06  2799   0.218E-03    0.624E-04
RMM:  34    -0.413164414155E+03   -0.32483E-05   -0.40490E-06  2631   0.158E-03    0.819E-04
RMM:  35    -0.413164414576E+03   -0.42074E-06   -0.45344E-06  2182   0.112E-03
    1 T=    61. E= -.41286660E+03 F= -.41316441E+03 E0= -.41314191E+03  EK= 0.29782E+00 SP= 0.00E+00 SK= 0.00E+00
       N       E                     dE             d eps       ncg     rms          rms(c)
RMM:   1    -0.413154664778E+03    0.97494E-02   -0.11117E+01  4001   0.697E-01    0.886E-01
RMM:   2    -0.413165554340E+03   -0.10890E-01   -0.13697E-01  3991   0.100E-01    0.641E-01
RMM:   3    -0.413164156488E+03    0.13979E-02   -0.65199E-03  4816   0.372E-02    0.158E-01
RMM:   4    -0.413189102694E+03   -0.24946E-01   -0.26052E-02  5214   0.134E-01    0.659E-01
RMM:   5    -0.413163726393E+03    0.25376E-01   -0.12594E-02  4854   0.111E-01    0.335E-02
RMM:   6    -0.413163885048E+03   -0.15866E-03   -0.19820E-03  5835   0.433E-02    0.172E-02
RMM:   7    -0.413163903375E+03   -0.18327E-04   -0.25364E-04  5879   0.131E-02    0.130E-02
RMM:   8    -0.413163909469E+03   -0.60936E-05   -0.32700E-05  4389   0.519E-03    0.742E-03
RMM:   9    -0.413163915380E+03   -0.59118E-05   -0.63949E-06  2991   0.281E-03    0.489E-03
RMM:  10    -0.413163922568E+03   -0.71879E-05   -0.20012E-06  2568   0.194E-03    0.273E-03
RMM:  11    -0.413163929856E+03   -0.72875E-05   -0.14132E-06  2534   0.168E-03    0.131E-03
RMM:  12    -0.413163934752E+03   -0.48962E-05   -0.83217E-07  2416   0.130E-03    0.421E-04
RMM:  13    -0.413163936157E+03   -0.14048E-05   -0.40629E-07  1950   0.908E-04    0.265E-04
RMM:  14    -0.413163937718E+03   -0.15610E-05   -0.27942E-07  1449   0.752E-04    0.160E-04
RMM:  15    -0.413163940307E+03   -0.25896E-05   -0.27273E-07  1489   0.748E-04    0.114E-04
RMM:  16    -0.413163940711E+03   -0.40363E-06   -0.15597E-07  1084   0.629E-04
    2 T=    61. E= -.41286622E+03 F= -.41316394E+03 E0= -.41314144E+03  EK= 0.29772E+00 SP= 0.00E+00 SK= 0.00E+00
       N       E                     dE             d eps       ncg     rms          rms(c)
RMM:   1    -0.413155892966E+03    0.80473E-02   -0.11151E+01  4190   0.703E-01    0.911E-01
RMM:   2    -0.413165577456E+03   -0.96845E-02   -0.13423E-01  3997   0.968E-02    0.633E-01
RMM:   3    -0.413164860923E+03    0.71653E-03   -0.69535E-03  4859   0.387E-02    0.167E-01
RMM:   4    -0.413193534318E+03   -0.28673E-01   -0.29135E-02  5187   0.143E-01    0.705E-01
RMM:   5    -0.413164465293E+03    0.29069E-01   -0.14159E-02  4831   0.118E-01    0.373E-02
RMM:   6    -0.413164642601E+03   -0.17731E-03   -0.22828E-03  5808   0.463E-02    0.196E-02
RMM:   7    -0.413164655164E+03   -0.12563E-04   -0.27727E-04  5891   0.139E-02    0.141E-02
RMM:   8    -0.413164655771E+03   -0.60629E-06   -0.36802E-05  4500   0.548E-03    0.824E-03
RMM:   9    -0.413164654962E+03    0.80821E-06   -0.66024E-06  3075   0.289E-03
    3 T=    61. E= -.41286671E+03 F= -.41316465E+03 E0= -.41314216E+03  EK= 0.29794E+00 SP= 0.00E+00 SK= 0.00E+00
       N       E                     dE             d eps       ncg     rms          rms(c)
RMM:   1    -0.413155411404E+03    0.92444E-02   -0.11064E+01  4228   0.706E-01    0.894E-01
RMM:   2    -0.413165631494E+03   -0.10220E-01   -0.13309E-01  4222   0.987E-02    0.627E-01
RMM:   3    -0.413168727563E+03   -0.30961E-02   -0.10004E-02  5177   0.703E-02    0.318E-01
RMM:   4    -0.413190583473E+03   -0.21856E-01   -0.38524E-02  5127   0.166E-01    0.675E-01
RMM:   5    -0.413164336626E+03    0.26247E-01   -0.10729E-02  4723   0.113E-01    0.536E-02
RMM:   6    -0.413164356722E+03   -0.20096E-04   -0.18372E-03  5528   0.428E-02    0.178E-02
RMM:   7    -0.413164377664E+03   -0.20941E-04   -0.27598E-04  6034   0.147E-02    0.123E-02
RMM:   8    -0.413164380407E+03   -0.27431E-05   -0.37451E-05  4856   0.580E-03    0.712E-03
RMM:   9    -0.413164381871E+03   -0.14637E-05   -0.79029E-06  3270   0.371E-03    0.362E-03
RMM:  10    -0.413164383277E+03   -0.14068E-05   -0.16297E-06  2546   0.206E-03    0.218E-03
RMM:  11    -0.413164385340E+03   -0.20624E-05   -0.10992E-06  2544   0.163E-03    0.116E-03
RMM:  12    -0.413164386352E+03   -0.10119E-05   -0.50407E-07  2306   0.113E-03    0.472E-04
RMM:  13    -0.413164387418E+03   -0.10663E-05   -0.36426E-07  1706   0.864E-04    0.228E-04
RMM:  14    -0.413164387922E+03   -0.50354E-06   -0.20450E-07  1383   0.727E-04
    4 T=    61. E= -.41286647E+03 F= -.41316439E+03 E0= -.41314190E+03  EK= 0.29792E+00 SP= 0.00E+00 SK= 0.00E+00
       N       E                     dE             d eps       ncg     rms          rms(c)
RMM:   1    -0.413155184814E+03    0.92026E-02   -0.11103E+01  4235   0.709E-01    0.884E-01
RMM:   2    -0.413165942178E+03   -0.10757E-01   -0.13715E-01  3977   0.951E-02    0.639E-01
RMM:   3    -0.413164788160E+03    0.11540E-02   -0.65117E-03  4910   0.373E-02    0.162E-01
RMM:   4    -0.413194446303E+03   -0.29658E-01   -0.30274E-02  5158   0.145E-01    0.718E-01
RMM:   5    -0.413164278383E+03    0.30168E-01   -0.14696E-02  4824   0.120E-01    0.360E-02
RMM:   6    -0.413164462626E+03   -0.18424E-03   -0.23103E-03  5778   0.468E-02    0.177E-02
RMM:   7    -0.413164480737E+03   -0.18110E-04   -0.28020E-04  5880   0.138E-02    0.134E-02
RMM:   8    -0.413164485830E+03   -0.50937E-05   -0.36624E-05  4493   0.544E-03    0.799E-03
RMM:   9    -0.413164490035E+03   -0.42049E-05   -0.64886E-06  3044   0.288E-03    0.536E-03
RMM:  10    -0.413164495979E+03   -0.59443E-05   -0.19287E-06  2549   0.200E-03    0.292E-03
RMM:  11    -0.413164501816E+03   -0.58368E-05   -0.14536E-06  2548   0.176E-03    0.142E-03
RMM:  12    -0.413164505528E+03   -0.37119E-05   -0.75721E-07  2436   0.134E-03    0.478E-04
RMM:  13    -0.413164506539E+03   -0.10110E-05   -0.31331E-07  1995   0.920E-04    0.303E-04
RMM:  14    -0.413164507645E+03   -0.11060E-05   -0.18947E-07  1467   0.753E-04    0.176E-04
RMM:  15    -0.413164509568E+03   -0.19224E-05   -0.23648E-07  1568   0.765E-04    0.145E-04
RMM:  16    -0.413164509732E+03   -0.16471E-06   -0.87187E-08  1057   0.618E-04
    5 T=    61. E= -.41286643E+03 F= -.41316451E+03 E0= -.41314203E+03  EK= 0.29808E+00 SP= 0.00E+00 SK= 0.00E+00
       N       E                     dE             d eps       ncg     rms          rms(c)
RMM:   1    -0.413156112550E+03    0.83970E-02   -0.11156E+01  4248   0.714E-01    0.906E-01
RMM:   2    -0.413166210689E+03   -0.10098E-01   -0.13428E-01  4097   0.973E-02    0.635E-01
RMM:   3    -0.413165307527E+03    0.90316E-03   -0.67614E-03  4832   0.373E-02    0.165E-01
RMM:   4    -0.413192641027E+03   -0.27333E-01   -0.27680E-02  5161   0.138E-01    0.690E-01
RMM:   5    -0.413164910593E+03    0.27730E-01   -0.13594E-02  4822   0.115E-01    0.359E-02
RMM:   6    -0.413165076467E+03   -0.16587E-03   -0.21439E-03  5782   0.447E-02    0.190E-02
RMM:   7    -0.413165087040E+03   -0.10573E-04   -0.25860E-04  5850   0.134E-02    0.137E-02
RMM:   8    -0.413165087701E+03   -0.66077E-06   -0.34040E-05  4464   0.537E-03    0.799E-03
RMM:   9    -0.413165087091E+03    0.60976E-06   -0.62908E-06  3013   0.288E-03
    6 T=    61. E= -.41286667E+03 F= -.41316509E+03 E0= -.41314262E+03  EK= 0.29842E+00 SP= 0.00E+00 SK= 0.00E+00
       N       E                     dE             d eps       ncg     rms          rms(c)
RMM:   1    -0.413155790325E+03    0.92974E-02   -0.11100E+01  4266   0.720E-01    0.902E-01
RMM:   2    -0.413165587870E+03   -0.97975E-02   -0.13354E-01  4269   0.103E-01    0.628E-01
RMM:   3    -0.413168751167E+03   -0.31633E-02   -0.10002E-02  5153   0.687E-02    0.312E-01
RMM:   4    -0.413191454168E+03   -0.22703E-01   -0.38620E-02  5115   0.166E-01    0.683E-01
RMM:   5    -0.413164612504E+03    0.26842E-01   -0.11091E-02  4729   0.113E-01    0.532E-02
RMM:   6    -0.413164645301E+03   -0.32798E-04   -0.18951E-03  5552   0.433E-02    0.179E-02
RMM:   7    -0.413164664410E+03   -0.19109E-04   -0.27553E-04  6034   0.147E-02    0.124E-02
RMM:   8    -0.413164665711E+03   -0.13010E-05   -0.37367E-05  4837   0.582E-03    0.713E-03
RMM:   9    -0.413164663848E+03    0.18627E-05   -0.75067E-06  3136   0.365E-03    0.356E-03
RMM:  10    -0.413164663827E+03    0.21540E-07   -0.16594E-06  2545   0.206E-03
    7 T=    61. E= -.41286620E+03 F= -.41316466E+03 E0= -.41314222E+03  EK= 0.29846E+00 SP= 0.00E+00 SK= 0.00E+00
       N       E                     dE             d eps       ncg     rms          rms(c)
RMM:   1    -0.413156670466E+03    0.79934E-02   -0.11103E+01  4271   0.736E-01    0.883E-01
RMM:   2    -0.413166776130E+03   -0.10106E-01   -0.13648E-01  4108   0.952E-02    0.637E-01
RMM:   3    -0.413165806953E+03    0.96918E-03   -0.66366E-03  4983   0.399E-02    0.173E-01
RMM:   4    -0.413203652711E+03   -0.37846E-01   -0.39256E-02  5151   0.164E-01    0.808E-01
RMM:   5    -0.413165156464E+03    0.38496E-01   -0.18682E-02  4811   0.135E-01    0.422E-02
RMM:   6    -0.413165365809E+03   -0.20934E-03   -0.29551E-03  5762   0.526E-02    0.180E-02
RMM:   7    -0.413165391025E+03   -0.25216E-04   -0.36152E-04  5932   0.153E-02    0.140E-02
RMM:   8    -0.413165395424E+03   -0.43993E-05   -0.42333E-05  4522   0.571E-03    0.813E-03
RMM:   9    -0.413165398626E+03   -0.32019E-05   -0.76398E-06  3084   0.298E-03    0.538E-03
RMM:  10    -0.413165403197E+03   -0.45713E-05   -0.22852E-06  2566   0.212E-03    0.285E-03
RMM:  11    -0.413165407384E+03   -0.41871E-05   -0.14556E-06  2539   0.176E-03    0.136E-03
RMM:  12    -0.413165409994E+03   -0.26101E-05   -0.80642E-07  2448   0.137E-03    0.425E-04
RMM:  13    -0.413165410966E+03   -0.97144E-06   -0.36338E-07  2010   0.955E-04
    8 T=    61. E= -.41286662E+03 F= -.41316541E+03 E0= -.41314298E+03  EK= 0.29879E+00 SP= 0.00E+00 SK= 0.00E+00
       N       E                     dE             d eps       ncg     rms          rms(c)
RMM:   1    -0.413156402694E+03    0.90073E-02   -0.11162E+01  4285   0.727E-01    0.901E-01
RMM:   2    -0.413166658032E+03   -0.10255E-01   -0.13563E-01  4171   0.101E-01    0.638E-01
RMM:   3    -0.413165651071E+03    0.10070E-02   -0.66458E-03  4735   0.367E-02    0.159E-01
RMM:   4    -0.413186738478E+03   -0.21087E-01   -0.21274E-02  5153   0.122E-01    0.608E-01
RMM:   5    -0.413165296057E+03    0.21442E-01   -0.10606E-02  4821   0.101E-01    0.312E-02
RMM:   6    -0.413165425432E+03   -0.12937E-03   -0.16465E-03  5815   0.390E-02    0.176E-02
RMM:   7    -0.413165433898E+03   -0.84658E-05   -0.19604E-04  5773   0.120E-02    0.125E-02
RMM:   8    -0.413165435112E+03   -0.12137E-05   -0.27424E-05  4340   0.503E-03    0.729E-03
RMM:   9    -0.413165435041E+03    0.70555E-07   -0.52723E-06  2923   0.278E-03
    9 T=    61. E= -.41286644E+03 F= -.41316544E+03 E0= -.41314303E+03  EK= 0.29899E+00 SP= 0.00E+00 SK= 0.00E+00
       N       E                     dE             d eps       ncg     rms          rms(c)
RMM:   1    -0.413156931592E+03    0.85035E-02   -0.11147E+01  4288   0.732E-01    0.909E-01
RMM:   2    -0.413166349890E+03   -0.94183E-02   -0.13369E-01  4282   0.981E-02    0.630E-01
RMM:   3    -0.413169687926E+03   -0.33380E-02   -0.10207E-02  5143   0.700E-02    0.314E-01
RMM:   4    -0.413191741152E+03   -0.22053E-01   -0.38075E-02  5103   0.165E-01    0.676E-01
RMM:   5    -0.413165569154E+03    0.26172E-01   -0.10844E-02  4723   0.112E-01    0.525E-02
RMM:   6    -0.413165601035E+03   -0.31881E-04   -0.18452E-03  5553   0.425E-02    0.183E-02
RMM:   7    -0.413165617752E+03   -0.16717E-04   -0.26526E-04  6025   0.144E-02    0.126E-02
RMM:   8    -0.413165617587E+03    0.16524E-06   -0.36537E-05  4827   0.578E-03    0.713E-03
RMM:   9    -0.413165613384E+03    0.42033E-05   -0.73179E-06  3076   0.359E-03    0.351E-03
RMM:  10    -0.413165612256E+03    0.11275E-05   -0.16220E-06  2539   0.204E-03    0.204E-03
RMM:  11    -0.413165610790E+03    0.14661E-05   -0.10343E-06  2534   0.157E-03    0.111E-03
RMM:  12    -0.413165609660E+03    0.11301E-05   -0.48478E-07  2230   0.109E-03    0.501E-04
RMM:  13    -0.413165608381E+03    0.12793E-05   -0.34231E-07  1768   0.877E-04    0.231E-04
RMM:  14    -0.413165607527E+03    0.85344E-06   -0.20753E-07  1418   0.739E-04
   10 T=    61. E= -.41286637E+03 F= -.41316561E+03 E0= -.41314322E+03  EK= 0.29923E+00 SP= 0.00E+00 SK= 0.00E+00
       N       E                     dE             d eps       ncg     rms          rms(c)
RMM:   1    -0.413156984738E+03    0.86236E-02   -0.11096E+01  4290   0.733E-01    0.884E-01
RMM:   2    -0.413167777335E+03   -0.10793E-01   -0.13543E-01  4215   0.982E-02    0.634E-01
RMM:   3    -0.413166732655E+03    0.10447E-02   -0.64669E-03  4904   0.398E-02    0.168E-01
RMM:   4    -0.413199258195E+03   -0.32526E-01   -0.33364E-02  5150   0.151E-01    0.751E-01
RMM:   5    -0.413166111120E+03    0.33147E-01   -0.16234E-02  4803   0.125E-01    0.381E-02
RMM:   6    -0.413166309722E+03   -0.19860E-03   -0.25984E-03  5777   0.488E-02    0.188E-02
RMM:   7    -0.413166325482E+03   -0.15760E-04   -0.30977E-04  5883   0.144E-02    0.141E-02
RMM:   8    -0.413166327411E+03   -0.19289E-05   -0.39548E-05  4566   0.565E-03    0.851E-03
RMM:   9    -0.413166327812E+03   -0.40107E-06   -0.73353E-06  3110   0.300E-03
   11 T=    61. E= -.41286665E+03 F= -.41316633E+03 E0= -.41314397E+03  EK= 0.29968E+00 SP= 0.00E+00 SK= 0.00E+00
       N       E                     dE             d eps       ncg     rms          rms(c)
RMM:   1    -0.413157286620E+03    0.90408E-02   -0.11178E+01  4295   0.750E-01    0.895E-01
RMM:   2    -0.413167514849E+03   -0.10228E-01   -0.13705E-01  4283   0.986E-02    0.641E-01
RMM:   3    -0.413170965957E+03   -0.34511E-02   -0.10408E-02  5144   0.728E-02    0.331E-01
RMM:   4    -0.413193942279E+03   -0.22976E-01   -0.41521E-02  5101   0.172E-01    0.694E-01
RMM:   5    -0.413166108678E+03    0.27834E-01   -0.11364E-02  4706   0.115E-01    0.535E-02
RMM:   6    -0.413166143198E+03   -0.34520E-04   -0.19599E-03  5521   0.437E-02    0.167E-02
RMM:   7    -0.413166165442E+03   -0.22243E-04   -0.27936E-04  6031   0.149E-02    0.121E-02
RMM:   8    -0.413166168492E+03   -0.30502E-05   -0.38305E-05  4860   0.581E-03    0.704E-03
RMM:   9    -0.413166170532E+03   -0.20406E-05   -0.80415E-06  3268   0.378E-03    0.379E-03
RMM:  10    -0.413166172021E+03   -0.14890E-05   -0.17644E-06  2544   0.208E-03    0.226E-03
RMM:  11    -0.413166173748E+03   -0.17269E-05   -0.12682E-06  2552   0.169E-03    0.119E-03
RMM:  12    -0.413166174444E+03   -0.69549E-06   -0.53299E-07  2359   0.117E-03
   12 T=    61. E= -.41286624E+03 F= -.41316617E+03 E0= -.41314384E+03  EK= 0.29993E+00 SP= 0.00E+00 SK= 0.00E+00
       N       E                     dE             d eps       ncg     rms          rms(c)
RMM:   1    -0.413158056798E+03    0.81170E-02   -0.11198E+01  4299   0.746E-01    0.914E-01
RMM:   2    -0.413167715912E+03   -0.96591E-02   -0.13396E-01  4222   0.943E-02    0.632E-01
RMM:   3    -0.413167358628E+03    0.35728E-03   -0.71355E-03  5016   0.399E-02    0.182E-01
RMM:   4    -0.413205928620E+03   -0.38570E-01   -0.40253E-02  5149   0.166E-01    0.816E-01
RMM:   5    -0.413166660742E+03    0.39268E-01   -0.19127E-02  4797   0.137E-01    0.433E-02
RMM:   6    -0.413166872649E+03   -0.21191E-03   -0.30081E-03  5756   0.531E-02    0.210E-02
RMM:   7    -0.413166886465E+03   -0.13816E-04   -0.36386E-04  5927   0.157E-02    0.155E-02
RMM:   8    -0.413166884229E+03    0.22356E-05   -0.47086E-05  4768   0.610E-03    0.939E-03
RMM:   9    -0.413166879189E+03    0.50406E-05   -0.82642E-06  3178   0.311E-03    0.608E-03
RMM:  10    -0.413166875097E+03    0.40915E-05   -0.22814E-06  2555   0.216E-03    0.320E-03
RMM:  11    -0.413166871662E+03    0.34352E-05   -0.15716E-06  2542   0.188E-03    0.150E-03
RMM:  12    -0.413166868909E+03    0.27532E-05   -0.82064E-07  2454   0.144E-03    0.469E-04
RMM:  13    -0.413166868099E+03    0.80996E-06   -0.34598E-07  2107   0.987E-04
   13 T=    61. E= -.41286637E+03 F= -.41316687E+03 E0= -.41314457E+03  EK= 0.30050E+00 SP= 0.00E+00 SK= 0.00E+00
       N       E                     dE             d eps       ncg     rms          rms(c)
RMM:   1    -0.413158108529E+03    0.87604E-02   -0.11117E+01  4295   0.745E-01    0.888E-01
RMM:   2    -0.413168558569E+03   -0.10450E-01   -0.13581E-01  4235   0.957E-02    0.632E-01
RMM:   3    -0.413167713105E+03    0.84546E-03   -0.65290E-03  4899   0.369E-02    0.167E-01
RMM:   4    -0.413197595658E+03   -0.29883E-01   -0.30587E-02  5144   0.145E-01    0.721E-01
RMM:   5    -0.413167175652E+03    0.30420E-01   -0.14993E-02  4803   0.120E-01    0.360E-02
RMM:   6    -0.413167354817E+03   -0.17917E-03   -0.23056E-03  5795   0.466E-02    0.187E-02
RMM:   7    -0.413167365746E+03   -0.10929E-04   -0.27442E-04  5871   0.140E-02    0.137E-02
RMM:   8    -0.413167365467E+03    0.27920E-06   -0.37767E-05  4582   0.560E-03    0.839E-03
RMM:   9    -0.413167363219E+03    0.22477E-05   -0.69155E-06  3085   0.299E-03    0.566E-03
RMM:  10    -0.413167362417E+03    0.80154E-06   -0.19036E-06  2546   0.203E-03
   14 T=    61. E= -.41286638E+03 F= -.41316736E+03 E0= -.41314509E+03  EK= 0.30098E+00 SP= 0.00E+00 SK= 0.00E+00
       N       E                     dE             d eps       ncg     rms          rms(c)
RMM:   1    -0.413158112265E+03    0.92510E-02   -0.11204E+01  4306   0.754E-01    0.892E-01
RMM:   2    -0.413169268856E+03   -0.11157E-01   -0.13823E-01  4294   0.985E-02    0.643E-01
RMM:   3    -0.413170755384E+03   -0.14865E-02   -0.89833E-03  5116   0.635E-02    0.284E-01
RMM:   4    -0.413203719586E+03   -0.32964E-01   -0.46991E-02  5104   0.181E-01    0.787E-01
RMM:   5    -0.413167447753E+03    0.36272E-01   -0.15697E-02  4738   0.130E-01    0.513E-02
RMM:   6    -0.413167555349E+03   -0.10760E-03   -0.25352E-03  5635   0.497E-02    0.157E-02
RMM:   7    -0.413167581632E+03   -0.26283E-04   -0.32395E-04  6016   0.152E-02    0.123E-02
RMM:   8    -0.413167584857E+03   -0.32250E-05   -0.42164E-05  4847   0.594E-03    0.702E-03
RMM:   9    -0.413167585930E+03   -0.10737E-05   -0.70820E-06  2961   0.324E-03    0.333E-03
RMM:  10    -0.413167587352E+03   -0.14215E-05   -0.21634E-06  2556   0.203E-03    0.195E-03
RMM:  11    -0.413167588541E+03   -0.11888E-05   -0.10527E-06  2530   0.148E-03    0.969E-04
RMM:  12    -0.413167589104E+03   -0.56341E-06   -0.53513E-07  2023   0.108E-03
   15 T=    61. E= -.41286630E+03 F= -.41316759E+03 E0= -.41314535E+03  EK= 0.30129E+00 SP= 0.00E+00 SK= 0.00E+00
       N       E                     dE             d eps       ncg     rms          rms(c)
RMM:   1    -0.413164906062E+03    0.26825E-02   -0.11295E+01  4302   0.796E-01    0.916E-01
RMM:   2    -0.413169506916E+03   -0.46009E-02   -0.13658E-01  4245   0.101E-01    0.635E-01
RMM:   3    -0.413168918614E+03    0.58830E-03   -0.70479E-03  4939   0.404E-02    0.177E-01
RMM:   4    -0.413203957749E+03   -0.35039E-01   -0.36064E-02  5147   0.158E-01    0.779E-01
RMM:   5    -0.413168277565E+03    0.35680E-01   -0.17418E-02  4802   0.130E-01    0.404E-02
RMM:   6    -0.413168478559E+03   -0.20099E-03   -0.27675E-03  5796   0.507E-02    0.207E-02
RMM:   7    -0.413168487713E+03   -0.91540E-05   -0.32545E-04  5915   0.152E-02    0.151E-02
RMM:   8    -0.413168484064E+03    0.36483E-05   -0.43862E-05  4729   0.601E-03    0.939E-03
RMM:   9    -0.413168478025E+03    0.60396E-05   -0.78588E-06  3171   0.313E-03    0.624E-03
RMM:  10    -0.413168473170E+03    0.48554E-05   -0.21273E-06  2551   0.216E-03    0.335E-03
RMM:  11    -0.413168468816E+03    0.43535E-05   -0.16854E-06  2543   0.196E-03    0.158E-03
RMM:  12    -0.413168465526E+03    0.32905E-05   -0.82334E-07  2460   0.148E-03    0.510E-04
RMM:  13    -0.413168464649E+03    0.87648E-06   -0.33818E-07  2121   0.984E-04
   16 T=    61. E= -.41286656E+03 F= -.41316846E+03 E0= -.41314627E+03  EK= 0.30191E+00 SP= 0.00E+00 SK= 0.00E+00
       N       E                     dE             d eps       ncg     rms          rms(c)
RMM:   1    -0.413159885805E+03    0.85797E-02   -0.11159E+01  4300   0.758E-01    0.895E-01
RMM:   2    -0.413170178028E+03   -0.10292E-01   -0.13588E-01  4256   0.996E-02    0.632E-01
RMM:   3    -0.413169250899E+03    0.92713E-03   -0.66663E-03  4891   0.422E-02    0.174E-01
RMM:   4    -0.413203723413E+03   -0.34473E-01   -0.35327E-02  5141   0.156E-01    0.772E-01
RMM:   5    -0.413168711151E+03    0.35012E-01   -0.17188E-02  4799   0.129E-01    0.392E-02
RMM:   6    -0.413168913900E+03   -0.20275E-03   -0.27352E-03  5795   0.501E-02    0.200E-02
RMM:   7    -0.413168925105E+03   -0.11205E-04   -0.31900E-04  5908   0.149E-02    0.147E-02
RMM:   8    -0.413168923121E+03    0.19841E-05   -0.42081E-05  4665   0.584E-03    0.906E-03
RMM:   9    -0.413168918833E+03    0.42884E-05   -0.77723E-06  3159   0.307E-03    0.606E-03
RMM:  10    -0.413168915616E+03    0.32170E-05   -0.20886E-06  2550   0.212E-03    0.327E-03
RMM:  11    -0.413168912703E+03    0.29123E-05   -0.16164E-06  2535   0.191E-03    0.158E-03
RMM:  12    -0.413168910383E+03    0.23206E-05   -0.80209E-07  2455   0.144E-03    0.513E-04
RMM:  13    -0.413168909713E+03    0.66989E-06   -0.33293E-07  2115   0.972E-04
   17 T=    62. E= -.41286646E+03 F= -.41316891E+03 E0= -.41314675E+03  EK= 0.30245E+00 SP= 0.00E+00 SK= 0.00E+00
       N       E                     dE             d eps       ncg     rms          rms(c)
RMM:   1    -0.413160036044E+03    0.88743E-02   -0.11236E+01  4300   0.767E-01    0.890E-01
RMM:   2    -0.413171201239E+03   -0.11165E-01   -0.13854E-01  4271   0.102E-01    0.644E-01
RMM:   3    -0.413169945119E+03    0.12561E-02   -0.65712E-03  4927   0.401E-02    0.171E-01
RMM:   4    -0.413206196862E+03   -0.36252E-01   -0.37546E-02  5139   0.161E-01    0.792E-01
RMM:   5    -0.413169246416E+03    0.36950E-01   -0.18078E-02  4796   0.132E-01    0.397E-02
RMM:   6    -0.413169458487E+03   -0.21207E-03   -0.28828E-03  5782   0.513E-02    0.192E-02
RMM:   7    -0.413169474663E+03   -0.16176E-04   -0.33485E-04  5904   0.152E-02    0.145E-02
RMM:   8    -0.413169475327E+03   -0.66406E-06   -0.44144E-05  4702   0.594E-03    0.898E-03
RMM:   9    -0.413169473868E+03    0.14591E-05   -0.81060E-06  3175   0.313E-03    0.601E-03
RMM:  10    -0.413169474144E+03   -0.27591E-06   -0.22569E-06  2557   0.217E-03
   18 T=    62. E= -.41286637E+03 F= -.41316947E+03 E0= -.41314736E+03  EK= 0.30311E+00 SP= 0.00E+00 SK= 0.00E+00
       N       E                     dE             d eps       ncg     rms          rms(c)
RMM:   1    -0.413161781519E+03    0.76923E-02   -0.11295E+01  4301   0.770E-01    0.914E-01
RMM:   2    -0.413171598933E+03   -0.98174E-02   -0.13704E-01  4317   0.990E-02    0.639E-01
RMM:   3    -0.413174580125E+03   -0.29812E-02   -0.99839E-03  5118   0.691E-02    0.312E-01
RMM:   4    -0.413199297284E+03   -0.24717E-01   -0.40936E-02  5087   0.170E-01    0.706E-01
RMM:   5    -0.413170446300E+03    0.28851E-01   -0.11986E-02  4710   0.117E-01    0.498E-02
RMM:   6    -0.413170511989E+03   -0.65689E-04   -0.20234E-03  5590   0.441E-02    0.175E-02
RMM:   7    -0.413170525478E+03   -0.13489E-04   -0.26415E-04  5989   0.141E-02    0.124E-02
RMM:   8    -0.413170523002E+03    0.24759E-05   -0.35967E-05  4783   0.570E-03    0.689E-03
RMM:   9    -0.413170515404E+03    0.75976E-05   -0.64621E-06  2896   0.326E-03    0.318E-03
RMM:  10    -0.413170512371E+03    0.30338E-05   -0.17535E-06  2541   0.193E-03    0.182E-03
RMM:  11    -0.413170508524E+03    0.38468E-05   -0.90260E-07  2509   0.146E-03    0.994E-04
RMM:  12    -0.413170506072E+03    0.24515E-05   -0.44991E-07  2065   0.105E-03    0.503E-04
RMM:  13    -0.413170503461E+03    0.26117E-05   -0.30855E-07  1790   0.887E-04    0.228E-04
RMM:  14    -0.413170501914E+03    0.15462E-05   -0.18012E-07  1415   0.732E-04    0.145E-04
RMM:  15    -0.413170498811E+03    0.31033E-05   -0.21719E-07  1666   0.768E-04    0.131E-04
RMM:  16    -0.413170497282E+03    0.15293E-05   -0.11445E-07  1248   0.632E-04    0.118E-04
RMM:  17    -0.413170495400E+03    0.18819E-05   -0.96255E-08  1228   0.612E-04    0.512E-05
RMM:  18    -0.413170493770E+03    0.16302E-05   -0.67285E-08  1040   0.565E-04    0.288E-05
RMM:  19    -0.413170493191E+03    0.57844E-06   -0.33017E-08   814   0.521E-04
   19 T=    62. E= -.41286648E+03 F= -.41317049E+03 E0= -.41314842E+03  EK= 0.30401E+00 SP= 0.00E+00 SK= 0.00E+00
       N       E                     dE             d eps       ncg     rms          rms(c)
RMM:   1    -0.413163880642E+03    0.66131E-02   -0.11264E+01  4299   0.799E-01    0.905E-01
RMM:   2    -0.413172162054E+03   -0.82814E-02   -0.13715E-01  4261   0.102E-01    0.633E-01
RMM:   3    -0.413171589305E+03    0.57275E-03   -0.68677E-03  4977   0.414E-02    0.185E-01
RMM:   4    -0.413211467252E+03   -0.39878E-01   -0.41849E-02  5145   0.169E-01    0.829E-01
RMM:   5    -0.413170850532E+03    0.40617E-01   -0.19863E-02  4795   0.139E-01    0.433E-02
RMM:   6    -0.413171061674E+03   -0.21114E-03   -0.31197E-03  5773   0.538E-02    0.208E-02
RMM:   7    -0.413171073705E+03   -0.12031E-04   -0.36834E-04  5887   0.159E-02    0.154E-02
RMM:   8    -0.413171070530E+03    0.31747E-05   -0.48988E-05  4820   0.624E-03    0.942E-03
RMM:   9    -0.413171064312E+03    0.62183E-05   -0.86403E-06  3223   0.319E-03    0.615E-03
RMM:  10    -0.413171059155E+03    0.51570E-05   -0.22350E-06  2541   0.218E-03    0.324E-03
RMM:  11    -0.413171054981E+03    0.41743E-05   -0.15180E-06  2524   0.188E-03    0.156E-03
RMM:  12    -0.413171051828E+03    0.31532E-05   -0.76877E-07  2450   0.144E-03    0.488E-04
RMM:  13    -0.413171050904E+03    0.92360E-06   -0.33498E-07  2122   0.989E-04
   20 T=    62. E= -.41286629E+03 F= -.41317105E+03 E0= -.41314902E+03  EK= 0.30477E+00 SP= 0.00E+00 SK= 0.00E+00
       N       E                     dE             d eps       ncg     rms          rms(c)
RMM:   1    -0.413162616536E+03    0.84353E-02   -0.11287E+01  4299   0.783E-01    0.890E-01
RMM:   2    -0.413173551798E+03   -0.10935E-01   -0.14010E-01  4273   0.101E-01    0.644E-01
RMM:   3    -0.413172449401E+03    0.11024E-02   -0.66185E-03  4941   0.408E-02    0.174E-01
RMM:   4    -0.413209547979E+03   -0.37099E-01   -0.38511E-02  5138   0.163E-01    0.801E-01
RMM:   5    -0.413171703737E+03    0.37844E-01   -0.18571E-02  4798   0.134E-01    0.399E-02
RMM:   6    -0.413171917277E+03   -0.21354E-03   -0.29598E-03  5792   0.524E-02    0.194E-02
RMM:   7    -0.413171932782E+03   -0.15504E-04   -0.34274E-04  5915   0.154E-02    0.146E-02
RMM:   8    -0.413171932409E+03    0.37217E-06   -0.46456E-05  4761   0.608E-03    0.927E-03
RMM:   9    -0.413171929382E+03    0.30273E-05   -0.83979E-06  3209   0.319E-03    0.622E-03
RMM:  10    -0.413171928020E+03    0.13626E-05   -0.23006E-06  2554   0.221E-03    0.334E-03
RMM:  11    -0.413171926940E+03    0.10796E-05   -0.17981E-06  2558   0.198E-03    0.163E-03
RMM:  12    -0.413171925898E+03    0.10421E-05   -0.82151E-07  2455   0.147E-03    0.533E-04
RMM:  13    -0.413171925535E+03    0.36292E-06   -0.34045E-07  2119   0.984E-04
   21 T=    62. E= -.41286628E+03 F= -.41317193E+03 E0= -.41314994E+03  EK= 0.30565E+00 SP= 0.00E+00 SK= 0.00E+00
       N       E                     dE             d eps       ncg     rms          rms(c)
RMM:   1    -0.413163801968E+03    0.81239E-02   -0.11362E+01  4298   0.782E-01    0.912E-01
RMM:   2    -0.413174355047E+03   -0.10553E-01   -0.13899E-01  4282   0.987E-02    0.644E-01
RMM:   3    -0.413173505244E+03    0.84980E-03   -0.68139E-03  4909   0.399E-02    0.175E-01
RMM:   4    -0.413208105929E+03   -0.34601E-01   -0.35560E-02  5144   0.157E-01    0.773E-01
RMM:   5    -0.413172951401E+03    0.35155E-01   -0.17282E-02  4796   0.129E-01    0.393E-02
RMM:   6    -0.413173142676E+03   -0.19128E-03   -0.27303E-03  5798   0.501E-02    0.201E-02
RMM:   7    -0.413173152821E+03   -0.10144E-04   -0.31317E-04  5892   0.149E-02    0.147E-02
RMM:   8    -0.413173149860E+03    0.29606E-05   -0.43825E-05  4748   0.601E-03    0.917E-03
RMM:   9    -0.413173143790E+03    0.60703E-05   -0.79646E-06  3194   0.317E-03    0.606E-03
RMM:  10    -0.413173139040E+03    0.47492E-05   -0.20567E-06  2548   0.213E-03    0.330E-03
RMM:  11    -0.413173134443E+03    0.45973E-05   -0.16151E-06  2528   0.195E-03    0.159E-03
RMM:  12    -0.413173131016E+03    0.34275E-05   -0.77366E-07  2452   0.145E-03    0.509E-04
RMM:  13    -0.413173130094E+03    0.92157E-06   -0.32053E-07  2111   0.967E-04
   22 T=    62. E= -.41286654E+03 F= -.41317313E+03 E0= -.41315119E+03  EK= 0.30659E+00 SP= 0.00E+00 SK= 0.00E+00
       N       E                     dE             d eps       ncg     rms          rms(c)
RMM:   1    -0.413164882916E+03    0.82481E-02   -0.11353E+01  4300   0.790E-01    0.915E-01
RMM:   2    -0.413174850130E+03   -0.99672E-02   -0.13752E-01  4278   0.107E-01    0.636E-01
RMM:   3    -0.413174210681E+03    0.63945E-03   -0.69558E-03  4883   0.429E-02    0.178E-01
RMM:   4    -0.413208921548E+03   -0.34711E-01   -0.35606E-02  5145   0.157E-01    0.774E-01
RMM:   5    -0.413173615480E+03    0.35306E-01   -0.17260E-02  4796   0.130E-01    0.401E-02
RMM:   6    -0.413173806639E+03   -0.19116E-03   -0.28161E-03  5802   0.504E-02    0.211E-02
RMM:   7    -0.413173813667E+03   -0.70282E-05   -0.31299E-04  5892   0.150E-02    0.151E-02
RMM:   8    -0.413173808713E+03    0.49536E-05   -0.44603E-05  4766   0.611E-03    0.957E-03
RMM:   9    -0.413173800307E+03    0.84064E-05   -0.84396E-06  3261   0.328E-03    0.630E-03
RMM:  10    -0.413173793134E+03    0.71729E-05   -0.21136E-06  2553   0.220E-03    0.344E-03
RMM:  11    -0.413173785938E+03    0.71959E-05   -0.17476E-06  2538   0.202E-03    0.167E-03
RMM:  12    -0.413173780625E+03    0.53132E-05   -0.80462E-07  2464   0.150E-03    0.547E-04
RMM:  13    -0.413173779253E+03    0.13717E-05   -0.33510E-07  2143   0.991E-04    0.363E-04
RMM:  14    -0.413173777624E+03    0.16291E-05   -0.17134E-07  1571   0.757E-04    0.209E-04
RMM:  15    -0.413173773115E+03    0.45095E-05   -0.19812E-07  1805   0.789E-04    0.243E-04
RMM:  16    -0.413173772479E+03    0.63569E-06   -0.67006E-08  1006   0.594E-04
   23 T=    63. E= -.41286632E+03 F= -.41317377E+03 E0= -.41315188E+03  EK= 0.30745E+00 SP= 0.00E+00 SK= 0.00E+00
       N       E                     dE             d eps       ncg     rms          rms(c)
RMM:   1    -0.413165798880E+03    0.79742E-02   -0.11347E+01  4293   0.792E-01    0.893E-01
RMM:   2    -0.413176979904E+03   -0.11181E-01   -0.14087E-01  4275   0.105E-01    0.644E-01
RMM:   3    -0.413175595309E+03    0.13846E-02   -0.65014E-03  4810   0.406E-02    0.169E-01
RMM:   4    -0.413204556370E+03   -0.28961E-01   -0.29458E-02  5149   0.143E-01    0.708E-01
RMM:   5    -0.413175166587E+03    0.29390E-01   -0.14510E-02  4805   0.118E-01    0.351E-02
RMM:   6    -0.413175323607E+03   -0.15702E-03   -0.23068E-03  5811   0.454E-02    0.187E-02
RMM:   7    -0.413175332930E+03   -0.93232E-05   -0.24954E-04  5818   0.135E-02    0.131E-02
RMM:   8    -0.413175331746E+03    0.11849E-05   -0.38462E-05  4683   0.567E-03    0.867E-03
RMM:   9    -0.413175327137E+03    0.46085E-05   -0.75817E-06  3232   0.317E-03    0.578E-03
RMM:  10    -0.413175324642E+03    0.24948E-05   -0.18345E-06  2541   0.208E-03    0.325E-03
RMM:  11    -0.413175322244E+03    0.23984E-05   -0.16142E-06  2533   0.194E-03    0.160E-03
RMM:  12    -0.413175320333E+03    0.19109E-05   -0.75161E-07  2439   0.143E-03    0.537E-04
RMM:  13    -0.413175319849E+03    0.48372E-06   -0.29328E-07  2059   0.933E-04
   24 T=    63. E= -.41286663E+03 F= -.41317532E+03 E0= -.41315347E+03  EK= 0.30869E+00 SP= 0.00E+00 SK= 0.00E+00
       N       E                     dE             d eps       ncg     rms          rms(c)
RMM:   1    -0.413166962772E+03    0.83576E-02   -0.11456E+01  4298   0.800E-01    0.909E-01
RMM:   2    -0.413177964223E+03   -0.11001E-01   -0.14074E-01  4275   0.107E-01    0.649E-01
RMM:   3    -0.413176645105E+03    0.13191E-02   -0.66834E-03  4827   0.425E-02    0.172E-01
RMM:   4    -0.413208102840E+03   -0.31458E-01   -0.31890E-02  5146   0.149E-01    0.737E-01
RMM:   5    -0.413176172460E+03    0.31930E-01   -0.15690E-02  4804   0.123E-01    0.367E-02
RMM:   6    -0.413176342296E+03   -0.16984E-03   -0.25207E-03  5814   0.476E-02    0.196E-02
RMM:   7    -0.413176351593E+03   -0.92969E-05   -0.26909E-04  5841   0.140E-02    0.136E-02
RMM:   8    -0.413176349264E+03    0.23284E-05   -0.41337E-05  4744   0.585E-03    0.919E-03
RMM:   9    -0.413176343127E+03    0.61370E-05   -0.83176E-06  3316   0.329E-03    0.611E-03
RMM:  10    -0.413176339004E+03    0.41234E-05   -0.19810E-06  2545   0.217E-03    0.340E-03
RMM:  11    -0.413176334858E+03    0.41462E-05   -0.17622E-06  2546   0.202E-03    0.168E-03
RMM:  12    -0.413176331761E+03    0.30972E-05   -0.76327E-07  2455   0.147E-03    0.549E-04
RMM:  13    -0.413176330940E+03    0.82060E-06   -0.30888E-07  2097   0.957E-04
   25 T=    63. E= -.41286651E+03 F= -.41317633E+03 E0= -.41315453E+03  EK= 0.30983E+00 SP= 0.00E+00 SK= 0.00E+00
       N       E                     dE             d eps       ncg     rms          rms(c)
RMM:   1    -0.413168479620E+03    0.78521E-02   -0.11485E+01  4294   0.809E-01    0.924E-01
RMM:   2    -0.413178459690E+03   -0.99801E-02   -0.13971E-01  4274   0.108E-01    0.641E-01
RMM:   3    -0.413177723213E+03    0.73648E-03   -0.69587E-03  4793   0.420E-02    0.174E-01
RMM:   4    -0.413205691469E+03   -0.27968E-01   -0.28212E-02  5151   0.140E-01    0.697E-01
RMM:   5    -0.413177340536E+03    0.28351E-01   -0.14091E-02  4805   0.116E-01    0.361E-02
RMM:   6    -0.413177486029E+03   -0.14549E-03   -0.22299E-03  5815   0.449E-02    0.199E-02
RMM:   7    -0.413177490476E+03   -0.44466E-05   -0.23264E-04  5765   0.132E-02    0.128E-02
RMM:   8    -0.413177485274E+03    0.52020E-05   -0.37365E-05  4666   0.560E-03    0.893E-03
RMM:   9    -0.413177476565E+03    0.87095E-05   -0.83158E-06  3364   0.329E-03    0.599E-03
RMM:  10    -0.413177469347E+03    0.72179E-05   -0.17685E-06  2536   0.213E-03    0.341E-03
RMM:  11    -0.413177460815E+03    0.85316E-05   -0.17103E-06  2536   0.203E-03    0.165E-03
RMM:  12    -0.413177454537E+03    0.62779E-05   -0.73213E-07  2450   0.147E-03    0.526E-04
RMM:  13    -0.413177453110E+03    0.14274E-05   -0.28748E-07  2073   0.940E-04    0.363E-04
RMM:  14    -0.413177451187E+03    0.19231E-05   -0.14182E-07  1494   0.726E-04    0.205E-04
RMM:  15    -0.413177446013E+03    0.51738E-05   -0.16658E-07  1812   0.770E-04    0.282E-04
RMM:  16    -0.413177445256E+03    0.75690E-06   -0.52198E-08   947   0.572E-04
   26 T=    63. E= -.41286631E+03 F= -.41317745E+03 E0= -.41315570E+03  EK= 0.31114E+00 SP= 0.00E+00 SK= 0.00E+00
       N       E                     dE             d eps       ncg     rms          rms(c)
RMM:   1    -0.413169801518E+03    0.76445E-02   -0.11453E+01  4293   0.814E-01    0.900E-01
RMM:   2    -0.413180675283E+03   -0.10874E-01   -0.14148E-01  4277   0.104E-01    0.644E-01
RMM:   3    -0.413179695054E+03    0.98023E-03   -0.66067E-03  4757   0.425E-02    0.172E-01
RMM:   4    -0.413206710978E+03   -0.27016E-01   -0.27192E-02  5151   0.138E-01    0.685E-01
RMM:   5    -0.413179313621E+03    0.27397E-01   -0.13643E-02  4809   0.114E-01    0.340E-02
RMM:   6    -0.413179453096E+03   -0.13948E-03   -0.21011E-03  5820   0.438E-02    0.187E-02
RMM:   7    -0.413179459654E+03   -0.65578E-05   -0.22436E-04  5786   0.131E-02    0.126E-02
RMM:   8    -0.413179456977E+03    0.26769E-05   -0.36211E-05  4653   0.559E-03    0.851E-03
RMM:   9    -0.413179450770E+03    0.62071E-05   -0.76445E-06  3284   0.323E-03    0.564E-03
RMM:  10    -0.413179446667E+03    0.41023E-05   -0.17307E-06  2537   0.208E-03    0.320E-03
RMM:  11    -0.413179442333E+03    0.43338E-05   -0.15710E-06  2526   0.194E-03    0.156E-03
RMM:  12    -0.413179439048E+03    0.32855E-05   -0.69799E-07  2436   0.141E-03    0.510E-04
RMM:  13    -0.413179438301E+03    0.74710E-06   -0.27121E-07  2012   0.910E-04
   27 T=    64. E= -.41286663E+03 F= -.41317944E+03 E0= -.41315774E+03  EK= 0.31281E+00 SP= 0.00E+00 SK= 0.00E+00
       N       E                     dE             d eps       ncg     rms          rms(c)
RMM:   1    -0.413171814101E+03    0.76249E-02   -0.11595E+01  4295   0.843E-01    0.908E-01
RMM:   2    -0.413181843646E+03   -0.10030E-01   -0.14475E-01  4272   0.110E-01    0.655E-01
RMM:   3    -0.413180658068E+03    0.11856E-02   -0.67064E-03  4680   0.428E-02    0.167E-01
RMM:   4    -0.413201997951E+03   -0.21340E-01   -0.21587E-02  5152   0.124E-01    0.612E-01
RMM:   5    -0.413180248608E+03    0.21749E-01   -0.10766E-02  4803   0.101E-01    0.307E-02
RMM:   6    -0.413180358587E+03   -0.10998E-03   -0.17133E-03  5833   0.387E-02    0.172E-02
RMM:   7    -0.413180363282E+03   -0.46957E-05   -0.16405E-04  5553   0.113E-02    0.103E-02
RMM:   8    -0.413180359075E+03    0.42073E-05   -0.22311E-05  3981   0.448E-03    0.675E-03
RMM:   9    -0.413180354454E+03    0.46213E-05   -0.56678E-06  2986   0.283E-03    0.456E-03
RMM:  10    -0.413180352587E+03    0.18665E-05   -0.15159E-06  2538   0.193E-03    0.297E-03
RMM:  11    -0.413180348086E+03    0.45008E-05   -0.13496E-06  2515   0.184E-03    0.143E-03
RMM:  12    -0.413180345291E+03    0.27955E-05   -0.60250E-07  2388   0.131E-03    0.573E-04
RMM:  13    -0.413180344342E+03    0.94842E-06   -0.22834E-07  1918   0.865E-04
   28 T=    64. E= -.41286610E+03 F= -.41318034E+03 E0= -.41315870E+03  EK= 0.31424E+00 SP= 0.00E+00 SK= 0.00E+00
       N       E                     dE             d eps       ncg     rms          rms(c)
RMM:   1    -0.413173573116E+03    0.67722E-02   -0.11659E+01  4294   0.839E-01    0.933E-01
RMM:   2    -0.413183552308E+03   -0.99792E-02   -0.14283E-01  4274   0.110E-01    0.647E-01
RMM:   3    -0.413182623348E+03    0.92896E-03   -0.70234E-03  4469   0.404E-02    0.168E-01
RMM:   4    -0.413190801139E+03   -0.81778E-02   -0.84346E-03  5169   0.777E-02    0.379E-01
RMM:   5    -0.413182645702E+03    0.81554E-02   -0.40397E-03  4832   0.618E-02    0.254E-02
RMM:   6    -0.413182668026E+03   -0.22324E-04   -0.66573E-04  5853   0.239E-02    0.168E-02
RMM:   7    -0.413182663276E+03    0.47499E-05   -0.95275E-05  5403   0.937E-03    0.999E-03
RMM:   8    -0.413182652710E+03    0.10566E-04   -0.12151E-05  3653   0.411E-03    0.448E-03
RMM:   9    -0.413182646885E+03    0.58248E-05   -0.25183E-06  2659   0.224E-03    0.319E-03
RMM:  10    -0.413182640717E+03    0.61680E-05   -0.75129E-07  2483   0.147E-03    0.190E-03
RMM:  11    -0.413182632992E+03    0.77253E-05   -0.62186E-07  2437   0.129E-03    0.792E-04
RMM:  12    -0.413182627795E+03    0.51970E-05   -0.31671E-07  2034   0.946E-04    0.301E-04
RMM:  13    -0.413182625863E+03    0.19312E-05   -0.14538E-07  1356   0.710E-04    0.180E-04
RMM:  14    -0.413182622642E+03    0.32216E-05   -0.99967E-08  1173   0.665E-04    0.100E-04
RMM:  15    -0.413182618080E+03    0.45619E-05   -0.98998E-08  1333   0.680E-04    0.116E-04
RMM:  16    -0.413182617114E+03    0.96581E-06   -0.46672E-08   955   0.584E-04
   29 T=    64. E= -.41286655E+03 F= -.41318262E+03 E0= -.41316102E+03  EK= 0.31607E+00 SP= 0.00E+00 SK= 0.00E+00
       N       E                     dE             d eps       ncg     rms          rms(c)
RMM:   1    -0.413174731321E+03    0.78868E-02   -0.11612E+01  4291   0.841E-01    0.910E-01
RMM:   2    -0.413185665114E+03   -0.10934E-01   -0.14489E-01  4270   0.109E-01    0.646E-01
RMM:   3    -0.413184406690E+03    0.12584E-02   -0.67213E-03  4436   0.443E-02    0.167E-01
RMM:   4    -0.413191681905E+03   -0.72752E-02   -0.77490E-03  5142   0.769E-02    0.360E-01
RMM:   5    -0.413184311557E+03    0.73703E-02   -0.36431E-03  4823   0.588E-02    0.233E-02
RMM:   6    -0.413184325702E+03   -0.14145E-04   -0.55720E-04  5821   0.226E-02    0.159E-02
RMM:   7    -0.413184322170E+03    0.35320E-05   -0.83244E-05  5334   0.899E-03    0.911E-03
RMM:   8    -0.413184313804E+03    0.83659E-05   -0.10712E-05  3449   0.395E-03    0.398E-03
RMM:   9    -0.413184310032E+03    0.37717E-05   -0.21857E-06  2624   0.216E-03    0.277E-03
RMM:  10    -0.413184305900E+03    0.41322E-05   -0.70589E-07  2446   0.139E-03    0.167E-03
RMM:  11    -0.413184300774E+03    0.51253E-05   -0.54662E-07  2373   0.119E-03    0.680E-04
RMM:  12    -0.413184297347E+03    0.34273E-05   -0.28151E-07  1831   0.891E-04    0.265E-04
RMM:  13    -0.413184295711E+03    0.16359E-05   -0.14057E-07  1271   0.704E-04    0.153E-04
RMM:  14    -0.413184293080E+03    0.26315E-05   -0.10895E-07  1223   0.680E-04    0.840E-05
RMM:  15    -0.413184290159E+03    0.29207E-05   -0.95870E-08  1316   0.666E-04    0.105E-04
RMM:  16    -0.413184289036E+03    0.11227E-05   -0.49137E-08   945   0.581E-04    0.597E-05
RMM:  17    -0.413184286020E+03    0.30160E-05   -0.67161E-08  1205   0.619E-04    0.346E-05
RMM:  18    -0.413184285708E+03    0.31254E-06   -0.23402E-08   749   0.526E-04
   30 T=    65. E= -.41286651E+03 F= -.41318429E+03 E0= -.41316274E+03  EK= 0.31778E+00 SP= 0.00E+00 SK= 0.00E+00
       N       E                     dE             d eps       ncg     rms          rms(c)
RMM:   1    -0.413178305797E+03    0.59802E-02   -0.11761E+01  4291   0.891E-01    0.911E-01
RMM:   2    -0.413188245293E+03   -0.99395E-02   -0.15020E-01  4271   0.123E-01    0.660E-01
RMM:   3    -0.413186081492E+03    0.21638E-02   -0.65838E-03  4340   0.419E-02    0.165E-01
RMM:   4    -0.413189508475E+03   -0.34270E-02   -0.41626E-03  5144   0.547E-02    0.247E-01
RMM:   5    -0.413186062891E+03    0.34456E-02   -0.16973E-03  4822   0.404E-02    0.203E-02
RMM:   6    -0.413186063535E+03   -0.64390E-06   -0.28280E-04  5748   0.165E-02    0.150E-02
RMM:   7    -0.413186059881E+03    0.36537E-05   -0.55639E-05  5053   0.752E-03    0.657E-03
RMM:   8    -0.413186055130E+03    0.47505E-05   -0.68237E-06  3084   0.325E-03    0.322E-03
RMM:   9    -0.413186053697E+03    0.14332E-05   -0.10469E-06  2517   0.173E-03    0.215E-03
RMM:  10    -0.413186050879E+03    0.28187E-05   -0.60427E-07  2337   0.121E-03    0.115E-03
RMM:  11    -0.413186048335E+03    0.25432E-05   -0.37389E-07  1946   0.958E-04    0.443E-04
RMM:  12    -0.413186046284E+03    0.20512E-05   -0.21335E-07  1568   0.789E-04    0.194E-04
RMM:  13    -0.413186044793E+03    0.14908E-05   -0.12406E-07  1220   0.679E-04    0.112E-04
RMM:  14    -0.413186043150E+03    0.16431E-05   -0.92231E-08  1166   0.645E-04    0.643E-05
RMM:  15    -0.413186040952E+03    0.21986E-05   -0.87069E-08  1243   0.639E-04    0.602E-05
RMM:  16    -0.413186040023E+03    0.92828E-06   -0.40001E-08   857   0.561E-04
   31 T=    65. E= -.41286649E+03 F= -.41318604E+03 E0= -.41316454E+03  EK= 0.31955E+00 SP= 0.00E+00 SK= 0.00E+00
       N       E                     dE             d eps       ncg     rms          rms(c)
RMM:   1    -0.413187105972E+03   -0.10650E-02   -0.11920E+01  4290   0.932E-01    0.938E-01
RMM:   2    -0.413189949744E+03   -0.28438E-02   -0.15287E-01  4272   0.123E-01    0.655E-01
RMM:   3    -0.413188700795E+03    0.12489E-02   -0.70612E-03  4206   0.482E-02    0.174E-01
RMM:   4    -0.413189121259E+03   -0.42046E-03   -0.13405E-03  4928   0.322E-02    0.777E-02
RMM:   5    -0.413188800139E+03    0.32112E-03   -0.17087E-04  4703   0.139E-02    0.228E-02
RMM:   6    -0.413188787085E+03    0.13055E-04   -0.78674E-05  5309   0.951E-03    0.164E-02
RMM:   7    -0.413188769504E+03    0.17581E-04   -0.35314E-05  4227   0.638E-03    0.451E-03
RMM:   8    -0.413188764181E+03    0.53230E-05   -0.30692E-06  2696   0.268E-03    0.279E-03
RMM:   9    -0.413188761961E+03    0.22200E-05   -0.55122E-07  2375   0.144E-03    0.165E-03
RMM:  10    -0.413188754730E+03    0.72303E-05   -0.39036E-07  1902   0.965E-04    0.665E-04
RMM:  11    -0.413188748121E+03    0.66096E-05   -0.22435E-07  1634   0.783E-04    0.276E-04
RMM:  12    -0.413188745231E+03    0.28901E-05   -0.96851E-08  1285   0.637E-04    0.163E-04
RMM:  13    -0.413188739146E+03    0.60843E-05   -0.97390E-08  1226   0.638E-04    0.106E-04
RMM:  14    -0.413188735850E+03    0.32958E-05   -0.48657E-08   956   0.568E-04    0.759E-05
RMM:  15    -0.413188733870E+03    0.19806E-05   -0.30472E-08   830   0.534E-04    0.591E-05
RMM:  16    -0.413188730127E+03    0.37427E-05   -0.47672E-08  1082   0.579E-04    0.516E-05
RMM:  17    -0.413188729880E+03    0.24743E-06   -0.10196E-08   573   0.467E-04
   32 T=    66. E= -.41286697E+03 F= -.41318873E+03 E0= -.41316728E+03  EK= 0.32176E+00 SP= 0.00E+00 SK= 0.00E+00
       N       E                     dE             d eps       ncg     rms          rms(c)
RMM:   1    -0.413187080995E+03    0.16491E-02   -0.11877E+01  4288   0.945E-01    0.924E-01
RMM:   2    -0.413192168018E+03   -0.50870E-02   -0.15193E-01  4283   0.132E-01    0.651E-01
RMM:   3    -0.413190630089E+03    0.15379E-02   -0.66749E-03  4213   0.407E-02    0.173E-01
RMM:   4    -0.413190868937E+03   -0.23885E-03   -0.12534E-03  4966   0.284E-02    0.702E-02
RMM:   5    -0.413190617820E+03    0.25112E-03   -0.14648E-04  4704   0.128E-02    0.221E-02
RMM:   6    -0.413190604492E+03    0.13327E-04   -0.74707E-05  5252   0.924E-03    0.159E-02
RMM:   7    -0.413190589348E+03    0.15145E-04   -0.33288E-05  4172   0.606E-03    0.478E-03
RMM:   8    -0.413190584377E+03    0.49707E-05   -0.30864E-06  2676   0.267E-03    0.284E-03
RMM:   9    -0.413190582390E+03    0.19866E-05   -0.52818E-07  2259   0.141E-03    0.167E-03
RMM:  10    -0.413190575742E+03    0.66484E-05   -0.38869E-07  1814   0.966E-04    0.674E-04
RMM:  11    -0.413190570053E+03    0.56888E-05   -0.22050E-07  1622   0.783E-04    0.269E-04
RMM:  12    -0.413190566459E+03    0.35941E-05   -0.99730E-08  1235   0.643E-04    0.171E-04
RMM:  13    -0.413190561537E+03    0.49223E-05   -0.74727E-08   987   0.611E-04    0.868E-05
RMM:  14    -0.413190558409E+03    0.31279E-05   -0.43915E-08   878   0.568E-04    0.691E-05
RMM:  15    -0.413190554578E+03    0.38311E-05   -0.42412E-08   934   0.569E-04    0.834E-05
RMM:  16    -0.413190552406E+03    0.21713E-05   -0.24795E-08   761   0.525E-04    0.539E-05
RMM:  17    -0.413190551823E+03    0.58305E-06   -0.89948E-09   515   0.476E-04
   33 T=    66. E= -.41286667E+03 F= -.41319055E+03 E0= -.41316915E+03  EK= 0.32388E+00 SP= 0.00E+00 SK= 0.00E+00
       N       E                     dE             d eps       ncg     rms          rms(c)
RMM:   1    -0.413185781843E+03    0.47706E-02   -0.11962E+01  4289   0.928E-01    0.915E-01
RMM:   2    -0.413194824101E+03   -0.90423E-02   -0.15577E-01  4270   0.129E-01    0.665E-01
RMM:   3    -0.413193240690E+03    0.15834E-02   -0.66246E-03  4457   0.469E-02    0.174E-01
RMM:   4    -0.413202475923E+03   -0.92352E-02   -0.95556E-03  5154   0.853E-02    0.405E-01
RMM:   5    -0.413193219225E+03    0.92567E-02   -0.45414E-03  4814   0.664E-02    0.252E-02
RMM:   6    -0.413193208119E+03    0.11106E-04   -0.71523E-04  5806   0.265E-02    0.163E-02
RMM:   7    -0.413193209998E+03   -0.18796E-05   -0.10146E-04  5421   0.967E-03    0.967E-03
RMM:   8    -0.413193203924E+03    0.60748E-05   -0.15378E-05  3937   0.443E-03    0.461E-03
RMM:   9    -0.413193201546E+03    0.23781E-05   -0.29058E-06  2716   0.241E-03    0.290E-03
RMM:  10    -0.413193198573E+03    0.29728E-05   -0.78219E-07  2477   0.146E-03    0.174E-03
RMM:  11    -0.413193194783E+03    0.37899E-05   -0.60984E-07  2430   0.123E-03    0.805E-04
RMM:  12    -0.413193191774E+03    0.30084E-05   -0.34632E-07  1973   0.943E-04    0.316E-04
RMM:  13    -0.413193190480E+03    0.12949E-05   -0.15142E-07  1286   0.709E-04    0.181E-04
RMM:  14    -0.413193188803E+03    0.16761E-05   -0.10369E-07  1110   0.661E-04    0.978E-05
RMM:  15    -0.413193186462E+03    0.23409E-05   -0.90494E-08  1184   0.660E-04    0.828E-05
RMM:  16    -0.413193186024E+03    0.43817E-06   -0.44772E-08   860   0.590E-04
   34 T=    66. E= -.41286681E+03 F= -.41319319E+03 E0= -.41317183E+03  EK= 0.32638E+00 SP= 0.00E+00 SK= 0.00E+00
       N       E                     dE             d eps       ncg     rms          rms(c)
RMM:   1    -0.413186620633E+03    0.65658E-02   -0.12069E+01  4299   0.932E-01    0.941E-01
RMM:   2    -0.413197361098E+03   -0.10740E-01   -0.15618E-01  4265   0.134E-01    0.665E-01
RMM:   3    -0.413195975726E+03    0.13854E-02   -0.68676E-03  4441   0.446E-02    0.178E-01
RMM:   4    -0.413201556877E+03   -0.55812E-02   -0.62496E-03  5158   0.681E-02    0.319E-01
RMM:   5    -0.413195845625E+03    0.57113E-02   -0.28633E-03  4815   0.527E-02    0.249E-02
RMM:   6    -0.413195831996E+03    0.13629E-04   -0.48400E-04  5752   0.217E-02    0.170E-02
RMM:   7    -0.413195826505E+03    0.54910E-05   -0.79356E-05  5215   0.862E-03    0.802E-03
RMM:   8    -0.413195817994E+03    0.85114E-05   -0.12097E-05  3563   0.395E-03    0.386E-03
RMM:   9    -0.413195814001E+03    0.39924E-05   -0.18177E-06  2600   0.206E-03    0.237E-03
RMM:  10    -0.413195808029E+03    0.59716E-05   -0.64335E-07  2420   0.131E-03    0.136E-03
RMM:  11    -0.413195801104E+03    0.69250E-05   -0.44852E-07  2251   0.108E-03    0.549E-04
RMM:  12    -0.413195796066E+03    0.50384E-05   -0.23823E-07  1737   0.842E-04    0.221E-04
RMM:  13    -0.413195793515E+03    0.25514E-05   -0.12588E-07  1224   0.690E-04    0.137E-04
RMM:  14    -0.413195790315E+03    0.31996E-05   -0.91764E-08  1176   0.661E-04    0.811E-05
RMM:  15    -0.413195784434E+03    0.58807E-05   -0.10124E-07  1448   0.686E-04    0.986E-05
RMM:  16    -0.413195783740E+03    0.69439E-06   -0.40763E-08   886   0.562E-04
   35 T=    67. E= -.41286681E+03 F= -.41319578E+03 E0= -.41317448E+03  EK= 0.32898E+00 SP= 0.00E+00 SK= 0.00E+00
       N       E                     dE             d eps       ncg     rms          rms(c)
RMM:   1    -0.413189603114E+03    0.61813E-02   -0.12105E+01  4299   0.962E-01    0.942E-01
RMM:   2    -0.413199279800E+03   -0.96767E-02   -0.15530E-01  4258   0.121E-01    0.658E-01
RMM:   3    -0.413198249916E+03    0.10299E-02   -0.71633E-03  4795   0.455E-02    0.192E-01
RMM:   4    -0.413228395021E+03   -0.30145E-01   -0.30245E-02  5159   0.146E-01    0.724E-01
RMM:   5    -0.413197929771E+03    0.30465E-01   -0.15298E-02  4801   0.121E-01    0.383E-02
RMM:   6    -0.413197971811E+03   -0.42041E-04   -0.24163E-03  5846   0.463E-02    0.205E-02
RMM:   7    -0.413197983066E+03   -0.11255E-04   -0.25985E-04  5801   0.139E-02    0.136E-02
RMM:   8    -0.413197975101E+03    0.79650E-05   -0.38596E-05  4777   0.591E-03    0.879E-03
RMM:   9    -0.413197969223E+03    0.58780E-05   -0.11084E-05  3727   0.381E-03    0.561E-03
RMM:  10    -0.413197960786E+03    0.84373E-05   -0.21346E-06  2549   0.237E-03    0.296E-03
RMM:  11    -0.413197953608E+03    0.71775E-05   -0.14554E-06  2517   0.189E-03    0.160E-03
RMM:  12    -0.413197944989E+03    0.86189E-05   -0.79847E-07  2462   0.155E-03    0.579E-04
RMM:  13    -0.413197942444E+03    0.25455E-05   -0.31292E-07  2163   0.101E-03    0.428E-04
RMM:  14    -0.413197940935E+03    0.15089E-05   -0.13836E-07  1455   0.725E-04    0.266E-04
RMM:  15    -0.413197934421E+03    0.65144E-05   -0.13490E-07  1737   0.748E-04    0.270E-04
RMM:  16    -0.413197933643E+03    0.77774E-06   -0.47852E-08   936   0.569E-04
   36 T=    67. E= -.41286655E+03 F= -.41319793E+03 E0= -.41317667E+03  EK= 0.33138E+00 SP= 0.00E+00 SK= 0.00E+00
       N       E                     dE             d eps       ncg     rms          rms(c)
RMM:   1    -0.413191626365E+03    0.63081E-02   -0.12167E+01  4304   0.986E-01    0.924E-01
RMM:   2    -0.413202902593E+03   -0.11276E-01   -0.16185E-01  4259   0.134E-01    0.670E-01
RMM:   3    -0.413201442432E+03    0.14602E-02   -0.69449E-03  4809   0.523E-02    0.200E-01
RMM:   4    -0.413242431416E+03   -0.40989E-01   -0.41647E-02  5155   0.171E-01    0.841E-01
RMM:   5    -0.413200808079E+03    0.41623E-01   -0.20845E-02  4794   0.141E-01    0.422E-02
RMM:   6    -0.413200903679E+03   -0.95599E-04   -0.32946E-03  5849   0.537E-02    0.211E-02
RMM:   7    -0.413200920642E+03   -0.16964E-04   -0.33184E-04  5745   0.152E-02    0.138E-02
RMM:   8    -0.413200915621E+03    0.50215E-05   -0.36839E-05  4156   0.534E-03    0.828E-03
RMM:   9    -0.413200911108E+03    0.45126E-05   -0.11026E-05  3543   0.363E-03    0.497E-03
RMM:  10    -0.413200906955E+03    0.41534E-05   -0.26962E-06  2629   0.237E-03    0.292E-03
RMM:  11    -0.413200901223E+03    0.57320E-05   -0.15237E-06  2502   0.198E-03    0.154E-03
RMM:  12    -0.413200896956E+03    0.42673E-05   -0.70900E-07  2461   0.145E-03    0.578E-04
RMM:  13    -0.413200895732E+03    0.12233E-05   -0.29395E-07  2104   0.957E-04    0.379E-04
RMM:  14    -0.413200894341E+03    0.13914E-05   -0.14192E-07  1468   0.729E-04    0.217E-04
RMM:  15    -0.413200890163E+03    0.41775E-05   -0.14538E-07  1697   0.747E-04    0.243E-04
RMM:  16    -0.413200889485E+03    0.67859E-06   -0.51355E-08   966   0.588E-04
   37 T=    68. E= -.41286674E+03 F= -.41320089E+03 E0= -.41317967E+03  EK= 0.33415E+00 SP= 0.00E+00 SK= 0.00E+00
       N       E                     dE             d eps       ncg     rms          rms(c)
RMM:   1    -0.413199140680E+03    0.17495E-02   -0.12373E+01  4308   0.104E+00    0.945E-01
RMM:   2    -0.413205653602E+03   -0.65129E-02   -0.16154E-01  4258   0.129E-01    0.674E-01
RMM:   3    -0.413203936505E+03    0.17171E-02   -0.72183E-03  4769   0.510E-02    0.197E-01
RMM:   4    -0.413239655025E+03   -0.35719E-01   -0.35955E-02  5151   0.159E-01    0.786E-01
RMM:   5    -0.413203466893E+03    0.36188E-01   -0.18272E-02  4805   0.131E-01    0.399E-02
RMM:   6    -0.413203534501E+03   -0.67608E-04   -0.27757E-03  5846   0.498E-02    0.209E-02
RMM:   7    -0.413203548388E+03   -0.13887E-04   -0.29108E-04  5769   0.145E-02    0.136E-02
RMM:   8    -0.413203541911E+03    0.64773E-05   -0.39532E-05  4724   0.581E-03    0.879E-03
RMM:   9    -0.413203538196E+03    0.37147E-05   -0.13708E-05  3991   0.395E-03    0.595E-03
RMM:  10    -0.413203530993E+03    0.72028E-05   -0.25221E-06  2578   0.248E-03    0.307E-03
RMM:  11    -0.413203525261E+03    0.57326E-05   -0.16681E-06  2524   0.199E-03    0.168E-03
RMM:  12    -0.413203518742E+03    0.65192E-05   -0.82457E-07  2470   0.157E-03    0.635E-04
RMM:  13    -0.413203516724E+03    0.20181E-05   -0.32523E-07  2206   0.103E-03    0.451E-04
RMM:  14    -0.413203515466E+03    0.12575E-05   -0.14101E-07  1487   0.734E-04    0.275E-04
RMM:  15    -0.413203509338E+03    0.61280E-05   -0.17619E-07  1994   0.803E-04    0.415E-04
RMM:  16    -0.413203508539E+03    0.79906E-06   -0.50722E-08   966   0.570E-04
   38 T=    69. E= -.41286691E+03 F= -.41320351E+03 E0= -.41318233E+03  EK= 0.33660E+00 SP= 0.00E+00 SK= 0.00E+00
       N       E                     dE             d eps       ncg     rms          rms(c)
RMM:   1    -0.413200609389E+03    0.28999E-02   -0.12413E+01  4305   0.108E+00    0.959E-01
RMM:   2    -0.413207230720E+03   -0.66213E-02   -0.16419E-01  4265   0.126E-01    0.668E-01
RMM:   3    -0.413206607963E+03    0.62276E-03   -0.78402E-03  5001   0.547E-02    0.230E-01
RMM:   4    -0.413257700868E+03   -0.51093E-01   -0.54873E-02  5132   0.195E-01    0.939E-01
RMM:   5    -0.413205432766E+03    0.52268E-01   -0.25775E-02  4788   0.158E-01    0.498E-02
RMM:   6    -0.413205572661E+03   -0.13990E-03   -0.40378E-03  5828   0.600E-02    0.239E-02
RMM:   7    -0.413205592207E+03   -0.19546E-04   -0.42616E-04  5850   0.174E-02    0.161E-02
RMM:   8    -0.413205590283E+03    0.19242E-05   -0.65910E-05  5071   0.710E-03    0.114E-02
RMM:   9    -0.413205579033E+03    0.11250E-04   -0.16139E-05  4116   0.438E-03    0.645E-03
RMM:  10    -0.413205569565E+03    0.94683E-05   -0.38648E-06  2675   0.285E-03    0.324E-03
RMM:  11    -0.413205562460E+03    0.71047E-05   -0.15905E-06  2506   0.205E-03    0.184E-03
RMM:  12    -0.413205553746E+03    0.87144E-05   -0.84098E-07  2468   0.162E-03    0.645E-04
RMM:  13    -0.413205549569E+03    0.41765E-05   -0.36304E-07  2278   0.109E-03    0.400E-04
RMM:  14    -0.413205546398E+03    0.31719E-05   -0.17488E-07  1728   0.789E-04    0.256E-04
RMM:  15    -0.413205538922E+03    0.74756E-05   -0.13522E-07  1606   0.742E-04    0.213E-04
RMM:  16    -0.413205537853E+03    0.10691E-05   -0.58948E-08  1014   0.595E-04    0.117E-04
RMM:  17    -0.413205534374E+03    0.34790E-05   -0.54196E-08  1088   0.608E-04    0.719E-05
RMM:  18    -0.413205531277E+03    0.30973E-05   -0.51807E-08  1180   0.617E-04    0.428E-05
RMM:  19    -0.413205529860E+03    0.14161E-05   -0.30436E-08   950   0.572E-04    0.427E-05
RMM:  20    -0.413205529410E+03    0.45063E-06   -0.16412E-08   766   0.539E-04
   39 T=    69. E= -.41286660E+03 F= -.41320553E+03 E0= -.41318439E+03  EK= 0.33893E+00 SP= 0.00E+00 SK= 0.00E+00
       N       E                     dE             d eps       ncg     rms          rms(c)
RMM:   1    -0.413205306099E+03    0.22376E-03   -0.12445E+01  4311   0.113E+00    0.935E-01
RMM:   2    -0.413210885638E+03   -0.55795E-02   -0.16602E-01  4263   0.131E-01    0.673E-01
RMM:   3    -0.413210088641E+03    0.79700E-03   -0.76417E-03  5024   0.555E-02    0.240E-01
RMM:   4    -0.413264002298E+03   -0.53914E-01   -0.59497E-02  5131   0.203E-01    0.965E-01
RMM:   5    -0.413208633551E+03    0.55369E-01   -0.27108E-02  4778   0.163E-01    0.510E-02
RMM:   6    -0.413208784306E+03   -0.15075E-03   -0.42473E-03  5816   0.615E-02    0.233E-02
RMM:   7    -0.413208807702E+03   -0.23397E-04   -0.45532E-04  5889   0.179E-02    0.164E-02
RMM:   8    -0.413208807985E+03   -0.28263E-06   -0.71628E-05  5130   0.738E-03    0.116E-02
RMM:   9    -0.413208798718E+03    0.92665E-05   -0.15321E-05  4034   0.434E-03    0.623E-03
RMM:  10    -0.413208792599E+03    0.61197E-05   -0.40674E-06  2676   0.283E-03    0.310E-03
RMM:  11    -0.413208788254E+03    0.43444E-05   -0.15974E-06  2505   0.203E-03    0.174E-03
RMM:  12    -0.413208783109E+03    0.51449E-05   -0.81179E-07  2469   0.156E-03    0.655E-04
RMM:  13    -0.413208780453E+03    0.26569E-05   -0.36168E-07  2236   0.107E-03    0.386E-04
RMM:  14    -0.413208778098E+03    0.23541E-05   -0.18486E-07  1695   0.794E-04    0.232E-04
RMM:  15    -0.413208773641E+03    0.44574E-05   -0.13368E-07  1451   0.721E-04    0.166E-04
RMM:  16    -0.413208772861E+03    0.78029E-06   -0.66926E-08  1057   0.611E-04
   40 T=    70. E= -.41286715E+03 F= -.41320877E+03 E0= -.41318766E+03  EK= 0.34162E+00 SP= 0.00E+00 SK= 0.00E+00
       N       E                     dE             d eps       ncg     rms          rms(c)
RMM:   1    -0.413209401401E+03   -0.62776E-03   -0.12628E+01  4304   0.120E+00    0.947E-01
RMM:   2    -0.413212325475E+03   -0.29241E-02   -0.17442E-01  4265   0.139E-01    0.685E-01
RMM:   3    -0.413211865761E+03    0.45971E-03   -0.79442E-03  5052   0.571E-02    0.257E-01
RMM:   4    -0.413267819433E+03   -0.55954E-01   -0.63052E-02  5127   0.209E-01    0.985E-01
RMM:   5    -0.413210099995E+03    0.57719E-01   -0.27973E-02  4772   0.166E-01    0.535E-02
RMM:   6    -0.413210266094E+03   -0.16610E-03   -0.44834E-03  5802   0.628E-02    0.234E-02
RMM:   7    -0.413210291573E+03   -0.25479E-04   -0.48646E-04  5929   0.185E-02    0.170E-02
RMM:   8    -0.413210291918E+03   -0.34514E-06   -0.76244E-05  5182   0.765E-03    0.119E-02
RMM:   9    -0.413210282245E+03    0.96725E-05   -0.15101E-05  4007   0.441E-03    0.602E-03
RMM:  10    -0.413210276040E+03    0.62054E-05   -0.43511E-06  2695   0.289E-03    0.303E-03
RMM:  11    -0.413210271620E+03    0.44195E-05   -0.15796E-06  2512   0.201E-03    0.167E-03
RMM:  12    -0.413210266521E+03    0.50999E-05   -0.78019E-07  2457   0.153E-03    0.662E-04
RMM:  13    -0.413210263725E+03    0.27955E-05   -0.35867E-07  2213   0.106E-03    0.373E-04
RMM:  14    -0.413210260778E+03    0.29471E-05   -0.19419E-07  1652   0.801E-04    0.223E-04
RMM:  15    -0.413210256765E+03    0.40134E-05   -0.13384E-07  1396   0.713E-04    0.134E-04
RMM:  16    -0.413210255463E+03    0.13019E-05   -0.73339E-08  1072   0.629E-04    0.639E-05
RMM:  17    -0.413210253286E+03    0.21763E-05   -0.60026E-08  1079   0.624E-04    0.455E-05
RMM:  18    -0.413210249952E+03    0.33340E-05   -0.64385E-08  1228   0.636E-04    0.401E-05
RMM:  19    -0.413210249380E+03    0.57185E-06   -0.28745E-08   859   0.565E-04
   41 T=    70. E= -.41286662E+03 F= -.41321025E+03 E0= -.41318917E+03  EK= 0.34363E+00 SP= 0.00E+00 SK= 0.00E+00
       N       E                     dE             d eps       ncg     rms          rms(c)
RMM:   1    -0.413219020436E+03   -0.87705E-02   -0.12765E+01  4311   0.128E+00    0.972E-01
RMM:   2    -0.413214277073E+03    0.47434E-02   -0.17768E-01  4282   0.145E-01    0.677E-01
RMM:   3    -0.413216703890E+03   -0.24268E-02   -0.10331E-02  5125   0.730E-02    0.333E-01
RMM:   4    -0.413251061212E+03   -0.34357E-01   -0.50299E-02  5091   0.189E-01    0.815E-01
RMM:   5    -0.413212857960E+03    0.38203E-01   -0.17161E-02  4730   0.136E-01    0.514E-02
RMM:   6    -0.413212903410E+03   -0.45450E-04   -0.28228E-03  5746   0.506E-02    0.219E-02
RMM:   7    -0.413212915221E+03   -0.11811E-04   -0.34271E-04  5883   0.160E-02    0.163E-02
RMM:   8    -0.413212911639E+03    0.35815E-05   -0.61210E-05  5114   0.717E-03    0.100E-02
RMM:   9    -0.413212898666E+03    0.12974E-04   -0.12150E-05  3690   0.434E-03    0.420E-03
RMM:  10    -0.413212891270E+03    0.73953E-05   -0.29918E-06  2622   0.240E-03    0.227E-03
RMM:  11    -0.413212884185E+03    0.70855E-05   -0.10874E-06  2503   0.166E-03    0.110E-03
RMM:  12    -0.413212878168E+03    0.60170E-05   -0.46358E-07  2361   0.118E-03    0.525E-04
RMM:  13    -0.413212873418E+03    0.47497E-05   -0.24999E-07  1663   0.855E-04    0.243E-04
RMM:  14    -0.413212869459E+03    0.39586E-05   -0.15902E-07  1347   0.739E-04    0.144E-04
RMM:  15    -0.413212862921E+03    0.65387E-05   -0.13960E-07  1457   0.730E-04    0.903E-05
RMM:  16    -0.413212860719E+03    0.22020E-05   -0.86396E-08  1203   0.637E-04    0.658E-05
RMM:  17    -0.413212856582E+03    0.41367E-05   -0.76123E-08  1262   0.630E-04    0.475E-05
RMM:  18    -0.413212854302E+03    0.22802E-05   -0.53287E-08  1087   0.577E-04    0.369E-05
RMM:  19    -0.413212853822E+03    0.47981E-06   -0.29409E-08   820   0.530E-04
   42 T=    70. E= -.41286704E+03 F= -.41321285E+03 E0= -.41319181E+03  EK= 0.34582E+00 SP= 0.00E+00 SK= 0.00E+00
       N       E                     dE             d eps       ncg     rms          rms(c)
RMM:   1    -0.413226795334E+03   -0.13941E-01   -0.12787E+01  4311   0.136E+00    0.948E-01
RMM:   2    -0.413216241067E+03    0.10554E-01   -0.17218E-01  4288   0.152E-01    0.677E-01
RMM:   3    -0.413219859105E+03   -0.36180E-02   -0.11196E-02  5114   0.812E-02    0.361E-01
RMM:   4    -0.413248437275E+03   -0.28578E-01   -0.47806E-02  5061   0.185E-01    0.766E-01
RMM:   5    -0.413214871306E+03    0.33566E-01   -0.14565E-02  4706   0.128E-01    0.494E-02
RMM:   6    -0.413214893982E+03   -0.22676E-04   -0.24302E-03  5732   0.470E-02    0.209E-02
RMM:   7    -0.413214902001E+03   -0.80193E-05   -0.28653E-04  5865   0.151E-02    0.157E-02
RMM:   8    -0.413214898750E+03    0.32516E-05   -0.53728E-05  5066   0.689E-03    0.924E-03
RMM:   9    -0.413214888060E+03    0.10690E-04   -0.11422E-05  3576   0.430E-03    0.393E-03
RMM:  10    -0.413214882769E+03    0.52913E-05   -0.25750E-06  2595   0.230E-03    0.214E-03
RMM:  11    -0.413214877340E+03    0.54286E-05   -0.10938E-06  2504   0.162E-03    0.108E-03
RMM:  12    -0.413214872961E+03    0.43794E-05   -0.46399E-07  2314   0.115E-03    0.486E-04
RMM:  13    -0.413214869313E+03    0.36475E-05   -0.26422E-07  1603   0.846E-04    0.234E-04
RMM:  14    -0.413214866674E+03    0.26393E-05   -0.16885E-07  1338   0.734E-04    0.135E-04
RMM:  15    -0.413214861738E+03    0.49353E-05   -0.14661E-07  1348   0.719E-04    0.764E-05
RMM:  16    -0.413214859710E+03    0.20284E-05   -0.92779E-08  1153   0.648E-04    0.553E-05
RMM:  17    -0.413214856618E+03    0.30922E-05   -0.80592E-08  1269   0.640E-04    0.503E-05
RMM:  18    -0.413214854442E+03    0.21754E-05   -0.56638E-08  1075   0.586E-04    0.399E-05
RMM:  19    -0.413214853913E+03    0.52955E-06   -0.31559E-08   810   0.533E-04
   43 T=    71. E= -.41286709E+03 F= -.41321485E+03 E0= -.41319384E+03  EK= 0.34776E+00 SP= 0.00E+00 SK= 0.00E+00
       N       E                     dE             d eps       ncg     rms          rms(c)
RMM:   1    -0.413243628066E+03   -0.28774E-01   -0.13074E+01  4312   0.151E+00    0.948E-01
RMM:   2    -0.413217637333E+03    0.25991E-01   -0.20618E-01  4288   0.175E-01    0.695E-01
RMM:   3    -0.413222298395E+03   -0.46611E-02   -0.12013E-02  5108   0.894E-02    0.417E-01
RMM:   4    -0.413248835757E+03   -0.26537E-01   -0.49810E-02  5054   0.190E-01    0.766E-01
RMM:   5    -0.413215902709E+03    0.32933E-01   -0.14381E-02  4687   0.130E-01    0.534E-02
RMM:   6    -0.413215906634E+03   -0.39253E-05   -0.24152E-03  5685   0.470E-02    0.216E-02
RMM:   7    -0.413215915304E+03   -0.86692E-05   -0.29300E-04  5903   0.155E-02    0.165E-02
RMM:   8    -0.413215912065E+03    0.32385E-05   -0.51999E-05  5069   0.688E-03    0.955E-03
RMM:   9    -0.413215902715E+03    0.93497E-05   -0.13556E-05  3755   0.472E-03    0.432E-03
RMM:  10    -0.413215898613E+03    0.41024E-05   -0.29211E-06  2628   0.241E-03    0.247E-03
RMM:  11    -0.413215894585E+03    0.40283E-05   -0.15377E-06  2548   0.184E-03    0.124E-03
RMM:  12    -0.413215891692E+03    0.28927E-05   -0.53692E-07  2441   0.127E-03    0.600E-04
RMM:  13    -0.413215888662E+03    0.30303E-05   -0.32957E-07  1662   0.915E-04    0.329E-04
RMM:  14    -0.413215886477E+03    0.21845E-05   -0.20464E-07  1379   0.780E-04    0.181E-04
RMM:  15    -0.413215884123E+03    0.23546E-05   -0.14572E-07  1269   0.717E-04    0.966E-05
RMM:  16    -0.413215881157E+03    0.29653E-05   -0.12539E-07  1366   0.702E-04    0.622E-05
RMM:  17    -0.413215879849E+03    0.13088E-05   -0.75860E-08  1080   0.617E-04    0.546E-05
RMM:  18    -0.413215877550E+03    0.22983E-05   -0.69832E-08  1139   0.608E-04    0.331E-05
RMM:  19    -0.413215876835E+03    0.71523E-06   -0.38583E-08   862   0.554E-04
   44 T=    71. E= -.41286676E+03 F= -.41321588E+03 E0= -.41319489E+03  EK= 0.34912E+00 SP= 0.00E+00 SK= 0.00E+00
       N       E                     dE             d eps       ncg     rms          rms(c)
RMM:   1    -0.413229273914E+03   -0.13396E-01   -0.12975E+01  4307   0.154E+00    0.978E-01
RMM:   2    -0.413218467022E+03    0.10807E-01   -0.18401E-01  4345   0.181E-01    0.685E-01
RMM:   3    -0.413230754741E+03   -0.12288E-01   -0.18924E-02  5136   0.117E-01    0.532E-01
RMM:   4    -0.413233376156E+03   -0.26214E-02   -0.38060E-02  5015   0.170E-01    0.546E-01
RMM:   5    -0.413217742027E+03    0.15634E-01   -0.59951E-03  4566   0.949E-02    0.445E-02
RMM:   6    -0.413217697852E+03    0.44174E-04   -0.10759E-03  5347   0.321E-02    0.197E-02
RMM:   7    -0.413217695881E+03    0.19719E-05   -0.12931E-04  5646   0.110E-02    0.145E-02
RMM:   8    -0.413217689703E+03    0.61773E-05   -0.44361E-05  5050   0.671E-03    0.822E-03
RMM:   9    -0.413217674422E+03    0.15281E-04   -0.11322E-05  3715   0.453E-03    0.368E-03
RMM:  10    -0.413217669937E+03    0.44856E-05   -0.16473E-06  2557   0.201E-03    0.188E-03
RMM:  11    -0.413217663058E+03    0.68783E-05   -0.10226E-06  2496   0.158E-03    0.107E-03
RMM:  12    -0.413217657400E+03    0.56583E-05   -0.41458E-07  2340   0.113E-03    0.494E-04
RMM:  13    -0.413217653076E+03    0.43236E-05   -0.21097E-07  1468   0.779E-04    0.225E-04
RMM:  14    -0.413217649671E+03    0.34058E-05   -0.13143E-07  1214   0.679E-04    0.135E-04
RMM:  15    -0.413217642988E+03    0.66823E-05   -0.13481E-07  1392   0.709E-04    0.105E-04
RMM:  16    -0.413217640935E+03    0.20532E-05   -0.68513E-08  1007   0.596E-04    0.851E-05
RMM:  17    -0.413217637679E+03    0.32562E-05   -0.57678E-08  1020   0.589E-04    0.491E-05
RMM:  18    -0.413217635119E+03    0.25603E-05   -0.49174E-08  1052   0.578E-04    0.353E-05
RMM:  19    -0.413217634567E+03    0.55202E-06   -0.22359E-08   716   0.513E-04
   45 T=    71. E= -.41286714E+03 F= -.41321763E+03 E0= -.41319666E+03  EK= 0.35049E+00 SP= 0.00E+00 SK= 0.00E+00
       N       E                     dE             d eps       ncg     rms          rms(c)
RMM:   1    -0.413237735045E+03   -0.20100E-01   -0.12971E+01  4307   0.165E+00    0.961E-01
RMM:   2    -0.413218717904E+03    0.19017E-01   -0.18338E-01  4363   0.190E-01    0.682E-01
RMM:   3    -0.413234059474E+03   -0.15342E-01   -0.21560E-02  5131   0.128E-01    0.582E-01
RMM:   4    -0.413230807689E+03    0.32518E-02   -0.37285E-02  4988   0.170E-01    0.501E-01
RMM:   5    -0.413217971554E+03    0.12836E-01   -0.50091E-03  4543   0.903E-02    0.446E-02
RMM:   6    -0.413217902019E+03    0.69535E-04   -0.77776E-04  5076   0.288E-02    0.193E-02
RMM:   7    -0.413217899042E+03    0.29775E-05   -0.99960E-05  5666   0.964E-03    0.119E-02
RMM:   8    -0.413217895334E+03    0.37082E-05   -0.45516E-05  5173   0.685E-03    0.856E-03
RMM:   9    -0.413217881898E+03    0.13435E-04   -0.16876E-05  4274   0.493E-03    0.418E-03
RMM:  10    -0.413217878529E+03    0.33697E-05   -0.19129E-06  2529   0.221E-03    0.199E-03
RMM:  11    -0.413217873111E+03    0.54178E-05   -0.14167E-06  2460   0.187E-03    0.120E-03
RMM:  12    -0.413217867805E+03    0.53058E-05   -0.54229E-07  2351   0.134E-03    0.650E-04
RMM:  13    -0.413217864172E+03    0.36334E-05   -0.23294E-07  1714   0.865E-04    0.343E-04
RMM:  14    -0.413217860233E+03    0.39386E-05   -0.13052E-07  1294   0.703E-04    0.156E-04
RMM:  15    -0.413217854645E+03    0.55878E-05   -0.12004E-07  1341   0.683E-04    0.157E-04
RMM:  16    -0.413217852942E+03    0.17029E-05   -0.52285E-08   836   0.551E-04    0.116E-04
RMM:  17    -0.413217849375E+03    0.35675E-05   -0.56145E-08   928   0.567E-04    0.646E-05
RMM:  18    -0.413217846974E+03    0.24014E-05   -0.40386E-08   888   0.555E-04    0.437E-05
RMM:  19    -0.413217846164E+03    0.80918E-06   -0.21937E-08   692   0.513E-04
   46 T=    71. E= -.41286697E+03 F= -.41321785E+03 E0= -.41319689E+03  EK= 0.35088E+00 SP= 0.00E+00 SK= 0.00E+00
       N       E                     dE             d eps       ncg     rms          rms(c)
RMM:   1    -0.413257923761E+03   -0.40077E-01   -0.13220E+01  4310   0.181E+00    0.947E-01
RMM:   2    -0.413218958309E+03    0.38965E-01   -0.21673E-01  4369   0.214E-01    0.698E-01
RMM:   3    -0.413233655634E+03   -0.14697E-01   -0.21028E-02  5133   0.129E-01    0.601E-01
RMM:   4    -0.413232210102E+03    0.14455E-02   -0.39728E-02  5003   0.175E-01    0.543E-01
RMM:   5    -0.413217553398E+03    0.14657E-01   -0.63275E-03  4546   0.993E-02    0.494E-02
RMM:   6    -0.413217473510E+03    0.79887E-04   -0.94919E-04  5147   0.320E-02    0.210E-02
RMM:   7    -0.413217471443E+03    0.20672E-05   -0.13110E-04  5803   0.109E-02    0.146E-02
RMM:   8    -0.413217468236E+03    0.32067E-05   -0.50143E-05  5178   0.697E-03    0.946E-03
RMM:   9    -0.413217454576E+03    0.13660E-04   -0.17602E-05  4284   0.535E-03    0.461E-03
RMM:  10    -0.413217451443E+03    0.31333E-05   -0.23820E-06  2590   0.227E-03    0.230E-03
RMM:  11    -0.413217447847E+03    0.35959E-05   -0.17138E-06  2518   0.200E-03    0.141E-03
RMM:  12    -0.413217444675E+03    0.31721E-05   -0.53117E-07  2397   0.137E-03    0.720E-04
RMM:  13    -0.413217441809E+03    0.28664E-05   -0.25345E-07  1753   0.874E-04    0.329E-04
RMM:  14    -0.413217439276E+03    0.25327E-05   -0.15385E-07  1286   0.706E-04    0.176E-04
RMM:  15    -0.413217435766E+03    0.35099E-05   -0.14070E-07  1271   0.688E-04    0.955E-05
RMM:  16    -0.413217434092E+03    0.16739E-05   -0.77157E-08   990   0.593E-04    0.727E-05
RMM:  17    -0.413217431957E+03    0.21354E-05   -0.66374E-08   991   0.584E-04    0.417E-05
RMM:  18    -0.413217430838E+03    0.11188E-05   -0.39130E-08   796   0.541E-04    0.256E-05
RMM:  19    -0.413217430315E+03    0.52276E-06   -0.22850E-08   668   0.521E-04
   47 T=    71. E= -.41286704E+03 F= -.41321743E+03 E0= -.41319649E+03  EK= 0.35039E+00 SP= 0.00E+00 SK= 0.00E+00
       N       E                     dE             d eps       ncg     rms          rms(c)
RMM:   1    -0.413268348008E+03   -0.50917E-01   -0.13315E+01  4306   0.196E+00    0.974E-01
RMM:   2    -0.413217194323E+03    0.51154E-01   -0.21247E-01  4471   0.213E-01    0.693E-01
RMM:   3    -0.413241973091E+03   -0.24779E-01   -0.30302E-02  5151   0.156E-01    0.725E-01
RMM:   4    -0.413224492489E+03    0.17481E-01   -0.38025E-02  4951   0.176E-01    0.431E-01
RMM:   5    -0.413216375407E+03    0.81171E-02   -0.46693E-03  4577   0.909E-02    0.574E-02
RMM:   6    -0.413216195376E+03    0.18003E-03   -0.45355E-04  4673   0.284E-02    0.243E-02
RMM:   7    -0.413216195767E+03   -0.39090E-06   -0.13375E-04  5886   0.117E-02    0.168E-02
RMM:   8    -0.413216182708E+03    0.13059E-04   -0.35761E-05  4942   0.650E-03    0.102E-02
RMM:   9    -0.413216168487E+03    0.14221E-04   -0.12571E-05  3626   0.449E-03    0.487E-03
RMM:  10    -0.413216162732E+03    0.57549E-05   -0.24970E-06  2595   0.254E-03    0.240E-03
RMM:  11    -0.413216157139E+03    0.55931E-05   -0.17224E-06  2523   0.206E-03    0.158E-03
RMM:  12    -0.413216152057E+03    0.50817E-05   -0.62523E-07  2435   0.143E-03    0.773E-04
RMM:  13    -0.413216147740E+03    0.43168E-05   -0.29809E-07  1982   0.928E-04    0.399E-04
RMM:  14    -0.413216143278E+03    0.44626E-05   -0.18335E-07  1513   0.742E-04    0.206E-04
RMM:  15    -0.413216138106E+03    0.51721E-05   -0.15259E-07  1428   0.699E-04    0.141E-04
RMM:  16    -0.413216135606E+03    0.24994E-05   -0.85446E-08  1113   0.601E-04    0.112E-04
RMM:  17    -0.413216132805E+03    0.28013E-05   -0.68781E-08  1074   0.587E-04    0.460E-05
RMM:  18    -0.413216131016E+03    0.17891E-05   -0.47156E-08   982   0.563E-04    0.366E-05
RMM:  19    -0.413216130291E+03    0.72461E-06   -0.25831E-08   790   0.526E-04
   48 T=    71. E= -.41286723E+03 F= -.41321613E+03 E0= -.41319520E+03  EK= 0.34890E+00 SP= 0.00E+00 SK= 0.00E+00
       N       E                     dE             d eps       ncg     rms          rms(c)
RMM:   1    -0.413269848221E+03   -0.53717E-01   -0.13187E+01  4306   0.209E+00    0.965E-01
RMM:   2    -0.413213491067E+03    0.56357E-01   -0.20885E-01  4489   0.227E-01    0.682E-01
RMM:   3    -0.413245064245E+03   -0.31573E-01   -0.36489E-02  5157   0.171E-01    0.802E-01
RMM:   4    -0.413218269859E+03    0.26794E-01   -0.38261E-02  4922   0.179E-01    0.380E-01
RMM:   5    -0.413212883794E+03    0.53861E-02   -0.52429E-03  4871   0.937E-02    0.725E-02
RMM:   6    -0.413212571087E+03    0.31271E-03   -0.58431E-04  4679   0.333E-02    0.288E-02
RMM:   7    -0.413212565936E+03    0.51510E-05   -0.14694E-04  5707   0.130E-02    0.186E-02
RMM:   8    -0.413212551505E+03    0.14431E-04   -0.27763E-05  4640   0.588E-03    0.106E-02
RMM:   9    -0.413212536250E+03    0.15256E-04   -0.13041E-05  3507   0.442E-03    0.445E-03
RMM:  10    -0.413212529270E+03    0.69793E-05   -0.30731E-06  2670   0.273E-03    0.255E-03
RMM:  11    -0.413212522022E+03    0.72487E-05   -0.17711E-06  2555   0.212E-03    0.157E-03
RMM:  12    -0.413212517361E+03    0.46606E-05   -0.59128E-07  2440   0.140E-03    0.730E-04
RMM:  13    -0.413212512556E+03    0.48051E-05   -0.32746E-07  2034   0.953E-04    0.418E-04
RMM:  14    -0.413212507875E+03    0.46812E-05   -0.21684E-07  1598   0.783E-04    0.243E-04
RMM:  15    -0.413212502886E+03    0.49884E-05   -0.17291E-07  1438   0.728E-04    0.135E-04
RMM:  16    -0.413212500862E+03    0.20241E-05   -0.95898E-08  1151   0.630E-04    0.857E-05
RMM:  17    -0.413212497673E+03    0.31897E-05   -0.95457E-08  1312   0.645E-04    0.513E-05
RMM:  18    -0.413212496533E+03    0.11395E-05   -0.45855E-08   955   0.567E-04    0.375E-05
RMM:  19    -0.413212495687E+03    0.84574E-06   -0.30794E-08   843   0.550E-04
   49 T=    70. E= -.41286695E+03 F= -.41321250E+03 E0= -.41319157E+03  EK= 0.34555E+00 SP= 0.00E+00 SK= 0.00E+00
       N       E                     dE             d eps       ncg     rms          rms(c)
RMM:   1    -0.413254702703E+03   -0.42206E-01   -0.12911E+01  4306   0.214E+00    0.931E-01
RMM:   2    -0.413209454729E+03    0.45248E-01   -0.23485E-01  4514   0.242E-01    0.692E-01
RMM:   3    -0.413236803571E+03   -0.27349E-01   -0.32587E-02  5160   0.166E-01    0.780E-01
RMM:   4    -0.413214696337E+03    0.22107E-01   -0.37431E-02  4933   0.177E-01    0.420E-01
RMM:   5    -0.413208128706E+03    0.65676E-02   -0.61519E-03  4786   0.989E-02    0.749E-02
RMM:   6    -0.413207810930E+03    0.31778E-03   -0.59807E-04  4655   0.343E-02    0.301E-02
RMM:   7    -0.413207807006E+03    0.39237E-05   -0.15670E-04  5759   0.134E-02    0.198E-02
RMM:   8    -0.413207792619E+03    0.14387E-04   -0.32577E-05  4803   0.619E-03    0.115E-02
RMM:   9    -0.413207779122E+03    0.13496E-04   -0.16478E-05  3661   0.486E-03    0.491E-03
[...]
RMM:   8    -0.413582604437E+03    0.39957E-04   -0.18389E-03  5823   0.504E-02    0.588E-02
RMM:   9    -0.413582560222E+03    0.44215E-04   -0.48066E-04  4731   0.284E-02    0.271E-02
RMM:  10    -0.413582562175E+03   -0.19524E-05   -0.15197E-04  5730   0.149E-02    0.135E-02
RMM:  11    -0.413582569697E+03   -0.75227E-05   -0.40754E-05  5291   0.774E-03    0.887E-03
RMM:  12    -0.413582576152E+03   -0.64548E-05   -0.10568E-05  3977   0.449E-03    0.481E-03
RMM:  13    -0.413582579313E+03   -0.31608E-05   -0.40567E-06  2915   0.295E-03    0.181E-03
RMM:  14    -0.413582581515E+03   -0.22026E-05   -0.15698E-06  2567   0.201E-03    0.100E-03
RMM:  15    -0.413582582924E+03   -0.14087E-05   -0.82157E-07  2409   0.144E-03    0.705E-04
RMM:  16    -0.413582583873E+03   -0.94900E-06   -0.62354E-07  2245   0.115E-03
  140 T=   248. E= -.41236314E+03 F= -.41358258E+03 E0= -.41356301E+03  EK= 0.12194E+01 SP= 0.00E+00 SK= 0.00E+00
       N       E                     dE             d eps       ncg     rms          rms(c)
RMM:   1    -0.413988537179E+03   -0.40595E+00   -0.30145E+01  4305   0.982E+00    0.144E+00
RMM:   2    -0.413644423992E+03    0.34411E+00   -0.80509E-01  5386   0.106E+00    0.145E+00
RMM:   3    -0.413624332351E+03    0.20092E-01   -0.17926E-01  5566   0.468E-01    0.132E+00
RMM:   4    -0.413588418097E+03    0.35914E-01   -0.75758E-02  5273   0.326E-01    0.696E-01
RMM:   5    -0.413588673426E+03   -0.25533E-03   -0.68218E-02  4932   0.324E-01    0.429E-01
RMM:   6    -0.413584710311E+03    0.39631E-02   -0.35512E-02  5046   0.231E-01    0.237E-01
RMM:   7    -0.413582627056E+03    0.20833E-02   -0.47266E-03  4711   0.103E-01    0.113E-01
RMM:   8    -0.413582517182E+03    0.10987E-03   -0.24228E-03  5731   0.576E-02    0.659E-02
RMM:   9    -0.413582462234E+03    0.54948E-04   -0.69666E-04  4884   0.324E-02    0.339E-02
RMM:  10    -0.413582468569E+03   -0.63348E-05   -0.22668E-04  5714   0.185E-02    0.178E-02
RMM:  11    -0.413582479762E+03   -0.11193E-04   -0.63468E-05  5397   0.973E-03    0.111E-02
RMM:  12    -0.413582494062E+03   -0.14300E-04   -0.20544E-05  4493   0.621E-03    0.507E-03
RMM:  13    -0.413582499480E+03   -0.54181E-05   -0.57237E-06  3094   0.322E-03    0.240E-03
RMM:  14    -0.413582504138E+03   -0.46584E-05   -0.26400E-06  2715   0.242E-03    0.127E-03
RMM:  15    -0.413582507145E+03   -0.30072E-05   -0.17347E-06  2604   0.192E-03    0.894E-04
RMM:  16    -0.413582508492E+03   -0.13470E-05   -0.15045E-06  2513   0.159E-03    0.619E-04
RMM:  17    -0.413582507883E+03    0.60881E-06   -0.12220E-06  2273   0.133E-03
  141 T=   247. E= -.41236721E+03 F= -.41358251E+03 E0= -.41356303E+03  EK= 0.12153E+01 SP= 0.00E+00 SK= 0.00E+00
       N       E                     dE             d eps       ncg     rms          rms(c)
RMM:   1    -0.413794182944E+03   -0.21167E+00   -0.27450E+01  4305   0.955E+00    0.119E+00
RMM:   2    -0.413543094879E+03    0.25109E+00   -0.75582E-01  5398   0.105E+00    0.133E+00
RMM:   3    -0.413515881273E+03    0.27214E-01   -0.15296E-01  5576   0.430E-01    0.117E+00
RMM:   4    -0.413486691183E+03    0.29190E-01   -0.44829E-02  5286   0.257E-01    0.691E-01
RMM:   5    -0.413487020106E+03   -0.32892E-03   -0.44481E-02  4904   0.259E-01    0.452E-01
RMM:   6    -0.413485254260E+03    0.17658E-02   -0.42803E-02  5039   0.243E-01    0.248E-01
RMM:   7    -0.413483018137E+03    0.22361E-02   -0.74883E-03  5147   0.119E-01    0.142E-01
RMM:   8    -0.413482591502E+03    0.42663E-03   -0.20955E-03  5584   0.557E-02    0.789E-02
RMM:   9    -0.413482473302E+03    0.11820E-03   -0.10940E-03  4616   0.397E-02    0.263E-02
RMM:  10    -0.413482508145E+03   -0.34842E-04   -0.29144E-04  5814   0.203E-02    0.183E-02
RMM:  11    -0.413482515215E+03   -0.70706E-05   -0.52789E-05  4852   0.951E-03    0.106E-02
RMM:  12    -0.413482531937E+03   -0.16722E-04   -0.20375E-05  4400   0.617E-03    0.507E-03
RMM:  13    -0.413482538026E+03   -0.60887E-05   -0.65122E-06  3189   0.331E-03    0.241E-03
RMM:  14    -0.413482542434E+03   -0.44085E-05   -0.28494E-06  2746   0.250E-03    0.143E-03
RMM:  15    -0.413482544843E+03   -0.24085E-05   -0.19192E-06  2632   0.203E-03    0.103E-03
RMM:  16    -0.413482545525E+03   -0.68155E-06   -0.17784E-06  2599   0.172E-03
  142 T=   228. E= -.41236273E+03 F= -.41348255E+03 E0= -.41346270E+03  EK= 0.11198E+01 SP= 0.00E+00 SK= 0.00E+00
       N       E                     dE             d eps       ncg     rms          rms(c)
RMM:   1    -0.413566822807E+03   -0.84278E-01   -0.23377E+01  4301   0.891E+00    0.889E-01
RMM:   2    -0.413383167619E+03    0.18366E+00   -0.60372E-01  5342   0.961E-01    0.103E+00
RMM:   3    -0.413375759521E+03    0.74081E-02   -0.11480E-01  5667   0.363E-01    0.982E-01
RMM:   4    -0.413351789162E+03    0.23970E-01   -0.25971E-02  5244   0.196E-01    0.600E-01
RMM:   5    -0.413350196186E+03    0.15930E-02   -0.21573E-02  4834   0.179E-01    0.403E-01
RMM:   6    -0.413350662097E+03   -0.46591E-03   -0.39682E-02  5006   0.226E-01    0.220E-01
RMM:   7    -0.413349040661E+03    0.16214E-02   -0.86931E-03  5426   0.117E-01    0.159E-01
RMM:   8    -0.413348317736E+03    0.72293E-03   -0.17479E-03  5091   0.522E-02    0.833E-02
RMM:   9    -0.413348156234E+03    0.16150E-03   -0.14226E-03  4740   0.425E-02    0.224E-02
RMM:  10    -0.413348190338E+03   -0.34104E-04   -0.24342E-04  5797   0.185E-02    0.153E-02
RMM:  11    -0.413348196886E+03   -0.65485E-05   -0.43289E-05  4802   0.854E-03    0.906E-03
RMM:  12    -0.413348209038E+03   -0.12152E-04   -0.16406E-05  4201   0.539E-03    0.371E-03
RMM:  13    -0.413348213123E+03   -0.40852E-05   -0.53584E-06  3068   0.292E-03    0.237E-03
RMM:  14    -0.413348215538E+03   -0.24142E-05   -0.20365E-06  2640   0.215E-03    0.125E-03
RMM:  15    -0.413348216917E+03   -0.13792E-05   -0.13486E-06  2549   0.172E-03    0.102E-03
RMM:  16    -0.413348217226E+03   -0.30941E-06   -0.11483E-06  2419   0.140E-03
  143 T=   202. E= -.41235831E+03 F= -.41334822E+03 E0= -.41332792E+03  EK= 0.98991E+00 SP= 0.00E+00 SK= 0.00E+00
       N       E                     dE             d eps       ncg     rms          rms(c)
RMM:   1    -0.413406474152E+03   -0.58257E-01   -0.19972E+01  4298   0.834E+00    0.763E-01
RMM:   2    -0.413267750827E+03    0.13872E+00   -0.45618E-01  5197   0.867E-01    0.794E-01
RMM:   3    -0.413280046241E+03   -0.12295E-01   -0.92487E-02  5741   0.318E-01    0.904E-01
RMM:   4    -0.413254845735E+03    0.25201E-01   -0.21841E-02  5183   0.174E-01    0.516E-01
RMM:   5    -0.413253358353E+03    0.14874E-02   -0.14582E-02  4854   0.147E-01    0.338E-01
RMM:   6    -0.413254416608E+03   -0.10583E-02   -0.30265E-02  4958   0.198E-01    0.181E-01
RMM:   7    -0.413253314613E+03    0.11020E-02   -0.63701E-03  5519   0.980E-02    0.146E-01
RMM:   8    -0.413252614756E+03    0.69986E-03   -0.12398E-03  4720   0.445E-02    0.747E-02
RMM:   9    -0.413252490480E+03    0.12428E-03   -0.12662E-03  4896   0.391E-02    0.202E-02
RMM:  10    -0.413252513917E+03   -0.23437E-04   -0.20596E-04  5846   0.163E-02    0.132E-02
RMM:  11    -0.413252515135E+03   -0.12177E-05   -0.32534E-05  4713   0.739E-03    0.657E-03
RMM:  12    -0.413252519946E+03   -0.48107E-05   -0.10965E-05  3687   0.429E-03    0.295E-03
RMM:  13    -0.413252521445E+03   -0.14995E-05   -0.22872E-06  2670   0.220E-03    0.210E-03
RMM:  14    -0.413252522468E+03   -0.10228E-05   -0.10708E-06  2515   0.166E-03    0.108E-03
RMM:  15    -0.413252523253E+03   -0.78503E-06   -0.65427E-07  2302   0.126E-03
  144 T=   182. E= -.41235714E+03 F= -.41325252E+03 E0= -.41323184E+03  EK= 0.89538E+00 SP= 0.00E+00 SK= 0.00E+00
       N       E                     dE             d eps       ncg     rms          rms(c)
RMM:   1    -0.413336613199E+03   -0.84091E-01   -0.18250E+01  4288   0.810E+00    0.778E-01
RMM:   2    -0.413225706788E+03    0.11091E+00   -0.38194E-01  5054   0.827E-01    0.704E-01
RMM:   3    -0.413250907176E+03   -0.25200E-01   -0.83575E-02  5752   0.304E-01    0.918E-01
RMM:   4    -0.413220728801E+03    0.30178E-01   -0.23412E-02  5170   0.176E-01    0.482E-01
RMM:   5    -0.413220089408E+03    0.63939E-03   -0.16492E-02  4946   0.159E-01    0.287E-01
RMM:   6    -0.413220370006E+03   -0.28060E-03   -0.17560E-02  4868   0.160E-01    0.138E-01
RMM:   7    -0.413219843550E+03    0.52646E-03   -0.36160E-03  5654   0.728E-02    0.113E-01
RMM:   8    -0.413219393329E+03    0.45022E-03   -0.68231E-04  4501   0.341E-02    0.587E-02
RMM:   9    -0.413219303464E+03    0.89865E-04   -0.79084E-04  5020   0.312E-02    0.185E-02
RMM:  10    -0.413219318917E+03   -0.15453E-04   -0.19061E-04  5910   0.148E-02    0.133E-02
RMM:  11    -0.413219319055E+03   -0.13801E-06   -0.24686E-05  4533   0.664E-03    0.546E-03
RMM:  12    -0.413219324271E+03   -0.52159E-05   -0.67685E-06  3222   0.339E-03    0.353E-03
RMM:  13    -0.413219327963E+03   -0.36919E-05   -0.13705E-06  2545   0.195E-03    0.209E-03
RMM:  14    -0.413219332804E+03   -0.48416E-05   -0.11239E-06  2518   0.168E-03    0.104E-03
RMM:  15    -0.413219337517E+03   -0.47125E-05   -0.89861E-07  2298   0.138E-03    0.464E-04
RMM:  16    -0.413219341182E+03   -0.36648E-05   -0.59842E-07  2181   0.111E-03    0.350E-04
RMM:  17    -0.413219345809E+03   -0.46274E-05   -0.57557E-07  2108   0.103E-03    0.254E-04
RMM:  18    -0.413219350325E+03   -0.45157E-05   -0.54610E-07  1899   0.939E-04    0.168E-04
RMM:  19    -0.413219353361E+03   -0.30364E-05   -0.33818E-07  1642   0.784E-04    0.902E-05
RMM:  20    -0.413219355701E+03   -0.23398E-05   -0.20583E-07  1404   0.683E-04    0.651E-05
RMM:  21    -0.413219356818E+03   -0.11170E-05   -0.97614E-08  1075   0.595E-04    0.371E-05
RMM:  22    -0.413219357633E+03   -0.81456E-06   -0.56552E-08   966   0.564E-04
  145 T=   175. E= -.41235844E+03 F= -.41321936E+03 E0= -.41319842E+03  EK= 0.86092E+00 SP= 0.00E+00 SK= 0.00E+00
       N       E                     dE             d eps       ncg     rms          rms(c)
RMM:   1    -0.413335478247E+03   -0.11612E+00   -0.18126E+01  4270   0.820E+00    0.944E-01
RMM:   2    -0.413232482563E+03    0.10300E+00   -0.39106E-01  5005   0.845E-01    0.784E-01
RMM:   3    -0.413274126179E+03   -0.41644E-01   -0.96419E-02  5694   0.330E-01    0.107E+00
RMM:   4    -0.413230466380E+03    0.43660E-01   -0.35385E-02  5162   0.212E-01    0.520E-01
RMM:   5    -0.413230186186E+03    0.28019E-03   -0.24907E-02  5047   0.199E-01    0.276E-01
RMM:   6    -0.413228828697E+03    0.13575E-02   -0.88193E-03  4712   0.127E-01    0.965E-02
RMM:   7    -0.413228774666E+03    0.54032E-04   -0.26474E-03  5825   0.583E-02    0.762E-02
RMM:   8    -0.413228548755E+03    0.22591E-03   -0.57974E-04  5182   0.292E-02    0.443E-02
RMM:   9    -0.413228489550E+03    0.59205E-04   -0.33167E-04  5154   0.217E-02    0.186E-02
RMM:  10    -0.413228500091E+03   -0.10541E-04   -0.18354E-04  5885   0.148E-02    0.149E-02
RMM:  11    -0.413228501143E+03   -0.10524E-05   -0.22112E-05  4511   0.646E-03    0.750E-03
RMM:  12    -0.413228508834E+03   -0.76903E-05   -0.12459E-05  4159   0.440E-03    0.448E-03
RMM:  13    -0.413228519925E+03   -0.11091E-04   -0.27394E-06  2765   0.278E-03    0.197E-03
RMM:  14    -0.413228528964E+03   -0.90391E-05   -0.14974E-06  2592   0.184E-03    0.118E-03
RMM:  15    -0.413228541003E+03   -0.12039E-04   -0.16903E-06  2632   0.185E-03    0.665E-04
RMM:  16    -0.413228549225E+03   -0.82222E-05   -0.11056E-06  2349   0.133E-03    0.536E-04
RMM:  17    -0.413228561180E+03   -0.11954E-04   -0.20132E-06  2696   0.170E-03    0.327E-04
RMM:  18    -0.413228568621E+03   -0.74418E-05   -0.13146E-06  2116   0.127E-03    0.226E-04
RMM:  19    -0.413228572183E+03   -0.35620E-05   -0.50608E-07  1758   0.894E-04    0.161E-04
RMM:  20    -0.413228575126E+03   -0.29429E-05   -0.27023E-07  1490   0.743E-04    0.900E-05
RMM:  21    -0.413228577202E+03   -0.20762E-05   -0.14761E-07  1240   0.649E-04    0.619E-05
RMM:  22    -0.413228578627E+03   -0.14241E-05   -0.89969E-08  1130   0.599E-04    0.444E-05
RMM:  23    -0.413228579299E+03   -0.67205E-06   -0.48966E-08   991   0.557E-04
  146 T=   177. E= -.41236037E+03 F= -.41322858E+03 E0= -.41320756E+03  EK= 0.86821E+00 SP= 0.00E+00 SK= 0.00E+00
       N       E                     dE             d eps       ncg     rms          rms(c)
RMM:   1    -0.413371030606E+03   -0.14245E+00   -0.18728E+01  4269   0.829E+00    0.116E+00
RMM:   2    -0.413255468044E+03    0.11556E+00   -0.48262E-01  5068   0.887E-01    0.948E-01
RMM:   3    -0.413318256120E+03   -0.62788E-01   -0.13035E-01  5607   0.385E-01    0.129E+00
RMM:   4    -0.413253057660E+03    0.65198E-01   -0.57696E-02  5141   0.272E-01    0.594E-01
RMM:   5    -0.413251370319E+03    0.16873E-02   -0.31372E-02  4999   0.229E-01    0.259E-01
RMM:   6    -0.413249873481E+03    0.14968E-02   -0.60162E-03  4633   0.111E-01    0.859E-02
RMM:   7    -0.413249831129E+03    0.42352E-04   -0.22027E-03  5759   0.531E-02    0.563E-02
RMM:   8    -0.413249710593E+03    0.12054E-03   -0.63598E-04  5434   0.289E-02    0.376E-02
RMM:   9    -0.413249663301E+03    0.47292E-04   -0.19393E-04  4933   0.173E-02    0.194E-02
RMM:  10    -0.413249665678E+03   -0.23768E-05   -0.14591E-04  5712   0.137E-02    0.124E-02
RMM:  11    -0.413249670946E+03   -0.52687E-05   -0.22706E-05  4596   0.593E-03    0.836E-03
RMM:  12    -0.413249679123E+03   -0.81765E-05   -0.11238E-05  4046   0.460E-03    0.380E-03
RMM:  13    -0.413249692759E+03   -0.13636E-04   -0.38242E-06  2915   0.308E-03    0.223E-03
RMM:  14    -0.413249703337E+03   -0.10578E-04   -0.15198E-06  2588   0.200E-03    0.112E-03
RMM:  15    -0.413249715515E+03   -0.12178E-04   -0.15792E-06  2611   0.184E-03    0.776E-04
RMM:  16    -0.413249728109E+03   -0.12594E-04   -0.19032E-06  2652   0.175E-03    0.579E-04
RMM:  17    -0.413249738084E+03   -0.99750E-05   -0.16435E-06  2378   0.147E-03    0.355E-04
RMM:  18    -0.413249746104E+03   -0.80198E-05   -0.14271E-06  2420   0.136E-03    0.247E-04
RMM:  19    -0.413249750647E+03   -0.45436E-05   -0.69465E-07  1825   0.929E-04    0.173E-04
RMM:  20    -0.413249753792E+03   -0.31449E-05   -0.31065E-07  1475   0.733E-04    0.102E-04
RMM:  21    -0.413249755881E+03   -0.20894E-05   -0.16173E-07  1259   0.644E-04    0.664E-05
RMM:  22    -0.413249757387E+03   -0.15054E-05   -0.10334E-07  1203   0.604E-04    0.685E-05
RMM:  23    -0.413249758187E+03   -0.79984E-06   -0.55487E-08  1023   0.553E-04
  147 T=   181. E= -.41235884E+03 F= -.41324976E+03 E0= -.41322883E+03  EK= 0.89092E+00 SP= 0.00E+00 SK= 0.00E+00
       N       E                     dE             d eps       ncg     rms          rms(c)
RMM:   1    -0.413460763926E+03   -0.21101E+00   -0.19863E+01  4265   0.821E+00    0.113E+00
RMM:   2    -0.413312181326E+03    0.14858E+00   -0.66520E-01  5286   0.944E-01    0.994E-01
RMM:   3    -0.413351598130E+03   -0.39417E-01   -0.13746E-01  5536   0.402E-01    0.122E+00
RMM:   4    -0.413301055294E+03    0.50543E-01   -0.59844E-02  5200   0.286E-01    0.635E-01
RMM:   5    -0.413298211368E+03    0.28439E-02   -0.17876E-02  4578   0.191E-01    0.247E-01
RMM:   6    -0.413298355549E+03   -0.14418E-03   -0.78331E-03  5025   0.115E-01    0.111E-01
RMM:   7    -0.413297899227E+03    0.45632E-03   -0.23808E-03  5245   0.597E-02    0.619E-02
RMM:   8    -0.413297785794E+03    0.11343E-03   -0.72538E-04  5507   0.336E-02    0.369E-02
RMM:   9    -0.413297749679E+03    0.36115E-04   -0.27818E-04  5147   0.205E-02    0.245E-02
RMM:  10    -0.413297734444E+03    0.15235E-04   -0.12733E-04  5421   0.139E-02    0.115E-02
RMM:  11    -0.413297739179E+03   -0.47351E-05   -0.42451E-05  5495   0.725E-03    0.984E-03
RMM:  12    -0.413297742397E+03   -0.32179E-05   -0.14132E-05  4182   0.525E-03    0.359E-03
RMM:  13    -0.413297749544E+03   -0.71472E-05   -0.41623E-06  2961   0.288E-03    0.232E-03
RMM:  14    -0.413297756725E+03   -0.71811E-05   -0.13698E-06  2549   0.200E-03    0.103E-03
RMM:  15    -0.413297763863E+03   -0.71374E-05   -0.11402E-06  2542   0.165E-03    0.725E-04
RMM:  16    -0.413297772072E+03   -0.82095E-05   -0.13193E-06  2535   0.154E-03    0.495E-04
RMM:  17    -0.413297777600E+03   -0.55280E-05   -0.87945E-07  2096   0.114E-03    0.324E-04
RMM:  18    -0.413297784073E+03   -0.64724E-05   -0.12834E-06  2532   0.137E-03    0.303E-04
RMM:  19    -0.413297786488E+03   -0.24158E-05   -0.41579E-07  1494   0.778E-04    0.165E-04
RMM:  20    -0.413297788457E+03   -0.19685E-05   -0.22903E-07  1396   0.703E-04    0.104E-04
RMM:  21    -0.413297790126E+03   -0.16690E-05   -0.14927E-07  1302   0.649E-04    0.863E-05
RMM:  22    -0.413297791035E+03   -0.90928E-06   -0.74012E-08  1022   0.578E-04
  148 T=   191. E= -.41235795E+03 F= -.41329779E+03 E0= -.41327689E+03  EK= 0.93984E+00 SP= 0.00E+00 SK= 0.00E+00
       N       E                     dE             d eps       ncg     rms          rms(c)
RMM:   1    -0.413586868679E+03   -0.28908E+00   -0.22666E+01  4264   0.834E+00    0.123E+00
RMM:   2    -0.413386404055E+03    0.20046E+00   -0.93784E-01  5439   0.105E+00    0.113E+00
RMM:   3    -0.413420151690E+03   -0.33748E-01   -0.17523E-01  5496   0.453E-01    0.131E+00
RMM:   4    -0.413364506706E+03    0.55645E-01   -0.74154E-02  5216   0.323E-01    0.702E-01
RMM:   5    -0.413360454852E+03    0.40519E-02   -0.17640E-02  4420   0.198E-01    0.267E-01
RMM:   6    -0.413361132771E+03   -0.67792E-03   -0.11453E-02  5144   0.136E-01    0.140E-01
RMM:   7    -0.413360302576E+03    0.83020E-03   -0.36254E-03  5191   0.735E-02    0.767E-02
RMM:   8    -0.413360191587E+03    0.11099E-03   -0.93770E-04  5515   0.388E-02    0.441E-02
RMM:   9    -0.413360157391E+03    0.34197E-04   -0.39843E-04  4947   0.251E-02    0.268E-02
RMM:  10    -0.413360139843E+03    0.17548E-04   -0.12399E-04  5499   0.140E-02    0.128E-02
RMM:  11    -0.413360141372E+03   -0.15293E-05   -0.48428E-05  5612   0.766E-03    0.978E-03
RMM:  12    -0.413360140342E+03    0.10300E-05   -0.14384E-05  4231   0.523E-03    0.329E-03
RMM:  13    -0.413360142270E+03   -0.19272E-05   -0.38338E-06  2882   0.268E-03    0.239E-03
RMM:  14    -0.413360144072E+03   -0.18020E-05   -0.99379E-07  2497   0.176E-03    0.968E-04
RMM:  15    -0.413360145603E+03   -0.15315E-05   -0.65645E-07  2348   0.130E-03    0.563E-04
RMM:  16    -0.413360147173E+03   -0.15701E-05   -0.59906E-07  2252   0.113E-03    0.330E-04
RMM:  17    -0.413360147937E+03   -0.76360E-06   -0.31926E-07  1556   0.811E-04
  149 T=   200. E= -.41237832E+03 F= -.41336015E+03 E0= -.41333893E+03  EK= 0.98183E+00 SP= 0.00E+00 SK= 0.00E+00
       N       E                     dE             d eps       ncg     rms          rms(c)
RMM:   1    -0.413389876902E+03   -0.29730E-01   -0.24110E+01  4267   0.848E+00    0.200E+00
RMM:   2    -0.413191526671E+03    0.19835E+00   -0.11281E+00  5434   0.111E+00    0.174E+00
RMM:   3    -0.413327527510E+03   -0.13600E+00   -0.29382E-01  5489   0.564E-01    0.211E+00
RMM:   4    -0.413190350046E+03    0.13718E+00   -0.16052E-01  5148   0.455E-01    0.103E+00
RMM:   5    -0.413178220663E+03    0.12129E-01   -0.76928E-02  4679   0.382E-01    0.289E-01
RMM:   6    -0.413175939216E+03    0.22814E-02   -0.87979E-03  5100   0.134E-01    0.138E-01
RMM:   7    -0.413175729260E+03    0.20996E-03   -0.25971E-03  5347   0.616E-02    0.830E-02
RMM:   8    -0.413175623374E+03    0.10589E-03   -0.15457E-03  5293   0.467E-02    0.524E-02
RMM:   9    -0.413175585155E+03    0.38219E-04   -0.48537E-04  5310   0.280E-02    0.353E-02
RMM:  10    -0.413175563632E+03    0.21522E-04   -0.14943E-04  5494   0.155E-02    0.158E-02
RMM:  11    -0.413175567866E+03   -0.42337E-05   -0.76757E-05  5769   0.948E-03    0.106E-02
RMM:  12    -0.413175566358E+03    0.15082E-05   -0.14694E-05  4307   0.537E-03    0.387E-03
RMM:  13    -0.413175567197E+03   -0.83935E-06   -0.48934E-06  3066   0.295E-03
  150 T=   157. E= -.41240426E+03 F= -.41317557E+03 E0= -.41315388E+03  EK= 0.77130E+00 SP= 0.00E+00 SK= 0.00E+00
