       N       E                     dE             d eps       ncg     rms          rms(c)
RMM:   1     0.220134936483E+04    0.22013E+04   -0.52442E+04  2132   0.654E+02
RMM:   2     0.705547316133E+03   -0.14958E+04   -0.16262E+04  2132   0.177E+02
RMM:   3     0.137242872327E+03   -0.56830E+03   -0.65790E+03  2132   0.117E+02
RMM:   4    -0.159227938933E+03   -0.29647E+03   -0.27860E+03  2132   0.936E+01
RMM:   5    -0.287534550732E+03   -0.12831E+03   -0.11442E+03  2132   0.595E+01
RMM:   6    -0.349782144155E+03   -0.62248E+02   -0.55107E+02  2132   0.423E+01
RMM:   7    -0.382664834388E+03   -0.32883E+02   -0.30407E+02  2132   0.293E+01
RMM:   8    -0.404166542231E+03   -0.21502E+02   -0.18416E+02  2132   0.233E+01
RMM:   9    -0.435978125314E+03   -0.31812E+02   -0.30758E+02  6103   0.173E+01
RMM:  10    -0.441236845105E+03   -0.52587E+01   -0.62689E+01  6396   0.538E+00
RMM:  11    -0.442514560934E+03   -0.12777E+01   -0.11212E+01  6230   0.174E+00
RMM:  12    -0.442902117338E+03   -0.38756E+00   -0.28417E+00  6376   0.611E-01    0.134E+02
RMM:  13    -0.425652370465E+03    0.17250E+02   -0.81015E+01  4668   0.120E+01    0.712E+01
RMM:  14    -0.500312053249E+03   -0.74660E+02   -0.54359E+02  5412   0.233E+01    0.308E+01
RMM:  15    -0.417269762738E+03    0.83042E+02   -0.20357E+02  5117   0.164E+01    0.796E+00
RMM:  16    -0.414033960401E+03    0.32358E+01   -0.40309E+01  6098   0.618E+00    0.432E+00
RMM:  17    -0.413210038277E+03    0.82392E+00   -0.26776E+00  5405   0.193E+00    0.244E+00
RMM:  18    -0.413178486631E+03    0.31552E-01   -0.74016E-01  5993   0.882E-01    0.171E+00
RMM:  19    -0.413174865803E+03    0.36208E-02   -0.24480E-01  5677   0.544E-01    0.928E-01
RMM:  20    -0.413196471057E+03   -0.21605E-01   -0.34748E-01  5579   0.604E-01    0.700E-01
RMM:  21    -0.413170042993E+03    0.26428E-01   -0.37055E-02  4968   0.258E-01    0.330E-01
RMM:  22    -0.413165424521E+03    0.46185E-02   -0.28820E-02  5815   0.168E-01    0.138E-01
RMM:  23    -0.413164660848E+03    0.76367E-03   -0.58040E-03  6019   0.687E-02    0.845E-02
RMM:  24    -0.413163591852E+03    0.10690E-02   -0.17025E-03  5315   0.415E-02    0.567E-02
RMM:  25    -0.413162887700E+03    0.70415E-03   -0.85754E-04  4990   0.298E-02    0.415E-02
RMM:  26    -0.413162979198E+03   -0.91498E-04   -0.12052E-03  5777   0.354E-02    0.356E-02
RMM:  27    -0.413163362770E+03   -0.38357E-03   -0.21226E-04  4622   0.201E-02    0.207E-02
RMM:  28    -0.413163792167E+03   -0.42940E-03   -0.16340E-04  5107   0.175E-02    0.100E-02
RMM:  29    -0.413164178318E+03   -0.38615E-03   -0.11989E-04  4780   0.155E-02    0.491E-03
RMM:  30    -0.413164436641E+03   -0.25832E-03   -0.87716E-05  4288   0.111E-02    0.438E-03
RMM:  31    -0.413164592197E+03   -0.15556E-03   -0.65123E-05  3391   0.788E-03    0.385E-03
RMM:  32    -0.413164623060E+03   -0.30864E-04   -0.24818E-05  2995   0.331E-03    0.218E-03
RMM:  33    -0.413164637568E+03   -0.14507E-04   -0.10161E-05  2810   0.230E-03    0.888E-04
RMM:  34    -0.413164641223E+03   -0.36553E-05   -0.54788E-06  2663   0.167E-03    0.468E-04
RMM:  35    -0.413164642021E+03   -0.79783E-06   -0.25179E-06  2428   0.137E-03
    1 T=    61. E= -.41286686E+03 F= -.41316464E+03 E0= -.41314214E+03  EK= 0.29778E+00 SP= 0.00E+00 SK= 0.00E+00
       N       E                     dE             d eps       ncg     rms          rms(c)
RMM:   1    -0.413159581870E+03    0.50594E-02   -0.99237E+00  3994   0.652E-01    0.885E-01
RMM:   2    -0.413167447510E+03   -0.78656E-02   -0.12151E-01  4014   0.937E-02    0.647E-01
RMM:   3    -0.413164493913E+03    0.29536E-02   -0.11107E-02  4671   0.411E-02    0.101E-01
RMM:   4    -0.413178777711E+03   -0.14284E-01   -0.15063E-02  5210   0.102E-01    0.501E-01
RMM:   5    -0.413164286339E+03    0.14491E-01   -0.72645E-03  4861   0.838E-02    0.397E-02
RMM:   6    -0.413164381314E+03   -0.94975E-04   -0.13043E-03  5784   0.348E-02    0.283E-02
RMM:   7    -0.413164380551E+03    0.76227E-06   -0.27790E-04  5620   0.154E-02    0.158E-02
RMM:   8    -0.413164380606E+03   -0.54519E-07   -0.27701E-05  4439   0.589E-03    0.673E-03
RMM:   9    -0.413164384378E+03   -0.37724E-05   -0.59019E-06  3028   0.266E-03    0.509E-03
RMM:  10    -0.413164389515E+03   -0.51370E-05   -0.15391E-06  2533   0.187E-03    0.300E-03
RMM:  11    -0.413164395470E+03   -0.59545E-05   -0.13039E-06  2523   0.165E-03    0.132E-03
RMM:  12    -0.413164400967E+03   -0.54975E-05   -0.98118E-07  2462   0.140E-03    0.587E-04
RMM:  13    -0.413164401995E+03   -0.10272E-05   -0.45117E-07  2029   0.957E-04    0.374E-04
RMM:  14    -0.413164402965E+03   -0.97024E-06   -0.28123E-07  1510   0.739E-04
    2 T=    61. E= -.41286671E+03 F= -.41316440E+03 E0= -.41314190E+03  EK= 0.29769E+00 SP= 0.00E+00 SK= 0.00E+00
       N       E                     dE             d eps       ncg     rms          rms(c)
RMM:   1    -0.413160673134E+03    0.37289E-02   -0.99366E+00  4192   0.657E-01    0.906E-01
RMM:   2    -0.413167470777E+03   -0.67976E-02   -0.11967E-01  4024   0.925E-02    0.641E-01
RMM:   3    -0.413165259970E+03    0.22108E-02   -0.11031E-02  4884   0.433E-02    0.131E-01
RMM:   4    -0.413193784007E+03   -0.28524E-01   -0.29650E-02  5175   0.144E-01    0.704E-01
RMM:   5    -0.413164775208E+03    0.29009E-01   -0.14050E-02  4829   0.118E-01    0.469E-02
RMM:   6    -0.413164948899E+03   -0.17369E-03   -0.23826E-03  5770   0.477E-02    0.314E-02
RMM:   7    -0.413164944539E+03    0.43596E-05   -0.39124E-04  5721   0.180E-02    0.192E-02
RMM:   8    -0.413164938810E+03    0.57289E-05   -0.56494E-05  5093   0.800E-03    0.869E-03
RMM:   9    -0.413164937449E+03    0.13614E-05   -0.11519E-05  3752   0.375E-03    0.650E-03
RMM:  10    -0.413164937822E+03   -0.37315E-06   -0.17843E-06  2570   0.208E-03
    3 T=    61. E= -.41286703E+03 F= -.41316494E+03 E0= -.41314244E+03  EK= 0.29790E+00 SP= 0.00E+00 SK= 0.00E+00
       N       E                     dE             d eps       ncg     rms          rms(c)
RMM:   1    -0.413160138464E+03    0.47990E-02   -0.98600E+00  4221   0.658E-01    0.891E-01
RMM:   2    -0.413167221044E+03   -0.70826E-02   -0.11907E-01  4168   0.918E-02    0.635E-01
RMM:   3    -0.413168382836E+03   -0.11618E-02   -0.13438E-02  5138   0.698E-02    0.277E-01
RMM:   4    -0.413195021882E+03   -0.26639E-01   -0.41826E-02  5129   0.173E-01    0.720E-01
RMM:   5    -0.413164650101E+03    0.30372E-01   -0.12578E-02  4741   0.119E-01    0.590E-02
RMM:   6    -0.413164710868E+03   -0.60767E-04   -0.22654E-03  5543   0.474E-02    0.291E-02
RMM:   7    -0.413164731986E+03   -0.21118E-04   -0.37935E-04  6041   0.170E-02    0.181E-02
RMM:   8    -0.413164730545E+03    0.14412E-05   -0.68261E-05  5259   0.902E-03    0.789E-03
RMM:   9    -0.413164728560E+03    0.19850E-05   -0.97275E-06  3508   0.374E-03    0.392E-03
RMM:  10    -0.413164729850E+03   -0.12902E-05   -0.21356E-06  2595   0.218E-03    0.261E-03
RMM:  11    -0.413164731660E+03   -0.18095E-05   -0.14473E-06  2534   0.187E-03    0.153E-03
RMM:  12    -0.413164732564E+03   -0.90430E-06   -0.76439E-07  2494   0.143E-03
    4 T=    61. E= -.41286681E+03 F= -.41316473E+03 E0= -.41314224E+03  EK= 0.29792E+00 SP= 0.00E+00 SK= 0.00E+00
       N       E                     dE             d eps       ncg     rms          rms(c)
RMM:   1    -0.413160097719E+03    0.46339E-02   -0.99149E+00  4237   0.664E-01    0.883E-01
RMM:   2    -0.413167768226E+03   -0.76705E-02   -0.12151E-01  3905   0.893E-02    0.645E-01
RMM:   3    -0.413165250971E+03    0.25173E-02   -0.11185E-02  4959   0.417E-02    0.122E-01
RMM:   4    -0.413194964920E+03   -0.29714E-01   -0.31013E-02  5151   0.147E-01    0.719E-01
RMM:   5    -0.413164689011E+03    0.30276E-01   -0.14577E-02  4817   0.120E-01    0.459E-02
RMM:   6    -0.413164874347E+03   -0.18534E-03   -0.24499E-03  5778   0.481E-02    0.295E-02
RMM:   7    -0.413164884051E+03   -0.97038E-05   -0.38346E-04  5779   0.177E-02    0.189E-02
RMM:   8    -0.413164883573E+03    0.47866E-06   -0.60957E-05  5046   0.819E-03    0.887E-03
RMM:   9    -0.413164884851E+03   -0.12782E-05   -0.11919E-05  3818   0.391E-03    0.655E-03
RMM:  10    -0.413164889066E+03   -0.42148E-05   -0.17622E-06  2568   0.207E-03    0.420E-03
RMM:  11    -0.413164893929E+03   -0.48632E-05   -0.14243E-06  2541   0.184E-03    0.205E-03
RMM:  12    -0.413164899598E+03   -0.56695E-05   -0.16120E-06  2571   0.181E-03    0.901E-04
RMM:  13    -0.413164900464E+03   -0.86609E-06   -0.44055E-07  2269   0.114E-03
    5 T=    61. E= -.41286685E+03 F= -.41316490E+03 E0= -.41314242E+03  EK= 0.29805E+00 SP= 0.00E+00 SK= 0.00E+00
       N       E                     dE             d eps       ncg     rms          rms(c)
RMM:   1    -0.413160941992E+03    0.39576E-02   -0.99412E+00  4251   0.673E-01    0.902E-01
RMM:   2    -0.413167774809E+03   -0.68328E-02   -0.12001E-01  3958   0.902E-02    0.643E-01
RMM:   3    -0.413165501438E+03    0.22734E-02   -0.10966E-02  4762   0.397E-02    0.117E-01
RMM:   4    -0.413184791467E+03   -0.19290E-01   -0.19658E-02  5157   0.117E-01    0.582E-01
RMM:   5    -0.413165206465E+03    0.19585E-01   -0.96377E-03  4832   0.966E-02    0.417E-02
RMM:   6    -0.413165327959E+03   -0.12149E-03   -0.16242E-03  5799   0.391E-02    0.268E-02
RMM:   7    -0.413165328939E+03   -0.97910E-06   -0.28381E-04  5662   0.162E-02    0.171E-02
RMM:   8    -0.413165321207E+03    0.77312E-05   -0.48094E-05  4882   0.760E-03    0.820E-03
RMM:   9    -0.413165320248E+03    0.95970E-06   -0.95897E-06  3595   0.354E-03
    6 T=    61. E= -.41286701E+03 F= -.41316532E+03 E0= -.41314286E+03  EK= 0.29831E+00 SP= 0.00E+00 SK= 0.00E+00
       N       E                     dE             d eps       ncg     rms          rms(c)
RMM:   1    -0.413160630282E+03    0.46909E-02   -0.98896E+00  4271   0.672E-01    0.898E-01
RMM:   2    -0.413167560135E+03   -0.69299E-02   -0.11931E-01  4329   0.926E-02    0.636E-01
RMM:   3    -0.413173490494E+03   -0.59304E-02   -0.17421E-02  5162   0.916E-02    0.403E-01
RMM:   4    -0.413182487635E+03   -0.89971E-02   -0.34847E-02  5075   0.162E-01    0.548E-01
RMM:   5    -0.413165192984E+03    0.17295E-01   -0.60434E-03  4640   0.909E-02    0.588E-02
RMM:   6    -0.413165116219E+03    0.76765E-04   -0.12357E-03  5290   0.356E-02    0.290E-02
RMM:   7    -0.413165130590E+03   -0.14370E-04   -0.28868E-04  5973   0.166E-02    0.180E-02
RMM:   8    -0.413165124032E+03    0.65573E-05   -0.56918E-05  5160   0.879E-03    0.718E-03
RMM:   9    -0.413165120689E+03    0.33436E-05   -0.10396E-05  3920   0.406E-03    0.369E-03
RMM:  10    -0.413165120763E+03   -0.74528E-07   -0.12760E-06  2518   0.199E-03
    7 T=    61. E= -.41286673E+03 F= -.41316512E+03 E0= -.41314267E+03  EK= 0.29839E+00 SP= 0.00E+00 SK= 0.00E+00
       N       E                     dE             d eps       ncg     rms          rms(c)
RMM:   1    -0.413161030151E+03    0.40905E-02   -0.99024E+00  4270   0.684E-01    0.881E-01
RMM:   2    -0.413168603551E+03   -0.75734E-02   -0.12155E-01  4077   0.943E-02    0.643E-01
RMM:   3    -0.413166015725E+03    0.25878E-02   -0.11023E-02  4850   0.448E-02    0.121E-01
RMM:   4    -0.413193740568E+03   -0.27725E-01   -0.28741E-02  5146   0.141E-01    0.695E-01
RMM:   5    -0.413165500869E+03    0.28240E-01   -0.13652E-02  4812   0.116E-01    0.458E-02
RMM:   6    -0.413165679675E+03   -0.17881E-03   -0.23431E-03  5749   0.469E-02    0.298E-02
RMM:   7    -0.413165681952E+03   -0.22774E-05   -0.38131E-04  5777   0.174E-02    0.185E-02
RMM:   8    -0.413165679782E+03    0.21704E-05   -0.50777E-05  4977   0.760E-03    0.816E-03
RMM:   9    -0.413165680863E+03   -0.10809E-05   -0.10630E-05  3611   0.362E-03    0.624E-03
RMM:  10    -0.413165683638E+03   -0.27750E-05   -0.16279E-06  2557   0.202E-03    0.398E-03
RMM:  11    -0.413165687013E+03   -0.33757E-05   -0.14017E-06  2535   0.181E-03    0.187E-03
RMM:  12    -0.413165690496E+03   -0.34828E-05   -0.14865E-06  2554   0.173E-03    0.831E-04
RMM:  13    -0.413165690832E+03   -0.33601E-06   -0.39475E-07  2218   0.108E-03
    8 T=    61. E= -.41286698E+03 F= -.41316569E+03 E0= -.41314326E+03  EK= 0.29871E+00 SP= 0.00E+00 SK= 0.00E+00
       N       E                     dE             d eps       ncg     rms          rms(c)
RMM:   1    -0.413161689368E+03    0.40011E-02   -0.99539E+00  4286   0.695E-01    0.897E-01
RMM:   2    -0.413168701429E+03   -0.70121E-02   -0.12227E-01  4124   0.947E-02    0.646E-01
RMM:   3    -0.413166111430E+03    0.25900E-02   -0.10989E-02  4753   0.425E-02    0.117E-01
RMM:   4    -0.413187711754E+03   -0.21600E-01   -0.22096E-02  5150   0.124E-01    0.616E-01
RMM:   5    -0.413165753470E+03    0.21958E-01   -0.10806E-02  4815   0.102E-01    0.425E-02
RMM:   6    -0.413165892718E+03   -0.13925E-03   -0.18579E-03  5816   0.410E-02    0.277E-02
RMM:   7    -0.413165895070E+03   -0.23522E-05   -0.30203E-04  5680   0.165E-02    0.175E-02
RMM:   8    -0.413165888326E+03    0.67437E-05   -0.52088E-05  4918   0.780E-03    0.853E-03
RMM:   9    -0.413165886944E+03    0.13822E-05   -0.10300E-05  3684   0.369E-03    0.664E-03
RMM:  10    -0.413165887620E+03   -0.67643E-06   -0.15161E-06  2540   0.206E-03
    9 T=    61. E= -.41286694E+03 F= -.41316589E+03 E0= -.41314348E+03  EK= 0.29895E+00 SP= 0.00E+00 SK= 0.00E+00
       N       E                     dE             d eps       ncg     rms          rms(c)
RMM:   1    -0.413162107126E+03    0.37798E-02   -0.99309E+00  4295   0.698E-01    0.904E-01
RMM:   2    -0.413168412689E+03   -0.63056E-02   -0.11939E-01  4251   0.930E-02    0.638E-01
RMM:   3    -0.413169073469E+03   -0.66078E-03   -0.13197E-02  5096   0.682E-02    0.262E-01
RMM:   4    -0.413198114080E+03   -0.29041E-01   -0.42573E-02  5115   0.174E-01    0.741E-01
RMM:   5    -0.413165826989E+03    0.32287E-01   -0.13747E-02  4745   0.122E-01    0.582E-02
RMM:   6    -0.413165916328E+03   -0.89339E-04   -0.24276E-03  5581   0.487E-02    0.300E-02
RMM:   7    -0.413165929197E+03   -0.12869E-04   -0.38646E-04  6005   0.170E-02    0.184E-02
RMM:   8    -0.413165924474E+03    0.47237E-05   -0.67292E-05  5225   0.889E-03    0.799E-03
RMM:   9    -0.413165919569E+03    0.49043E-05   -0.99365E-06  3493   0.371E-03    0.406E-03
RMM:  10    -0.413165918411E+03    0.11578E-05   -0.23314E-06  2599   0.223E-03    0.277E-03
RMM:  11    -0.413165916668E+03    0.17433E-05   -0.12881E-06  2519   0.180E-03    0.147E-03
RMM:  12    -0.413165914808E+03    0.18602E-05   -0.77415E-07  2482   0.141E-03    0.502E-04
RMM:  13    -0.413165913868E+03    0.94036E-06   -0.38169E-07  2093   0.100E-03
   10 T=    61. E= -.41286676E+03 F= -.41316591E+03 E0= -.41314353E+03  EK= 0.29916E+00 SP= 0.00E+00 SK= 0.00E+00
       N       E                     dE             d eps       ncg     rms          rms(c)
RMM:   1    -0.413164639269E+03    0.12755E-02   -0.99175E+00  4287   0.716E-01    0.882E-01
RMM:   2    -0.413169454517E+03   -0.48152E-02   -0.12051E-01  4206   0.942E-02    0.641E-01
RMM:   3    -0.413167082272E+03    0.23722E-02   -0.11049E-02  4857   0.460E-02    0.127E-01
RMM:   4    -0.413197679272E+03   -0.30597E-01   -0.31964E-02  5139   0.148E-01    0.729E-01
RMM:   5    -0.413166480911E+03    0.31198E-01   -0.15083E-02  4799   0.121E-01    0.467E-02
RMM:   6    -0.413166674799E+03   -0.19389E-03   -0.25874E-03  5767   0.488E-02    0.302E-02
RMM:   7    -0.413166677310E+03   -0.25108E-05   -0.39532E-04  5737   0.179E-02    0.194E-02
RMM:   8    -0.413166672432E+03    0.48779E-05   -0.61388E-05  5048   0.827E-03    0.918E-03
RMM:   9    -0.413166670922E+03    0.15097E-05   -0.12595E-05  3879   0.400E-03    0.683E-03
RMM:  10    -0.413166672004E+03   -0.10815E-05   -0.17778E-06  2560   0.210E-03    0.437E-03
RMM:  11    -0.413166673340E+03   -0.13367E-05   -0.14609E-06  2542   0.188E-03    0.214E-03
RMM:  12    -0.413166674790E+03   -0.14498E-05   -0.15376E-06  2551   0.183E-03    0.857E-04
RMM:  13    -0.413166674963E+03   -0.17245E-06   -0.44212E-07  2279   0.116E-03
   11 T=    61. E= -.41286704E+03 F= -.41316667E+03 E0= -.41314432E+03  EK= 0.29963E+00 SP= 0.00E+00 SK= 0.00E+00
       N       E                     dE             d eps       ncg     rms          rms(c)
RMM:   1    -0.413162072839E+03    0.46020E-02   -0.99644E+00  4291   0.698E-01    0.893E-01
RMM:   2    -0.413169457268E+03   -0.73844E-02   -0.12166E-01  4210   0.942E-02    0.648E-01
RMM:   3    -0.413166915911E+03    0.25414E-02   -0.11114E-02  4787   0.424E-02    0.117E-01
RMM:   4    -0.413191323555E+03   -0.24408E-01   -0.25203E-02  5139   0.132E-01    0.653E-01
RMM:   5    -0.413166495841E+03    0.24828E-01   -0.12114E-02  4806   0.108E-01    0.436E-02
RMM:   6    -0.413166651283E+03   -0.15544E-03   -0.20889E-03  5800   0.433E-02    0.280E-02
RMM:   7    -0.413166655910E+03   -0.46268E-05   -0.32361E-04  5700   0.168E-02    0.179E-02
RMM:   8    -0.413166649596E+03    0.63142E-05   -0.57665E-05  4960   0.805E-03    0.883E-03
RMM:   9    -0.413166648045E+03    0.15510E-05   -0.11413E-05  3807   0.386E-03    0.680E-03
RMM:  10    -0.413166648864E+03   -0.81878E-06   -0.15760E-06  2547   0.206E-03
   12 T=    61. E= -.41286673E+03 F= -.41316665E+03 E0= -.41314432E+03  EK= 0.29992E+00 SP= 0.00E+00 SK= 0.00E+00
       N       E                     dE             d eps       ncg     rms          rms(c)
RMM:   1    -0.413163184600E+03    0.34634E-02   -0.99657E+00  4302   0.706E-01    0.909E-01
RMM:   2    -0.413169444811E+03   -0.62602E-02   -0.11992E-01  4271   0.907E-02    0.641E-01
RMM:   3    -0.413170637573E+03   -0.11928E-02   -0.13547E-02  5125   0.667E-02    0.271E-01
RMM:   4    -0.413198466474E+03   -0.27829E-01   -0.42509E-02  5106   0.174E-01    0.731E-01
RMM:   5    -0.413167127634E+03    0.31339E-01   -0.13211E-02  4730   0.120E-01    0.580E-02
RMM:   6    -0.413167211424E+03   -0.83790E-04   -0.23452E-03  5572   0.479E-02    0.301E-02
RMM:   7    -0.413167219951E+03   -0.85270E-05   -0.38163E-04  6001   0.170E-02    0.186E-02
RMM:   8    -0.413167213037E+03    0.69132E-05   -0.67438E-05  5211   0.895E-03    0.809E-03
RMM:   9    -0.413167206801E+03    0.62364E-05   -0.97494E-06  3496   0.374E-03    0.407E-03
RMM:  10    -0.413167204776E+03    0.20250E-05   -0.22559E-06  2585   0.221E-03    0.275E-03
RMM:  11    -0.413167201788E+03    0.29884E-05   -0.12846E-06  2517   0.179E-03    0.146E-03
RMM:  12    -0.413167198973E+03    0.28147E-05   -0.74297E-07  2474   0.140E-03    0.501E-04
RMM:  13    -0.413167197568E+03    0.14050E-05   -0.36011E-07  2075   0.991E-04    0.312E-04
RMM:  14    -0.413167196309E+03    0.12589E-05   -0.21519E-07  1611   0.795E-04    0.216E-04
RMM:  15    -0.413167194327E+03    0.19817E-05   -0.19355E-07  1459   0.743E-04    0.116E-04
RMM:  16    -0.413167192394E+03    0.19338E-05   -0.15708E-07  1415   0.699E-04    0.120E-04
RMM:  17    -0.413167190355E+03    0.20388E-05   -0.13954E-07  1336   0.664E-04    0.634E-05
RMM:  18    -0.413167189128E+03    0.12267E-05   -0.78821E-08  1062   0.588E-04    0.321E-05
RMM:  19    -0.413167188429E+03    0.69863E-06   -0.43959E-08   871   0.547E-04
   13 T=    61. E= -.41286680E+03 F= -.41316719E+03 E0= -.41314489E+03  EK= 0.30039E+00 SP= 0.00E+00 SK= 0.00E+00
       N       E                     dE             d eps       ncg     rms          rms(c)
RMM:   1    -0.413163096566E+03    0.40926E-02   -0.98950E+00  4293   0.703E-01    0.886E-01
RMM:   2    -0.413170474081E+03   -0.73775E-02   -0.12060E-01  4218   0.916E-02    0.639E-01
RMM:   3    -0.413168379409E+03    0.20947E-02   -0.11019E-02  4919   0.448E-02    0.136E-01
RMM:   4    -0.413202056038E+03   -0.33677E-01   -0.35651E-02  5138   0.157E-01    0.764E-01
RMM:   5    -0.413167676480E+03    0.34380E-01   -0.16578E-02  4792   0.127E-01    0.487E-02
RMM:   6    -0.413167885092E+03   -0.20861E-03   -0.28666E-03  5759   0.510E-02    0.313E-02
RMM:   7    -0.413167887118E+03   -0.20263E-05   -0.42201E-04  5730   0.184E-02    0.200E-02
RMM:   8    -0.413167881041E+03    0.60775E-05   -0.65195E-05  5111   0.850E-03    0.948E-03
RMM:   9    -0.413167878027E+03    0.30138E-05   -0.13615E-05  4003   0.414E-03    0.685E-03
RMM:  10    -0.413167877778E+03    0.24895E-06   -0.18860E-06  2560   0.211E-03
   14 T=    61. E= -.41286699E+03 F= -.41316788E+03 E0= -.41314561E+03  EK= 0.30089E+00 SP= 0.00E+00 SK= 0.00E+00
       N       E                     dE             d eps       ncg     rms          rms(c)
RMM:   1    -0.413163228874E+03    0.46492E-02   -0.99810E+00  4304   0.708E-01    0.890E-01
RMM:   2    -0.413170935643E+03   -0.77068E-02   -0.12226E-01  4298   0.948E-02    0.650E-01
RMM:   3    -0.413172970065E+03   -0.20344E-02   -0.15059E-02  5132   0.772E-02    0.317E-01
RMM:   4    -0.413196684586E+03   -0.23715E-01   -0.43487E-02  5089   0.177E-01    0.700E-01
RMM:   5    -0.413167807607E+03    0.28877E-01   -0.11407E-02  4694   0.114E-01    0.577E-02
RMM:   6    -0.413167859459E+03   -0.51852E-04   -0.21328E-03  5517   0.452E-02    0.281E-02
RMM:   7    -0.413167879438E+03   -0.19979E-04   -0.34602E-04  5991   0.166E-02    0.176E-02
RMM:   8    -0.413167879366E+03    0.72345E-07   -0.65902E-05  5207   0.885E-03    0.767E-03
RMM:   9    -0.413167877267E+03    0.20984E-05   -0.93202E-06  3430   0.374E-03    0.375E-03
RMM:  10    -0.413167878351E+03   -0.10840E-05   -0.19700E-06  2561   0.212E-03    0.248E-03
RMM:  11    -0.413167879854E+03   -0.15027E-05   -0.14534E-06  2530   0.185E-03    0.152E-03
RMM:  12    -0.413167880293E+03   -0.43860E-06   -0.69973E-07  2460   0.139E-03
   15 T=    61. E= -.41286667E+03 F= -.41316788E+03 E0= -.41314565E+03  EK= 0.30121E+00 SP= 0.00E+00 SK= 0.00E+00
       N       E                     dE             d eps       ncg     rms          rms(c)
RMM:   1    -0.413164681277E+03    0.31986E-02   -0.99933E+00  4302   0.711E-01    0.911E-01
RMM:   2    -0.413171538309E+03   -0.68570E-02   -0.12061E-01  4234   0.953E-02    0.644E-01
RMM:   3    -0.413169481006E+03    0.20573E-02   -0.11355E-02  4926   0.467E-02    0.145E-01
RMM:   4    -0.413204608278E+03   -0.35127E-01   -0.37366E-02  5136   0.160E-01    0.780E-01
RMM:   5    -0.413168724046E+03    0.35884E-01   -0.17291E-02  4789   0.130E-01    0.501E-02
RMM:   6    -0.413168935443E+03   -0.21140E-03   -0.30407E-03  5763   0.525E-02    0.326E-02
RMM:   7    -0.413168932855E+03    0.25881E-05   -0.44348E-04  5752   0.192E-02    0.210E-02
RMM:   8    -0.413168922085E+03    0.10770E-04   -0.71622E-05  5126   0.891E-03    0.103E-02
RMM:   9    -0.413168915440E+03    0.66449E-05   -0.14371E-05  4076   0.428E-03    0.740E-03
RMM:  10    -0.413168911579E+03    0.38604E-05   -0.20671E-06  2581   0.221E-03    0.469E-03
RMM:  11    -0.413168908334E+03    0.32459E-05   -0.13882E-06  2528   0.184E-03    0.253E-03
RMM:  12    -0.413168902945E+03    0.53884E-05   -0.17617E-06  2563   0.201E-03    0.959E-04
RMM:  13    -0.413168901041E+03    0.19045E-05   -0.54925E-07  2363   0.130E-03    0.708E-04
RMM:  14    -0.413168901169E+03   -0.12862E-06   -0.24422E-07  1925   0.864E-04
   16 T=    61. E= -.41286702E+03 F= -.41316890E+03 E0= -.41314670E+03  EK= 0.30189E+00 SP= 0.00E+00 SK= 0.00E+00
       N       E                     dE             d eps       ncg     rms          rms(c)
RMM:   1    -0.413164818974E+03    0.40821E-02   -0.99188E+00  4296   0.713E-01    0.892E-01
RMM:   2    -0.413172161411E+03   -0.73424E-02   -0.12058E-01  4245   0.960E-02    0.639E-01
RMM:   3    -0.413169719928E+03    0.24415E-02   -0.10875E-02  4816   0.450E-02    0.127E-01
RMM:   4    -0.413197281935E+03   -0.27562E-01   -0.28633E-02  5132   0.140E-01    0.693E-01
RMM:   5    -0.413169214354E+03    0.28068E-01   -0.13707E-02  4803   0.115E-01    0.458E-02
RMM:   6    -0.413169387398E+03   -0.17304E-03   -0.23926E-03  5800   0.461E-02    0.299E-02
RMM:   7    -0.413169385888E+03    0.15098E-05   -0.35888E-04  5687   0.176E-02    0.189E-02
RMM:   8    -0.413169376353E+03    0.95349E-05   -0.62257E-05  4994   0.836E-03    0.939E-03
RMM:   9    -0.413169371675E+03    0.46784E-05   -0.12610E-05  3944   0.405E-03    0.709E-03
RMM:  10    -0.413169369288E+03    0.23865E-05   -0.16953E-06  2552   0.210E-03    0.450E-03
RMM:  11    -0.413169366778E+03    0.25106E-05   -0.14244E-06  2523   0.191E-03    0.222E-03
RMM:  12    -0.413169363450E+03    0.33281E-05   -0.14171E-06  2527   0.183E-03    0.831E-04
RMM:  13    -0.413169362653E+03    0.79678E-06   -0.43254E-07  2257   0.116E-03
   17 T=    62. E= -.41286691E+03 F= -.41316936E+03 E0= -.41314720E+03  EK= 0.30246E+00 SP= 0.00E+00 SK= 0.00E+00
       N       E                     dE             d eps       ncg     rms          rms(c)
RMM:   1    -0.413165305088E+03    0.40584E-02   -0.99987E+00  4298   0.723E-01    0.889E-01
RMM:   2    -0.413172912230E+03   -0.76071E-02   -0.12295E-01  4246   0.952E-02    0.650E-01
RMM:   3    -0.413170220055E+03    0.26922E-02   -0.11389E-02  4849   0.452E-02    0.120E-01
RMM:   4    -0.413198322000E+03   -0.28102E-01   -0.29314E-02  5136   0.142E-01    0.699E-01
RMM:   5    -0.413169693351E+03    0.28629E-01   -0.13981E-02  4797   0.116E-01    0.453E-02
RMM:   6    -0.413169872629E+03   -0.17928E-03   -0.24299E-03  5804   0.464E-02    0.289E-02
RMM:   7    -0.413169876461E+03   -0.38325E-05   -0.35190E-04  5724   0.174E-02    0.184E-02
RMM:   8    -0.413169870447E+03    0.60138E-05   -0.64301E-05  5001   0.839E-03    0.937E-03
RMM:   9    -0.413169867508E+03    0.29393E-05   -0.13087E-05  4016   0.413E-03    0.705E-03
RMM:  10    -0.413169867500E+03    0.78035E-08   -0.16930E-06  2549   0.208E-03
   18 T=    62. E= -.41286677E+03 F= -.41316987E+03 E0= -.41314775E+03  EK= 0.30310E+00 SP= 0.00E+00 SK= 0.00E+00
       N       E                     dE             d eps       ncg     rms          rms(c)
RMM:   1    -0.413166852689E+03    0.30148E-02   -0.10027E+01  4302   0.724E-01    0.910E-01
RMM:   2    -0.413173617356E+03   -0.67647E-02   -0.12166E-01  4326   0.931E-02    0.647E-01
RMM:   3    -0.413175647490E+03   -0.20301E-02   -0.14573E-02  5120   0.742E-02    0.305E-01
RMM:   4    -0.413199428950E+03   -0.23781E-01   -0.41799E-02  5084   0.173E-01    0.695E-01
RMM:   5    -0.413171025629E+03    0.28403E-01   -0.11415E-02  4696   0.114E-01    0.575E-02
RMM:   6    -0.413171082355E+03   -0.56726E-04   -0.21226E-03  5532   0.450E-02    0.297E-02
RMM:   7    -0.413171088091E+03   -0.57366E-05   -0.35068E-04  5983   0.166E-02    0.183E-02
RMM:   8    -0.413171080979E+03    0.71122E-05   -0.65850E-05  5179   0.891E-03    0.787E-03
RMM:   9    -0.413171073974E+03    0.70053E-05   -0.92480E-06  3434   0.373E-03    0.386E-03
RMM:  10    -0.413171071609E+03    0.23651E-05   -0.20549E-06  2568   0.216E-03    0.254E-03
RMM:  11    -0.413171067563E+03    0.40458E-05   -0.12721E-06  2512   0.181E-03    0.145E-03
RMM:  12    -0.413171064189E+03    0.33735E-05   -0.65568E-07  2449   0.137E-03    0.497E-04
RMM:  13    -0.413171062290E+03    0.18999E-05   -0.32520E-07  2031   0.962E-04    0.301E-04
RMM:  14    -0.413171060554E+03    0.17353E-05   -0.19184E-07  1540   0.775E-04    0.208E-04
RMM:  15    -0.413171057805E+03    0.27495E-05   -0.16355E-07  1384   0.728E-04    0.109E-04
RMM:  16    -0.413171055397E+03    0.24074E-05   -0.13129E-07  1375   0.684E-04    0.112E-04
RMM:  17    -0.413171052474E+03    0.29238E-05   -0.12538E-07  1389   0.666E-04    0.599E-05
RMM:  18    -0.413171051108E+03    0.13658E-05   -0.62046E-08   974   0.570E-04    0.367E-05
RMM:  19    -0.413171050310E+03    0.79786E-06   -0.35054E-08   847   0.544E-04
   19 T=    62. E= -.41286706E+03 F= -.41317105E+03 E0= -.41314897E+03  EK= 0.30399E+00 SP= 0.00E+00 SK= 0.00E+00
       N       E                     dE             d eps       ncg     rms          rms(c)
RMM:   1    -0.413167017871E+03    0.40332E-02   -0.99704E+00  4298   0.724E-01    0.900E-01
RMM:   2    -0.413173784735E+03   -0.67669E-02   -0.12111E-01  4242   0.918E-02    0.641E-01
RMM:   3    -0.413172009659E+03    0.17751E-02   -0.11236E-02  4947   0.460E-02    0.148E-01
RMM:   4    -0.413208282794E+03   -0.36273E-01   -0.38932E-02  5129   0.164E-01    0.793E-01
RMM:   5    -0.413171198782E+03    0.37084E-01   -0.18064E-02  4794   0.132E-01    0.502E-02
RMM:   6    -0.413171401885E+03   -0.20310E-03   -0.29677E-03  5753   0.530E-02    0.326E-02
RMM:   7    -0.413171398815E+03    0.30700E-05   -0.44442E-04  5730   0.192E-02    0.206E-02
RMM:   8    -0.413171389363E+03    0.94522E-05   -0.72318E-05  5180   0.896E-03    0.998E-03
RMM:   9    -0.413171382867E+03    0.64961E-05   -0.15031E-05  4117   0.433E-03    0.695E-03
RMM:  10    -0.413171379314E+03    0.35524E-05   -0.20784E-06  2579   0.216E-03    0.446E-03
RMM:  11    -0.413171376226E+03    0.30885E-05   -0.12192E-06  2514   0.175E-03    0.238E-03
RMM:  12    -0.413171371452E+03    0.47735E-05   -0.15576E-06  2541   0.191E-03    0.912E-04
RMM:  13    -0.413171369628E+03    0.18247E-05   -0.50380E-07  2337   0.125E-03    0.684E-04
RMM:  14    -0.413171369782E+03   -0.15448E-06   -0.22923E-07  1865   0.840E-04
   20 T=    62. E= -.41286673E+03 F= -.41317137E+03 E0= -.41314934E+03  EK= 0.30464E+00 SP= 0.00E+00 SK= 0.00E+00
       N       E                     dE             d eps       ncg     rms          rms(c)
RMM:   1    -0.413167799811E+03    0.35698E-02   -0.10019E+01  4295   0.735E-01    0.889E-01
RMM:   2    -0.413175538625E+03   -0.77388E-02   -0.12382E-01  4255   0.949E-02    0.651E-01
RMM:   3    -0.413172873299E+03    0.26653E-02   -0.11403E-02  4856   0.447E-02    0.121E-01
RMM:   4    -0.413200996940E+03   -0.28124E-01   -0.29359E-02  5130   0.142E-01    0.700E-01
RMM:   5    -0.413172349968E+03    0.28647E-01   -0.14106E-02  4804   0.116E-01    0.451E-02
RMM:   6    -0.413172513804E+03   -0.16384E-03   -0.23269E-03  5822   0.460E-02    0.287E-02
RMM:   7    -0.413172517813E+03   -0.40089E-05   -0.34057E-04  5683   0.173E-02    0.179E-02
RMM:   8    -0.413172511352E+03    0.64612E-05   -0.65554E-05  5008   0.845E-03    0.931E-03
RMM:   9    -0.413172507454E+03    0.38984E-05   -0.13233E-05  4019   0.415E-03    0.689E-03
RMM:  10    -0.413172506728E+03    0.72607E-06   -0.16996E-06  2553   0.207E-03
   21 T=    62. E= -.41286693E+03 F= -.41317251E+03 E0= -.41315052E+03  EK= 0.30557E+00 SP= 0.00E+00 SK= 0.00E+00
       N       E                     dE             d eps       ncg     rms          rms(c)
RMM:   1    -0.413169462899E+03    0.30446E-02   -0.10070E+01  4301   0.747E-01    0.908E-01
RMM:   2    -0.413176440607E+03   -0.69777E-02   -0.12294E-01  4305   0.967E-02    0.651E-01
RMM:   3    -0.413177249444E+03   -0.80884E-03   -0.13918E-02  5083   0.703E-02    0.275E-01
RMM:   4    -0.413207104369E+03   -0.29855E-01   -0.45427E-02  5098   0.179E-01    0.754E-01
RMM:   5    -0.413173536241E+03    0.33568E-01   -0.14240E-02  4731   0.124E-01    0.574E-02
RMM:   6    -0.413173630564E+03   -0.94323E-04   -0.25160E-03  5599   0.495E-02    0.300E-02
RMM:   7    -0.413173638058E+03   -0.74946E-05   -0.38953E-04  5962   0.174E-02    0.188E-02
RMM:   8    -0.413173631465E+03    0.65934E-05   -0.70139E-05  5179   0.907E-03    0.824E-03
RMM:   9    -0.413173624629E+03    0.68362E-05   -0.11131E-05  3611   0.391E-03    0.414E-03
RMM:  10    -0.413173622063E+03    0.25661E-05   -0.23954E-06  2602   0.223E-03    0.286E-03
RMM:  11    -0.413173618372E+03    0.36909E-05   -0.11533E-06  2502   0.174E-03    0.149E-03
RMM:  12    -0.413173614538E+03    0.38337E-05   -0.70597E-07  2459   0.139E-03    0.469E-04
RMM:  13    -0.413173612608E+03    0.19304E-05   -0.34449E-07  2066   0.984E-04    0.292E-04
RMM:  14    -0.413173611054E+03    0.15535E-05   -0.19448E-07  1565   0.777E-04    0.196E-04
RMM:  15    -0.413173608598E+03    0.24557E-05   -0.14851E-07  1362   0.713E-04    0.103E-04
RMM:  16    -0.413173606024E+03    0.25740E-05   -0.12199E-07  1325   0.685E-04    0.122E-04
RMM:  17    -0.413173603731E+03    0.22932E-05   -0.97283E-08  1290   0.645E-04    0.702E-05
RMM:  18    -0.413173601586E+03    0.21457E-05   -0.70943E-08  1101   0.597E-04    0.296E-05
RMM:  19    -0.413173600754E+03    0.83131E-06   -0.36178E-08   868   0.547E-04
   22 T=    62. E= -.41286701E+03 F= -.41317360E+03 E0= -.41315166E+03  EK= 0.30659E+00 SP= 0.00E+00 SK= 0.00E+00
       N       E                     dE             d eps       ncg     rms          rms(c)
RMM:   1    -0.413170035895E+03    0.35657E-02   -0.10045E+01  4293   0.739E-01    0.910E-01
RMM:   2    -0.413177071012E+03   -0.70351E-02   -0.12225E-01  4264   0.968E-02    0.645E-01
RMM:   3    -0.413174817957E+03    0.22531E-02   -0.11374E-02  4886   0.480E-02    0.144E-01
RMM:   4    -0.413209153516E+03   -0.34336E-01   -0.36362E-02  5136   0.158E-01    0.771E-01
RMM:   5    -0.413174116287E+03    0.35037E-01   -0.17106E-02  4790   0.129E-01    0.498E-02
RMM:   6    -0.413174315228E+03   -0.19894E-03   -0.29796E-03  5791   0.517E-02    0.327E-02
RMM:   7    -0.413174311540E+03    0.36884E-05   -0.42590E-04  5707   0.190E-02    0.206E-02
RMM:   8    -0.413174300666E+03    0.10874E-04   -0.74359E-05  5125   0.905E-03    0.105E-02
RMM:   9    -0.413174292921E+03    0.77451E-05   -0.15221E-05  4179   0.443E-03    0.750E-03
RMM:  10    -0.413174288135E+03    0.47859E-05   -0.20674E-06  2574   0.222E-03    0.477E-03
RMM:  11    -0.413174284090E+03    0.40454E-05   -0.13266E-06  2517   0.183E-03    0.263E-03
RMM:  12    -0.413174277374E+03    0.67153E-05   -0.17051E-06  2549   0.204E-03    0.981E-04
RMM:  13    -0.413174274985E+03    0.23893E-05   -0.56009E-07  2358   0.133E-03    0.727E-04
RMM:  14    -0.413174275092E+03   -0.10726E-06   -0.24958E-07  1929   0.878E-04
   23 T=    63. E= -.41286672E+03 F= -.41317428E+03 E0= -.41315238E+03  EK= 0.30755E+00 SP= 0.00E+00 SK= 0.00E+00
       N       E                     dE             d eps       ncg     rms          rms(c)
RMM:   1    -0.413174855614E+03   -0.58063E-03   -0.10090E+01  4293   0.784E-01    0.891E-01
RMM:   2    -0.413179099906E+03   -0.42443E-02   -0.12820E-01  4268   0.103E-01    0.651E-01
RMM:   3    -0.413176050709E+03    0.30492E-02   -0.11076E-02  4732   0.457E-02    0.120E-01
RMM:   4    -0.413198851039E+03   -0.22800E-01   -0.23434E-02  5137   0.127E-01    0.631E-01
RMM:   5    -0.413175675435E+03    0.23176E-01   -0.11491E-02  4804   0.104E-01    0.433E-02
RMM:   6    -0.413175804479E+03   -0.12904E-03   -0.19922E-03  5821   0.414E-02    0.269E-02
RMM:   7    -0.413175805864E+03   -0.13849E-05   -0.25132E-04  5686   0.153E-02    0.146E-02
RMM:   8    -0.413175801974E+03    0.38900E-05   -0.55610E-05  4983   0.763E-03    0.937E-03
RMM:   9    -0.413175797095E+03    0.48786E-05   -0.11710E-05  3970   0.396E-03    0.698E-03
RMM:  10    -0.413175795490E+03    0.16053E-05   -0.15903E-06  2542   0.211E-03    0.440E-03
RMM:  11    -0.413175793538E+03    0.19515E-05   -0.15013E-06  2526   0.195E-03    0.224E-03
RMM:  12    -0.413175790733E+03    0.28051E-05   -0.12975E-06  2504   0.178E-03    0.778E-04
RMM:  13    -0.413175789980E+03    0.75305E-06   -0.42263E-07  2213   0.113E-03
   24 T=    63. E= -.41286699E+03 F= -.41317579E+03 E0= -.41315394E+03  EK= 0.30880E+00 SP= 0.00E+00 SK= 0.00E+00
       N       E                     dE             d eps       ncg     rms          rms(c)
RMM:   1    -0.413172869959E+03    0.29208E-02   -0.10136E+01  4299   0.775E-01    0.907E-01
RMM:   2    -0.413179944803E+03   -0.70748E-02   -0.12521E-01  4274   0.102E-01    0.656E-01
RMM:   3    -0.413176960577E+03    0.29842E-02   -0.11480E-02  4705   0.466E-02    0.116E-01
RMM:   4    -0.413197868066E+03   -0.20907E-01   -0.21385E-02  5138   0.122E-01    0.605E-01
RMM:   5    -0.413176650624E+03    0.21217E-01   -0.10538E-02  4812   0.999E-02    0.426E-02
RMM:   6    -0.413176756126E+03   -0.10550E-03   -0.17868E-03  5821   0.394E-02    0.259E-02
RMM:   7    -0.413176752974E+03    0.31517E-05   -0.21234E-04  5654   0.143E-02    0.129E-02
RMM:   8    -0.413176748810E+03    0.41639E-05   -0.43864E-05  4912   0.677E-03    0.884E-03
RMM:   9    -0.413176744317E+03    0.44931E-05   -0.98369E-06  3737   0.358E-03    0.672E-03
RMM:  10    -0.413176742045E+03    0.22726E-05   -0.14703E-06  2532   0.208E-03    0.422E-03
RMM:  11    -0.413176738809E+03    0.32356E-05   -0.15265E-06  2525   0.197E-03    0.213E-03
RMM:  12    -0.413176734479E+03    0.43305E-05   -0.11914E-06  2487   0.174E-03    0.785E-04
RMM:  13    -0.413176733519E+03    0.95926E-06   -0.38775E-07  2189   0.109E-03
   25 T=    63. E= -.41286678E+03 F= -.41317673E+03 E0= -.41315494E+03  EK= 0.30995E+00 SP= 0.00E+00 SK= 0.00E+00
       N       E                     dE             d eps       ncg     rms          rms(c)
RMM:   1    -0.413175892654E+03    0.84182E-03   -0.10157E+01  4297   0.776E-01    0.919E-01
RMM:   2    -0.413180699273E+03   -0.48066E-02   -0.12342E-01  4270   0.983E-02    0.650E-01
RMM:   3    -0.413178266260E+03    0.24330E-02   -0.11411E-02  4620   0.451E-02    0.119E-01
RMM:   4    -0.413193591208E+03   -0.15325E-01   -0.15681E-02  5142   0.104E-01    0.520E-01
RMM:   5    -0.413178061861E+03    0.15529E-01   -0.78425E-03  4821   0.856E-02    0.416E-02
RMM:   6    -0.413178114877E+03   -0.53016E-04   -0.13038E-03  5829   0.337E-02    0.238E-02
RMM:   7    -0.413178107771E+03    0.71058E-05   -0.15340E-04  5564   0.126E-02    0.114E-02
RMM:   8    -0.413178098469E+03    0.93022E-05   -0.28468E-05  4680   0.559E-03    0.759E-03
RMM:   9    -0.413178095693E+03    0.27755E-05   -0.70248E-06  3355   0.314E-03    0.616E-03
RMM:  10    -0.413178090584E+03    0.51091E-05   -0.11626E-06  2511   0.195E-03    0.363E-03
RMM:  11    -0.413178083662E+03    0.69227E-05   -0.13368E-06  2512   0.187E-03    0.181E-03
RMM:  12    -0.413178076810E+03    0.68522E-05   -0.80060E-07  2422   0.147E-03    0.701E-04
RMM:  13    -0.413178075237E+03    0.15723E-05   -0.29638E-07  2064   0.950E-04    0.471E-04
RMM:  14    -0.413178074121E+03    0.11165E-05   -0.13761E-07  1436   0.711E-04    0.390E-04
RMM:  15    -0.413178068771E+03    0.53493E-05   -0.20024E-07  2077   0.823E-04    0.442E-04
RMM:  16    -0.413178067205E+03    0.15659E-05   -0.56207E-08   999   0.577E-04    0.309E-04
RMM:  17    -0.413178064220E+03    0.29856E-05   -0.52030E-08   952   0.570E-04    0.220E-04
RMM:  18    -0.413178061808E+03    0.24116E-05   -0.46925E-08   956   0.576E-04    0.541E-05
RMM:  19    -0.413178060052E+03    0.17564E-05   -0.36460E-08   941   0.576E-04    0.857E-05
RMM:  20    -0.413178059908E+03    0.14386E-06   -0.11833E-08   687   0.533E-04
   26 T=    63. E= -.41286675E+03 F= -.41317806E+03 E0= -.41315631E+03  EK= 0.31131E+00 SP= 0.00E+00 SK= 0.00E+00
       N       E                     dE             d eps       ncg     rms          rms(c)
RMM:   1    -0.413176459495E+03    0.16006E-02   -0.10120E+01  4291   0.791E-01    0.897E-01
RMM:   2    -0.413182702672E+03   -0.62432E-02   -0.12615E-01  4268   0.103E-01    0.652E-01
RMM:   3    -0.413180127433E+03    0.25752E-02   -0.11427E-02  4725   0.490E-02    0.121E-01
RMM:   4    -0.413203802688E+03   -0.23675E-01   -0.24288E-02  5142   0.130E-01    0.643E-01
RMM:   5    -0.413179761772E+03    0.24041E-01   -0.12018E-02  4807   0.107E-01    0.440E-02
RMM:   6    -0.413179887827E+03   -0.12605E-03   -0.19946E-03  5817   0.424E-02    0.277E-02
RMM:   7    -0.413179887834E+03   -0.70941E-08   -0.27397E-04  5686   0.161E-02    0.156E-02
RMM:   8    -0.413179882249E+03    0.55849E-05   -0.59133E-05  4986   0.794E-03    0.941E-03
RMM:   9    -0.413179876827E+03    0.54215E-05   -0.11778E-05  3968   0.402E-03    0.692E-03
RMM:  10    -0.413179874474E+03    0.23535E-05   -0.16463E-06  2552   0.210E-03    0.433E-03
RMM:  11    -0.413179871863E+03    0.26105E-05   -0.13570E-06  2511   0.189E-03    0.217E-03
RMM:  12    -0.413179868464E+03    0.33994E-05   -0.12439E-06  2499   0.175E-03    0.803E-04
RMM:  13    -0.413179867499E+03    0.96510E-06   -0.40724E-07  2222   0.112E-03
   27 T=    64. E= -.41286700E+03 F= -.41317987E+03 E0= -.41315817E+03  EK= 0.31287E+00 SP= 0.00E+00 SK= 0.00E+00
       N       E                     dE             d eps       ncg     rms          rms(c)
RMM:   1    -0.413177557586E+03    0.23109E-02   -0.10227E+01  4295   0.796E-01    0.907E-01
RMM:   2    -0.413183983968E+03   -0.64264E-02   -0.12916E-01  4268   0.107E-01    0.662E-01
RMM:   3    -0.413181115823E+03    0.28681E-02   -0.11713E-02  4508   0.474E-02    0.105E-01
RMM:   4    -0.413190772008E+03   -0.96562E-02   -0.99775E-03  5145   0.838E-02    0.414E-01
RMM:   5    -0.413181012323E+03    0.97597E-02   -0.49409E-03  4829   0.680E-02    0.383E-02
RMM:   6    -0.413181042372E+03   -0.30048E-04   -0.88012E-04  5827   0.275E-02    0.225E-02
RMM:   7    -0.413181046005E+03   -0.36333E-05   -0.20544E-04  5453   0.143E-02    0.158E-02
RMM:   8    -0.413181029668E+03    0.16337E-04   -0.26677E-05  4529   0.624E-03    0.674E-03
RMM:   9    -0.413181028141E+03    0.15266E-05   -0.56360E-06  3106   0.291E-03    0.499E-03
RMM:  10    -0.413181025965E+03    0.21762E-05   -0.14040E-06  2496   0.201E-03    0.280E-03
RMM:  11    -0.413181023333E+03    0.26321E-05   -0.95128E-07  2477   0.163E-03    0.139E-03
RMM:  12    -0.413181020848E+03    0.24849E-05   -0.50478E-07  2314   0.119E-03    0.631E-04
RMM:  13    -0.413181019807E+03    0.10408E-05   -0.23562E-07  1861   0.844E-04    0.303E-04
RMM:  14    -0.413181018338E+03    0.14694E-05   -0.13885E-07  1411   0.711E-04    0.212E-04
RMM:  15    -0.413181015270E+03    0.30674E-05   -0.12582E-07  1369   0.696E-04    0.113E-04
RMM:  16    -0.413181014527E+03    0.74351E-06   -0.49136E-08   918   0.595E-04
   28 T=    64. E= -.41286674E+03 F= -.41318101E+03 E0= -.41315937E+03  EK= 0.31427E+00 SP= 0.00E+00 SK= 0.00E+00
       N       E                     dE             d eps       ncg     rms          rms(c)
RMM:   1    -0.413179017159E+03    0.19981E-02   -0.10245E+01  4293   0.781E-01    0.927E-01
RMM:   2    -0.413185686633E+03   -0.66695E-02   -0.12582E-01  4268   0.106E-01    0.656E-01
RMM:   3    -0.413183153884E+03    0.25327E-02   -0.11830E-02  4621   0.490E-02    0.121E-01
RMM:   4    -0.413198705695E+03   -0.15552E-01   -0.15853E-02  5148   0.105E-01    0.524E-01
RMM:   5    -0.413182963984E+03    0.15742E-01   -0.79782E-03  4820   0.867E-02    0.420E-02
RMM:   6    -0.413183022270E+03   -0.58287E-04   -0.13343E-03  5838   0.346E-02    0.250E-02
RMM:   7    -0.413183019496E+03    0.27745E-05   -0.19092E-04  5569   0.141E-02    0.133E-02
RMM:   8    -0.413183007776E+03    0.11720E-04   -0.33753E-05  4759   0.626E-03    0.787E-03
RMM:   9    -0.413183005052E+03    0.27238E-05   -0.78509E-06  3474   0.334E-03    0.631E-03
RMM:  10    -0.413182999584E+03    0.54678E-05   -0.12683E-06  2510   0.203E-03    0.363E-03
RMM:  11    -0.413182993842E+03    0.57417E-05   -0.11050E-06  2501   0.173E-03    0.185E-03
RMM:  12    -0.413182987318E+03    0.65239E-05   -0.88167E-07  2455   0.152E-03    0.852E-04
RMM:  13    -0.413182985430E+03    0.18884E-05   -0.32429E-07  2134   0.101E-03    0.460E-04
RMM:  14    -0.413182984198E+03    0.12317E-05   -0.14982E-07  1491   0.729E-04    0.365E-04
RMM:  15    -0.413182980228E+03    0.39707E-05   -0.13565E-07  1638   0.732E-04    0.197E-04
RMM:  16    -0.413182977877E+03    0.23510E-05   -0.65528E-08  1120   0.618E-04    0.185E-04
RMM:  17    -0.413182975504E+03    0.23729E-05   -0.44589E-08   927   0.577E-04    0.138E-04
RMM:  18    -0.413182972216E+03    0.32881E-05   -0.53050E-08  1037   0.591E-04    0.514E-05
RMM:  19    -0.413182970956E+03    0.12594E-05   -0.25635E-08   800   0.547E-04    0.271E-05
RMM:  20    -0.413182970476E+03    0.47982E-06   -0.14202E-08   714   0.534E-04
   29 T=    64. E= -.41286691E+03 F= -.41318297E+03 E0= -.41316137E+03  EK= 0.31606E+00 SP= 0.00E+00 SK= 0.00E+00
       N       E                     dE             d eps       ncg     rms          rms(c)
RMM:   1    -0.413182179664E+03    0.79129E-03   -0.10220E+01  4291   0.802E-01    0.907E-01
RMM:   2    -0.413188085614E+03   -0.59060E-02   -0.12740E-01  4267   0.113E-01    0.655E-01
RMM:   3    -0.413185012305E+03    0.30733E-02   -0.11663E-02  4516   0.505E-02    0.113E-01
RMM:   4    -0.413196949506E+03   -0.11937E-01   -0.12214E-02  5144   0.928E-02    0.460E-01
RMM:   5    -0.413184892779E+03    0.12057E-01   -0.61140E-03  4825   0.759E-02    0.400E-02
RMM:   6    -0.413184929700E+03   -0.36922E-04   -0.10552E-03  5835   0.306E-02    0.239E-02
RMM:   7    -0.413184931192E+03   -0.14921E-05   -0.20707E-04  5480   0.144E-02    0.153E-02
RMM:   8    -0.413184915548E+03    0.15644E-04   -0.31647E-05  4696   0.649E-03    0.728E-03
RMM:   9    -0.413184913490E+03    0.20578E-05   -0.60436E-06  3132   0.305E-03    0.555E-03
RMM:  10    -0.413184909930E+03    0.35604E-05   -0.13488E-06  2497   0.200E-03    0.314E-03
RMM:  11    -0.413184906239E+03    0.36911E-05   -0.88691E-07  2476   0.160E-03    0.161E-03
RMM:  12    -0.413184902317E+03    0.39216E-05   -0.66001E-07  2410   0.133E-03    0.821E-04
RMM:  13    -0.413184900886E+03    0.14317E-05   -0.26714E-07  2001   0.917E-04    0.357E-04
RMM:  14    -0.413184899532E+03    0.13535E-05   -0.13720E-07  1389   0.706E-04    0.234E-04
RMM:  15    -0.413184896927E+03    0.26051E-05   -0.10446E-07  1322   0.675E-04    0.100E-04
RMM:  16    -0.413184895083E+03    0.18442E-05   -0.58937E-08  1000   0.617E-04    0.901E-05
RMM:  17    -0.413184893529E+03    0.15540E-05   -0.43019E-08   929   0.592E-04    0.660E-05
RMM:  18    -0.413184890646E+03    0.28830E-05   -0.57012E-08  1085   0.611E-04    0.299E-05
RMM:  19    -0.413184890041E+03    0.60481E-06   -0.20599E-08   751   0.545E-04
   30 T=    65. E= -.41286690E+03 F= -.41318489E+03 E0= -.41316334E+03  EK= 0.31799E+00 SP= 0.00E+00 SK= 0.00E+00
       N       E                     dE             d eps       ncg     rms          rms(c)
RMM:   1    -0.413183266094E+03    0.16246E-02   -0.10337E+01  4291   0.823E-01    0.909E-01
RMM:   2    -0.413190393229E+03   -0.71271E-02   -0.13149E-01  4264   0.118E-01    0.668E-01
RMM:   3    -0.413186662019E+03    0.37312E-02   -0.12266E-02  4486   0.584E-02    0.106E-01
RMM:   4    -0.413199146305E+03   -0.12484E-01   -0.12684E-02  5144   0.944E-02    0.470E-01
RMM:   5    -0.413186542844E+03    0.12603E-01   -0.63449E-03  4818   0.775E-02    0.398E-02
RMM:   6    -0.413186592254E+03   -0.49410E-04   -0.11316E-03  5837   0.313E-02    0.240E-02
RMM:   7    -0.413186597473E+03   -0.52187E-05   -0.20726E-04  5510   0.143E-02    0.152E-02
RMM:   8    -0.413186583270E+03    0.14203E-04   -0.33611E-05  4727   0.656E-03    0.747E-03
RMM:   9    -0.413186582136E+03    0.11336E-05   -0.64218E-06  3201   0.315E-03    0.573E-03
RMM:  10    -0.413186580031E+03    0.21050E-05   -0.13241E-06  2498   0.200E-03    0.327E-03
RMM:  11    -0.413186577978E+03    0.20527E-05   -0.90549E-07  2479   0.160E-03    0.168E-03
RMM:  12    -0.413186575580E+03    0.23983E-05   -0.74046E-07  2440   0.137E-03    0.848E-04
RMM:  13    -0.413186574641E+03    0.93896E-06   -0.28390E-07  2038   0.939E-04
   31 T=    65. E= -.41286668E+03 F= -.41318657E+03 E0= -.41316508E+03  EK= 0.31990E+00 SP= 0.00E+00 SK= 0.00E+00
       N       E                     dE             d eps       ncg     rms          rms(c)
RMM:   1    -0.413185335074E+03    0.12405E-02   -0.10378E+01  4291   0.813E-01    0.933E-01
RMM:   2    -0.413192395529E+03   -0.70605E-02   -0.12962E-01  4274   0.124E-01    0.664E-01
RMM:   3    -0.413189194224E+03    0.32013E-02   -0.12165E-02  4245   0.560E-02    0.112E-01
RMM:   4    -0.413190065479E+03   -0.87125E-03   -0.15527E-03  5075   0.320E-02    0.124E-01
RMM:   5    -0.413189261831E+03    0.80365E-03   -0.45860E-04  4802   0.215E-02    0.384E-02
RMM:   6    -0.413189271326E+03   -0.94954E-05   -0.34747E-04  5425   0.183E-02    0.272E-02
RMM:   7    -0.413189229835E+03    0.41492E-04   -0.17701E-04  4908   0.138E-02    0.152E-02
RMM:   8    -0.413189225787E+03    0.40477E-05   -0.19622E-05  4166   0.487E-03    0.517E-03
RMM:   9    -0.413189223986E+03    0.18007E-05   -0.22029E-06  2498   0.208E-03    0.282E-03
RMM:  10    -0.413189216366E+03    0.76209E-05   -0.83964E-07  2428   0.148E-03    0.125E-03
RMM:  11    -0.413189210867E+03    0.54990E-05   -0.37292E-07  2069   0.969E-04    0.473E-04
RMM:  12    -0.413189206050E+03    0.48161E-05   -0.20966E-07  1764   0.801E-04    0.273E-04
RMM:  13    -0.413189202321E+03    0.37298E-05   -0.11809E-07  1344   0.687E-04    0.190E-04
RMM:  14    -0.413189197583E+03    0.47374E-05   -0.91366E-08  1228   0.652E-04    0.102E-04
RMM:  15    -0.413189192516E+03    0.50669E-05   -0.72888E-08  1095   0.624E-04    0.884E-05
RMM:  16    -0.413189188668E+03    0.38486E-05   -0.58315E-08  1097   0.608E-04    0.628E-05
RMM:  17    -0.413189187286E+03    0.13816E-05   -0.23539E-08   737   0.535E-04    0.415E-05
RMM:  18    -0.413189186486E+03    0.79998E-06   -0.19023E-08   727   0.530E-04
   32 T=    66. E= -.41286706E+03 F= -.41318919E+03 E0= -.41316774E+03  EK= 0.32213E+00 SP= 0.00E+00 SK= 0.00E+00
       N       E                     dE             d eps       ncg     rms          rms(c)
RMM:   1    -0.413187092030E+03    0.20953E-02   -0.10345E+01  4292   0.826E-01    0.920E-01
RMM:   2    -0.413194262275E+03   -0.71702E-02   -0.13053E-01  4275   0.125E-01    0.660E-01
RMM:   3    -0.413191099513E+03    0.31628E-02   -0.11920E-02  4246   0.539E-02    0.111E-01
RMM:   4    -0.413191965728E+03   -0.86622E-03   -0.15565E-03  5090   0.317E-02    0.122E-01
RMM:   5    -0.413191183921E+03    0.78181E-03   -0.44277E-04  4787   0.213E-02    0.381E-02
RMM:   6    -0.413191194942E+03   -0.11021E-04   -0.33114E-04  5423   0.178E-02    0.272E-02
RMM:   7    -0.413191160232E+03    0.34710E-04   -0.18334E-04  4907   0.135E-02    0.157E-02
RMM:   8    -0.413191155185E+03    0.50478E-05   -0.19005E-05  4142   0.485E-03    0.548E-03
RMM:   9    -0.413191153779E+03    0.14056E-05   -0.24576E-06  2487   0.208E-03    0.282E-03
RMM:  10    -0.413191147586E+03    0.61932E-05   -0.85540E-07  2413   0.146E-03    0.126E-03
RMM:  11    -0.413191143227E+03    0.43584E-05   -0.38702E-07  2039   0.967E-04    0.447E-04
RMM:  12    -0.413191139418E+03    0.38094E-05   -0.20443E-07  1702   0.789E-04    0.248E-04
RMM:  13    -0.413191136490E+03    0.29275E-05   -0.10942E-07  1240   0.673E-04    0.174E-04
RMM:  14    -0.413191132569E+03    0.39215E-05   -0.80093E-08  1097   0.639E-04    0.891E-05
RMM:  15    -0.413191128487E+03    0.40822E-05   -0.66678E-08  1050   0.621E-04    0.813E-05
RMM:  16    -0.413191125174E+03    0.33130E-05   -0.47489E-08   915   0.588E-04    0.544E-05
RMM:  17    -0.413191123889E+03    0.12848E-05   -0.25386E-08   754   0.548E-04    0.348E-05
RMM:  18    -0.413191123176E+03    0.71299E-06   -0.14601E-08   634   0.527E-04
   33 T=    66. E= -.41286693E+03 F= -.41319112E+03 E0= -.41316972E+03  EK= 0.32420E+00 SP= 0.00E+00 SK= 0.00E+00
       N       E                     dE             d eps       ncg     rms          rms(c)
RMM:   1    -0.413192586151E+03   -0.14623E-02   -0.10482E+01  4300   0.889E-01    0.914E-01
RMM:   2    -0.413196809582E+03   -0.42234E-02   -0.14040E-01  4274   0.135E-01    0.673E-01
RMM:   3    -0.413193480023E+03    0.33296E-02   -0.12119E-02  4228   0.605E-02    0.107E-01
RMM:   4    -0.413193749908E+03   -0.26989E-03   -0.10464E-03  4983   0.233E-02    0.684E-02
RMM:   5    -0.413193556553E+03    0.19336E-03   -0.17137E-04  4754   0.131E-02    0.394E-02
RMM:   6    -0.413193560327E+03   -0.37741E-05   -0.28375E-04  5299   0.163E-02    0.259E-02
RMM:   7    -0.413193529207E+03    0.31120E-04   -0.16876E-04  4819   0.130E-02    0.160E-02
RMM:   8    -0.413193525270E+03    0.39364E-05   -0.19181E-05  3911   0.457E-03    0.505E-03
RMM:   9    -0.413193524867E+03    0.40278E-06   -0.24692E-06  2421   0.204E-03
   34 T=    66. E= -.41286694E+03 F= -.41319352E+03 E0= -.41317217E+03  EK= 0.32659E+00 SP= 0.00E+00 SK= 0.00E+00
       N       E                     dE             d eps       ncg     rms          rms(c)
RMM:   1    -0.413200416385E+03   -0.68911E-02   -0.10608E+01  4304   0.931E-01    0.938E-01
RMM:   2    -0.413199264470E+03    0.11519E-02   -0.13555E-01  4271   0.131E-01    0.673E-01
RMM:   3    -0.413196315903E+03    0.29486E-02   -0.12459E-02  4491   0.604E-02    0.118E-01
RMM:   4    -0.413207007805E+03   -0.10692E-01   -0.10999E-02  5169   0.889E-02    0.437E-01
RMM:   5    -0.413196281264E+03    0.10727E-01   -0.54854E-03  4818   0.725E-02    0.424E-02
RMM:   6    -0.413196276742E+03    0.45217E-05   -0.10297E-03  5762   0.316E-02    0.308E-02
RMM:   7    -0.413196265398E+03    0.11344E-04   -0.28691E-04  5382   0.164E-02    0.163E-02
RMM:   8    -0.413196252610E+03    0.12788E-04   -0.29906E-05  4708   0.642E-03    0.710E-03
RMM:   9    -0.413196249660E+03    0.29496E-05   -0.48090E-06  2940   0.271E-03    0.435E-03
RMM:  10    -0.413196243592E+03    0.60683E-05   -0.12106E-06  2505   0.187E-03    0.233E-03
RMM:  11    -0.413196236937E+03    0.66549E-05   -0.84674E-07  2475   0.149E-03    0.116E-03
RMM:  12    -0.413196230996E+03    0.59410E-05   -0.48006E-07  2261   0.114E-03    0.527E-04
RMM:  13    -0.413196228297E+03    0.26992E-05   -0.23109E-07  1774   0.838E-04    0.284E-04
RMM:  14    -0.413196225006E+03    0.32910E-05   -0.12759E-07  1266   0.697E-04    0.175E-04
RMM:  15    -0.413196219263E+03    0.57430E-05   -0.10779E-07  1261   0.680E-04    0.961E-05
RMM:  16    -0.413196216390E+03    0.28726E-05   -0.63726E-08  1041   0.618E-04    0.813E-05
RMM:  17    -0.413196212233E+03    0.41572E-05   -0.66094E-08  1196   0.628E-04    0.554E-05
RMM:  18    -0.413196209676E+03    0.25569E-05   -0.41607E-08  1015   0.578E-04    0.246E-05
RMM:  19    -0.413196209059E+03    0.61717E-06   -0.20404E-08   745   0.528E-04
   35 T=    67. E= -.41286702E+03 F= -.41319621E+03 E0= -.41317490E+03  EK= 0.32919E+00 SP= 0.00E+00 SK= 0.00E+00
       N       E                     dE             d eps       ncg     rms          rms(c)
RMM:   1    -0.413195074229E+03    0.11354E-02   -0.10531E+01  4301   0.899E-01    0.936E-01
RMM:   2    -0.413201103266E+03   -0.60290E-02   -0.13525E-01  4248   0.132E-01    0.668E-01
RMM:   3    -0.413198436999E+03    0.26663E-02   -0.12378E-02  4529   0.617E-02    0.127E-01
RMM:   4    -0.413212712109E+03   -0.14275E-01   -0.14469E-02  5164   0.101E-01    0.503E-01
RMM:   5    -0.413198356088E+03    0.14356E-01   -0.72429E-03  4810   0.834E-02    0.434E-02
RMM:   6    -0.413198366281E+03   -0.10193E-04   -0.13595E-03  5821   0.349E-02    0.290E-02
RMM:   7    -0.413198367927E+03   -0.16455E-05   -0.30602E-04  5455   0.170E-02    0.184E-02
RMM:   8    -0.413198349337E+03    0.18590E-04   -0.40385E-05  4881   0.738E-03    0.829E-03
RMM:   9    -0.413198346404E+03    0.29326E-05   -0.72888E-06  3252   0.334E-03    0.573E-03
RMM:  10    -0.413198340648E+03    0.57565E-05   -0.14706E-06  2518   0.214E-03    0.317E-03
RMM:  11    -0.413198335123E+03    0.55247E-05   -0.10169E-06  2493   0.167E-03    0.167E-03
RMM:  12    -0.413198328197E+03    0.69261E-05   -0.82269E-07  2459   0.147E-03    0.817E-04
RMM:  13    -0.413198325398E+03    0.27993E-05   -0.32612E-07  2109   0.998E-04    0.415E-04
RMM:  14    -0.413198323665E+03    0.17323E-05   -0.15799E-07  1506   0.738E-04    0.280E-04
RMM:  15    -0.413198319457E+03    0.42080E-05   -0.10521E-07  1317   0.680E-04    0.113E-04
RMM:  16    -0.413198316641E+03    0.28165E-05   -0.60442E-08  1022   0.623E-04    0.796E-05
RMM:  17    -0.413198313794E+03    0.28467E-05   -0.47238E-08   993   0.606E-04    0.658E-05
RMM:  18    -0.413198309719E+03    0.40755E-05   -0.51023E-08  1138   0.619E-04    0.356E-05
RMM:  19    -0.413198308631E+03    0.10881E-05   -0.24844E-08   843   0.552E-04    0.247E-05
RMM:  20    -0.413198308219E+03    0.41131E-06   -0.12706E-08   687   0.529E-04
   36 T=    68. E= -.41286673E+03 F= -.41319831E+03 E0= -.41317704E+03  EK= 0.33158E+00 SP= 0.00E+00 SK= 0.00E+00
       N       E                     dE             d eps       ncg     rms          rms(c)
RMM:   1    -0.413209553759E+03   -0.11245E-01   -0.10716E+01  4303   0.101E+00    0.921E-01
RMM:   2    -0.413204998965E+03    0.45548E-02   -0.15662E-01  4247   0.143E-01    0.680E-01
RMM:   3    -0.413201533888E+03    0.34651E-02   -0.11567E-02  4638   0.594E-02    0.148E-01
RMM:   4    -0.413226367946E+03   -0.24834E-01   -0.25252E-02  5162   0.134E-01    0.659E-01
RMM:   5    -0.413201308189E+03    0.25060E-01   -0.12651E-02  4804   0.110E-01    0.466E-02
RMM:   6    -0.413201338663E+03   -0.30474E-04   -0.21378E-03  5850   0.434E-02    0.293E-02
RMM:   7    -0.413201349013E+03   -0.10351E-04   -0.29860E-04  5654   0.164E-02    0.161E-02
RMM:   8    -0.413201339062E+03    0.99519E-05   -0.56531E-05  4983   0.795E-03    0.932E-03
RMM:   9    -0.413201337830E+03    0.12317E-05   -0.15529E-05  4309   0.453E-03    0.683E-03
RMM:  10    -0.413201334068E+03    0.37616E-05   -0.19836E-06  2597   0.234E-03    0.396E-03
RMM:  11    -0.413201331906E+03    0.21627E-05   -0.10613E-06  2496   0.167E-03    0.246E-03
RMM:  12    -0.413201326546E+03    0.53601E-05   -0.16077E-06  2526   0.202E-03    0.119E-03
RMM:  13    -0.413201324093E+03    0.24528E-05   -0.56587E-07  2341   0.131E-03    0.709E-04
RMM:  14    -0.413201323831E+03    0.26170E-06   -0.23098E-07  1870   0.852E-04
   37 T=    68. E= -.41286707E+03 F= -.41320132E+03 E0= -.41318010E+03  EK= 0.33426E+00 SP= 0.00E+00 SK= 0.00E+00
       N       E                     dE             d eps       ncg     rms          rms(c)
RMM:   1    -0.413223702317E+03   -0.22378E-01   -0.10932E+01  4307   0.109E+00    0.941E-01
RMM:   2    -0.413207670582E+03    0.16032E-01   -0.16255E-01  4248   0.134E-01    0.685E-01
RMM:   3    -0.413204117359E+03    0.35532E-02   -0.11568E-02  4755   0.546E-02    0.166E-01
RMM:   4    -0.413237027958E+03   -0.32911E-01   -0.33673E-02  5157   0.153E-01    0.756E-01
RMM:   5    -0.413203726074E+03    0.33302E-01   -0.16914E-02  4801   0.126E-01    0.498E-02
RMM:   6    -0.413203779220E+03   -0.53145E-04   -0.27081E-03  5847   0.493E-02    0.316E-02
RMM:   7    -0.413203788752E+03   -0.95328E-05   -0.34814E-04  5687   0.176E-02    0.165E-02
RMM:   8    -0.413203779831E+03    0.89212E-05   -0.58434E-05  4997   0.794E-03    0.969E-03
RMM:   9    -0.413203778049E+03    0.17822E-05   -0.20252E-05  4526   0.487E-03    0.735E-03
RMM:  10    -0.413203772037E+03    0.60124E-05   -0.26216E-06  2649   0.257E-03    0.422E-03
RMM:  11    -0.413203768679E+03    0.33581E-05   -0.13004E-06  2497   0.184E-03    0.261E-03
RMM:  12    -0.413203760366E+03    0.83122E-05   -0.18026E-06  2546   0.217E-03    0.124E-03
RMM:  13    -0.413203756741E+03    0.36256E-05   -0.63522E-07  2382   0.141E-03    0.818E-04
RMM:  14    -0.413203756549E+03    0.19170E-06   -0.25006E-07  1977   0.902E-04
   38 T=    69. E= -.41286697E+03 F= -.41320376E+03 E0= -.41318258E+03  EK= 0.33679E+00 SP= 0.00E+00 SK= 0.00E+00
       N       E                     dE             d eps       ncg     rms          rms(c)
RMM:   1    -0.413209002266E+03   -0.52455E-02   -0.10778E+01  4307   0.102E+00    0.953E-01
RMM:   2    -0.413209909294E+03   -0.90703E-03   -0.13968E-01  4250   0.123E-01    0.678E-01
RMM:   3    -0.413207013753E+03    0.28955E-02   -0.12983E-02  4929   0.562E-02    0.165E-01
RMM:   4    -0.413248918438E+03   -0.41905E-01   -0.44527E-02  5137   0.176E-01    0.850E-01
RMM:   5    -0.413206252344E+03    0.42666E-01   -0.21213E-02  4796   0.142E-01    0.546E-02
RMM:   6    -0.413206353982E+03   -0.10164E-03   -0.34640E-03  5829   0.554E-02    0.338E-02
RMM:   7    -0.413206361776E+03   -0.77936E-05   -0.41367E-04  5683   0.188E-02    0.174E-02
RMM:   8    -0.413206351469E+03    0.10307E-04   -0.50194E-05  4782   0.711E-03    0.885E-03
RMM:   9    -0.413206346667E+03    0.48019E-05   -0.14425E-05  3911   0.395E-03    0.646E-03
RMM:  10    -0.413206341415E+03    0.52517E-05   -0.28860E-06  2687   0.241E-03    0.419E-03
RMM:  11    -0.413206335039E+03    0.63766E-05   -0.14252E-06  2494   0.198E-03    0.238E-03
RMM:  12    -0.413206323452E+03    0.11587E-04   -0.16369E-06  2528   0.206E-03    0.109E-03
RMM:  13    -0.413206320652E+03    0.28003E-05   -0.47307E-07  2372   0.129E-03    0.702E-04
RMM:  14    -0.413206320441E+03    0.21133E-06   -0.20715E-07  1893   0.833E-04
   39 T=    69. E= -.41286691E+03 F= -.41320632E+03 E0= -.41318518E+03  EK= 0.33941E+00 SP= 0.00E+00 SK= 0.00E+00
       N       E                     dE             d eps       ncg     rms          rms(c)
RMM:   1    -0.413231577678E+03   -0.25257E-01   -0.10993E+01  4309   0.118E+00    0.931E-01
RMM:   2    -0.413213535257E+03    0.18042E-01   -0.16759E-01  4253   0.134E-01    0.685E-01
RMM:   3    -0.413210439418E+03    0.30958E-02   -0.11783E-02  5001   0.579E-02    0.207E-01
RMM:   4    -0.413264118803E+03   -0.53679E-01   -0.58853E-02  5135   0.202E-01    0.960E-01
RMM:   5    -0.413209172888E+03    0.54946E-01   -0.27067E-02  4787   0.162E-01    0.598E-02
RMM:   6    -0.413209331850E+03   -0.15896E-03   -0.44038E-03  5818   0.624E-02    0.356E-02
RMM:   7    -0.413209345396E+03   -0.13546E-04   -0.53591E-04  5803   0.207E-02    0.212E-02
RMM:   8    -0.413209345735E+03   -0.33886E-06   -0.11958E-04  5248   0.107E-02    0.137E-02
RMM:   9    -0.413209332483E+03    0.13252E-04   -0.27939E-05  4716   0.605E-03    0.699E-03
RMM:  10    -0.413209328022E+03    0.44607E-05   -0.50413E-06  2906   0.298E-03    0.438E-03
RMM:  11    -0.413209324461E+03    0.35613E-05   -0.15706E-06  2505   0.207E-03    0.262E-03
RMM:  12    -0.413209317375E+03    0.70856E-05   -0.14843E-06  2512   0.202E-03    0.932E-04
RMM:  13    -0.413209313391E+03    0.39838E-05   -0.65532E-07  2416   0.141E-03    0.665E-04
RMM:  14    -0.413209312793E+03    0.59863E-06   -0.28661E-07  2052   0.943E-04
   40 T=    70. E= -.41286713E+03 F= -.41320931E+03 E0= -.41318821E+03  EK= 0.34218E+00 SP= 0.00E+00 SK= 0.00E+00
       N       E                     dE             d eps       ncg     rms          rms(c)
RMM:   1    -0.413226235793E+03   -0.16922E-01   -0.11045E+01  4311   0.118E+00    0.944E-01
RMM:   2    -0.413215784514E+03    0.10451E-01   -0.16858E-01  4258   0.140E-01    0.695E-01
RMM:   3    -0.413213158210E+03    0.26263E-02   -0.12719E-02  5038   0.628E-02    0.231E-01
RMM:   4    -0.413268651257E+03   -0.55493E-01   -0.63853E-02  5127   0.210E-01    0.979E-01
RMM:   5    -0.413211313574E+03    0.57338E-01   -0.27678E-02  4775   0.165E-01    0.618E-02
RMM:   6    -0.413211478206E+03   -0.16463E-03   -0.46017E-03  5806   0.637E-02    0.359E-02
RMM:   7    -0.413211493408E+03   -0.15202E-04   -0.56216E-04  5811   0.211E-02    0.224E-02
RMM:   8    -0.413211493639E+03   -0.23127E-06   -0.12898E-04  5261   0.111E-02    0.142E-02
RMM:   9    -0.413211479575E+03    0.14064E-04   -0.27829E-05  4697   0.616E-03    0.676E-03
RMM:  10    -0.413211475417E+03    0.41588E-05   -0.57276E-06  3013   0.307E-03    0.419E-03
RMM:  11    -0.413211472058E+03    0.33584E-05   -0.15733E-06  2505   0.208E-03    0.248E-03
RMM:  12    -0.413211465551E+03    0.65068E-05   -0.13607E-06  2501   0.194E-03    0.852E-04
RMM:  13    -0.413211461690E+03    0.38612E-05   -0.61639E-07  2410   0.136E-03    0.582E-04
RMM:  14    -0.413211460915E+03    0.77553E-06   -0.27917E-07  2030   0.928E-04
   41 T=    70. E= -.41286688E+03 F= -.41321146E+03 E0= -.41319039E+03  EK= 0.34459E+00 SP= 0.00E+00 SK= 0.00E+00
       N       E                     dE             d eps       ncg     rms          rms(c)
RMM:   1    -0.413216455970E+03   -0.49943E-02   -0.10944E+01  4311   0.116E+00    0.967E-01
RMM:   2    -0.413217645705E+03   -0.11897E-02   -0.14812E-01  4287   0.133E-01    0.688E-01
RMM:   3    -0.413217199133E+03    0.44657E-03   -0.15198E-02  5078   0.738E-02    0.274E-01
RMM:   4    -0.413257372177E+03   -0.40173E-01   -0.54515E-02  5095   0.196E-01    0.857E-01
RMM:   5    -0.413213972947E+03    0.43399E-01   -0.19537E-02  4751   0.143E-01    0.602E-02
RMM:   6    -0.413214053997E+03   -0.81050E-04   -0.34417E-03  5778   0.554E-02    0.353E-02
RMM:   7    -0.413214058871E+03   -0.48741E-05   -0.46950E-04  5750   0.198E-02    0.221E-02
RMM:   8    -0.413214054973E+03    0.38985E-05   -0.12715E-04  5211   0.114E-02    0.132E-02
RMM:   9    -0.413214039161E+03    0.15812E-04   -0.21764E-05  4502   0.581E-03    0.566E-03
RMM:  10    -0.413214033095E+03    0.60658E-05   -0.47811E-06  2917   0.281E-03    0.355E-03
RMM:  11    -0.413214027576E+03    0.55190E-05   -0.12819E-06  2496   0.193E-03    0.198E-03
RMM:  12    -0.413214018220E+03    0.93560E-05   -0.91767E-07  2465   0.166E-03    0.743E-04
RMM:  13    -0.413214012769E+03    0.54517E-05   -0.43750E-07  2297   0.116E-03    0.400E-04
RMM:  14    -0.413214010901E+03    0.18672E-05   -0.22378E-07  1839   0.840E-04    0.276E-04
RMM:  15    -0.413214006242E+03    0.46599E-05   -0.13296E-07  1409   0.715E-04    0.138E-04
RMM:  16    -0.413214001422E+03    0.48191E-05   -0.93096E-08  1242   0.667E-04    0.141E-04
RMM:  17    -0.413213997971E+03    0.34509E-05   -0.63593E-08  1102   0.626E-04    0.908E-05
RMM:  18    -0.413213994456E+03    0.35160E-05   -0.59411E-08  1224   0.623E-04    0.589E-05
RMM:  19    -0.413213991643E+03    0.28121E-05   -0.42703E-08  1128   0.594E-04    0.366E-05
RMM:  20    -0.413213991274E+03    0.36962E-06   -0.17678E-08   753   0.530E-04
   42 T=    71. E= -.41286704E+03 F= -.41321399E+03 E0= -.41319295E+03  EK= 0.34695E+00 SP= 0.00E+00 SK= 0.00E+00
       N       E                     dE             d eps       ncg     rms          rms(c)
RMM:   1    -0.413239529849E+03   -0.25538E-01   -0.11113E+01  4311   0.134E+00    0.944E-01
RMM:   2    -0.413219973263E+03    0.19557E-01   -0.16955E-01  4292   0.148E-01    0.690E-01
RMM:   3    -0.413220646004E+03   -0.67274E-03   -0.15062E-02  5082   0.810E-02    0.326E-01
RMM:   4    -0.413257376232E+03   -0.36730E-01   -0.55558E-02  5089   0.199E-01    0.837E-01
RMM:   5    -0.413216098125E+03    0.41278E-01   -0.18077E-02  4728   0.140E-01    0.616E-02
RMM:   6    -0.413216161170E+03   -0.63045E-04   -0.32146E-03  5739   0.539E-02    0.349E-02
RMM:   7    -0.413216164474E+03   -0.33041E-05   -0.47076E-04  5779   0.196E-02    0.231E-02
RMM:   8    -0.413216159773E+03    0.47003E-05   -0.12385E-04  5188   0.114E-02    0.122E-02
RMM:   9    -0.413216147346E+03    0.12428E-04   -0.21081E-05  4488   0.573E-03    0.481E-03
RMM:  10    -0.413216144018E+03    0.33275E-05   -0.43026E-06  2829   0.264E-03    0.304E-03
RMM:  11    -0.413216140079E+03    0.39388E-05   -0.13128E-06  2500   0.188E-03    0.166E-03
RMM:  12    -0.413216134692E+03    0.53872E-05   -0.75825E-07  2447   0.148E-03    0.619E-04
RMM:  13    -0.413216131508E+03    0.31841E-05   -0.37747E-07  2118   0.104E-03    0.297E-04
RMM:  14    -0.413216129475E+03    0.20330E-05   -0.20462E-07  1626   0.801E-04    0.196E-04
RMM:  15    -0.413216125527E+03    0.39478E-05   -0.14156E-07  1319   0.718E-04    0.111E-04
RMM:  16    -0.413216123317E+03    0.22104E-05   -0.88859E-08  1133   0.660E-04    0.818E-05
RMM:  17    -0.413216120785E+03    0.25321E-05   -0.72170E-08  1153   0.647E-04    0.498E-05
RMM:  18    -0.413216118285E+03    0.24999E-05   -0.58913E-08  1164   0.627E-04    0.372E-05
RMM:  19    -0.413216116843E+03    0.14419E-05   -0.36864E-08   953   0.576E-04    0.229E-05
RMM:  20    -0.413216116175E+03    0.66787E-06   -0.21018E-08   784   0.548E-04
   43 T=    71. E= -.41286714E+03 F= -.41321612E+03 E0= -.41319510E+03  EK= 0.34897E+00 SP= 0.00E+00 SK= 0.00E+00
       N       E                     dE             d eps       ncg     rms          rms(c)
RMM:   1    -0.413232727807E+03   -0.16611E-01   -0.11140E+01  4311   0.135E+00    0.949E-01
RMM:   2    -0.413221627656E+03    0.11100E-01   -0.16405E-01  4287   0.160E-01    0.702E-01
RMM:   3    -0.413223206317E+03   -0.15787E-02   -0.17173E-02  5078   0.903E-02    0.350E-01
RMM:   4    -0.413256074827E+03   -0.32869E-01   -0.55082E-02  5070   0.199E-01    0.809E-01
RMM:   5    -0.413217470715E+03    0.38604E-01   -0.16206E-02  4711   0.134E-01    0.605E-02
RMM:   6    -0.413217510692E+03   -0.39978E-04   -0.29447E-03  5722   0.516E-02    0.340E-02
RMM:   7    -0.413217511822E+03   -0.11297E-05   -0.43052E-04  5762   0.191E-02    0.225E-02
RMM:   8    -0.413217508944E+03    0.28779E-05   -0.11477E-04  5162   0.111E-02    0.115E-02
RMM:   9    -0.413217498463E+03    0.10482E-04   -0.19415E-05  4407   0.555E-03    0.456E-03
RMM:  10    -0.413217496048E+03    0.24148E-05   -0.38687E-06  2780   0.254E-03    0.286E-03
RMM:  11    -0.413217492960E+03    0.30875E-05   -0.12855E-06  2499   0.185E-03    0.154E-03
RMM:  12    -0.413217488904E+03    0.40563E-05   -0.74926E-07  2440   0.144E-03    0.590E-04
RMM:  13    -0.413217486454E+03    0.24502E-05   -0.36909E-07  2034   0.101E-03    0.280E-04
RMM:  14    -0.413217484659E+03    0.17951E-05   -0.20737E-07  1574   0.792E-04    0.179E-04
RMM:  15    -0.413217481172E+03    0.34869E-05   -0.15873E-07  1348   0.733E-04    0.111E-04
RMM:  16    -0.413217479471E+03    0.17007E-05   -0.95307E-08  1157   0.664E-04    0.789E-05
RMM:  17    -0.413217477103E+03    0.23680E-05   -0.80935E-08  1216   0.653E-04    0.471E-05
RMM:  18    -0.413217475182E+03    0.19214E-05   -0.57366E-08  1090   0.611E-04    0.350E-05
RMM:  19    -0.413217473729E+03    0.14527E-05   -0.36889E-08   930   0.574E-04    0.213E-05
RMM:  20    -0.413217473304E+03    0.42496E-06   -0.21300E-08   766   0.545E-04
   44 T=    71. E= -.41286695E+03 F= -.41321747E+03 E0= -.41319648E+03  EK= 0.35052E+00 SP= 0.00E+00 SK= 0.00E+00
       N       E                     dE             d eps       ncg     rms          rms(c)
RMM:   1    -0.413252099901E+03   -0.34626E-01   -0.11308E+01  4310   0.151E+00    0.974E-01
RMM:   2    -0.413222606138E+03    0.29494E-01   -0.16882E-01  4317   0.168E-01    0.698E-01
RMM:   3    -0.413228578863E+03   -0.59727E-02   -0.20314E-02  5124   0.106E-01    0.442E-01
RMM:   4    -0.413243936295E+03   -0.15357E-01   -0.45564E-02  5048   0.184E-01    0.657E-01
RMM:   5    -0.413219191135E+03    0.24745E-01   -0.94064E-03  4649   0.110E-01    0.579E-02
RMM:   6    -0.413219170053E+03    0.21082E-04   -0.19143E-03  5601   0.423E-02    0.334E-02
RMM:   7    -0.413219164408E+03    0.56449E-05   -0.32580E-04  5620   0.175E-02    0.220E-02
RMM:   8    -0.413219155144E+03    0.92638E-05   -0.11384E-04  5073   0.112E-02    0.103E-02
RMM:   9    -0.413219142270E+03    0.12873E-04   -0.15352E-05  4250   0.537E-03    0.421E-03
RMM:  10    -0.413219138327E+03    0.39435E-05   -0.28576E-06  2710   0.229E-03    0.247E-03
RMM:  11    -0.413219132213E+03    0.61142E-05   -0.11278E-06  2485   0.175E-03    0.133E-03
RMM:  12    -0.413219125816E+03    0.63964E-05   -0.59325E-07  2410   0.133E-03    0.585E-04
RMM:  13    -0.413219122303E+03    0.35138E-05   -0.27799E-07  1869   0.910E-04    0.288E-04
RMM:  14    -0.413219119058E+03    0.32448E-05   -0.15838E-07  1406   0.729E-04    0.162E-04
RMM:  15    -0.413219113684E+03    0.53735E-05   -0.12626E-07  1275   0.700E-04    0.125E-04
RMM:  16    -0.413219111151E+03    0.25332E-05   -0.77462E-08  1101   0.641E-04    0.915E-05
RMM:  17    -0.413219106455E+03    0.46956E-05   -0.83911E-08  1366   0.660E-04    0.683E-05
RMM:  18    -0.413219104558E+03    0.18978E-05   -0.43483E-08   996   0.570E-04    0.403E-05
RMM:  19    -0.413219103194E+03    0.13639E-05   -0.30318E-08   887   0.545E-04    0.219E-05
RMM:  20    -0.413219102701E+03    0.49236E-06   -0.17981E-08   749   0.521E-04
   45 T=    72. E= -.41286734E+03 F= -.41321910E+03 E0= -.41319814E+03  EK= 0.35176E+00 SP= 0.00E+00 SK= 0.00E+00
       N       E                     dE             d eps       ncg     rms          rms(c)
RMM:   1    -0.413262577062E+03   -0.43474E-01   -0.11306E+01  4310   0.163E+00    0.955E-01
RMM:   2    -0.413222879670E+03    0.39697E-01   -0.17890E-01  4338   0.182E-01    0.694E-01
RMM:   3    -0.413231270088E+03   -0.83904E-02   -0.21504E-02  5119   0.115E-01    0.496E-01
RMM:   4    -0.413240092639E+03   -0.88226E-02   -0.43824E-02  5031   0.182E-01    0.607E-01
RMM:   5    -0.413219376777E+03    0.20716E-01   -0.77121E-03  4608   0.103E-01    0.573E-02
RMM:   6    -0.413219335800E+03    0.40978E-04   -0.15612E-03  5470   0.387E-02    0.323E-02
RMM:   7    -0.413219331282E+03    0.45173E-05   -0.27912E-04  5600   0.164E-02    0.217E-02
RMM:   8    -0.413219322134E+03    0.91486E-05   -0.12080E-04  5070   0.115E-02    0.101E-02
RMM:   9    -0.413219309097E+03    0.13037E-04   -0.15709E-05  4290   0.548E-03    0.412E-03
RMM:  10    -0.413219305932E+03    0.31648E-05   -0.27995E-06  2694   0.223E-03    0.237E-03
RMM:  11    -0.413219300150E+03    0.57821E-05   -0.12072E-06  2486   0.178E-03    0.128E-03
RMM:  12    -0.413219295239E+03    0.49112E-05   -0.56788E-07  2417   0.131E-03    0.642E-04
RMM:  13    -0.413219291897E+03    0.33417E-05   -0.26839E-07  1803   0.894E-04    0.315E-04
RMM:  14    -0.413219288536E+03    0.33608E-05   -0.15466E-07  1364   0.721E-04    0.168E-04
RMM:  15    -0.413219284327E+03    0.42090E-05   -0.11900E-07  1249   0.683E-04    0.121E-04
RMM:  16    -0.413219281770E+03    0.25574E-05   -0.76431E-08  1095   0.631E-04    0.973E-05
RMM:  17    -0.413219277641E+03    0.41288E-05   -0.78583E-08  1280   0.648E-04    0.661E-05
RMM:  18    -0.413219275634E+03    0.20071E-05   -0.43281E-08   989   0.572E-04    0.448E-05
RMM:  19    -0.413219274686E+03    0.94748E-06   -0.26847E-08   840   0.536E-04
   46 T=    72. E= -.41286725E+03 F= -.41321927E+03 E0= -.41319832E+03  EK= 0.35202E+00 SP= 0.00E+00 SK= 0.00E+00
       N       E                     dE             d eps       ncg     rms          rms(c)
RMM:   1    -0.413245141115E+03   -0.25865E-01   -0.11159E+01  4311   0.163E+00    0.943E-01
RMM:   2    -0.413222816392E+03    0.22325E-01   -0.18814E-01  4356   0.192E-01    0.707E-01
RMM:   3    -0.413231997572E+03   -0.91812E-02   -0.22187E-02  5115   0.122E-01    0.523E-01
RMM:   4    -0.413240485521E+03   -0.84879E-02   -0.46737E-02  5030   0.189E-01    0.620E-01
RMM:   5    -0.413218751911E+03    0.21734E-01   -0.81179E-03  4600   0.107E-01    0.591E-02
RMM:   6    -0.413218697319E+03    0.54592E-04   -0.16107E-03  5450   0.394E-02    0.322E-02
RMM:   7    -0.413218692335E+03    0.49839E-05   -0.27745E-04  5649   0.163E-02    0.224E-02
RMM:   8    -0.413218682050E+03    0.10285E-04   -0.12529E-04  5099   0.115E-02    0.103E-02
RMM:   9    -0.413218669619E+03    0.12431E-04   -0.17765E-05  4361   0.574E-03    0.417E-03
RMM:  10    -0.413218667497E+03    0.21220E-05   -0.30642E-06  2727   0.228E-03    0.240E-03
RMM:  11    -0.413218663545E+03    0.39513E-05   -0.14350E-06  2514   0.189E-03    0.134E-03
RMM:  12    -0.413218660529E+03    0.30160E-05   -0.61074E-07  2439   0.136E-03    0.712E-04
RMM:  13    -0.413218657875E+03    0.26543E-05   -0.31023E-07  1834   0.933E-04    0.339E-04
RMM:  14    -0.413218655288E+03    0.25867E-05   -0.18177E-07  1393   0.746E-04    0.176E-04
RMM:  15    -0.413218652520E+03    0.27685E-05   -0.13728E-07  1278   0.696E-04    0.116E-04
RMM:  16    -0.413218650485E+03    0.20344E-05   -0.89693E-08  1142   0.641E-04    0.100E-04
RMM:  17    -0.413218647610E+03    0.28751E-05   -0.89663E-08  1280   0.647E-04    0.586E-05
RMM:  18    -0.413218645830E+03    0.17803E-05   -0.51830E-08  1014   0.579E-04    0.461E-05
RMM:  19    -0.413218645181E+03    0.64860E-06   -0.27464E-08   797   0.533E-04
   47 T=    72. E= -.41286726E+03 F= -.41321865E+03 E0= -.41319771E+03  EK= 0.35138E+00 SP= 0.00E+00 SK= 0.00E+00
       N       E                     dE             d eps       ncg     rms          rms(c)
RMM:   1    -0.413247692182E+03   -0.29046E-01   -0.11116E+01  4306   0.175E+00    0.967E-01
RMM:   2    -0.413220897758E+03    0.26794E-01   -0.17763E-01  4410   0.202E-01    0.701E-01
RMM:   3    -0.413238079597E+03   -0.17182E-01   -0.29560E-02  5138   0.145E-01    0.635E-01
RMM:   4    -0.413230007821E+03    0.80718E-02   -0.42041E-02  4982   0.183E-01    0.483E-01
RMM:   5    -0.413217316062E+03    0.12692E-01   -0.46608E-03  4532   0.902E-02    0.569E-02
RMM:   6    -0.413217210588E+03    0.10547E-03   -0.71732E-04  4912   0.299E-02    0.302E-02
RMM:   7    -0.413217197156E+03    0.13432E-04   -0.16511E-04  5816   0.125E-02    0.123E-02
RMM:   8    -0.413217190494E+03    0.66615E-05   -0.44029E-05  5183   0.750E-03    0.718E-03
RMM:   9    -0.413217184313E+03    0.61815E-05   -0.84975E-06  3542   0.359E-03    0.399E-03
RMM:  10    -0.413217182278E+03    0.20350E-05   -0.19659E-06  2547   0.225E-03    0.226E-03
RMM:  11    -0.413217176027E+03    0.62502E-05   -0.13208E-06  2458   0.190E-03    0.142E-03
RMM:  12    -0.413217172653E+03    0.33745E-05   -0.48573E-07  2369   0.127E-03    0.847E-04
RMM:  13    -0.413217168221E+03    0.44317E-05   -0.25777E-07  1927   0.909E-04    0.458E-04
RMM:  14    -0.413217163520E+03    0.47009E-05   -0.16533E-07  1510   0.737E-04    0.321E-04
RMM:  15    -0.413217159243E+03    0.42778E-05   -0.10218E-07  1037   0.614E-04    0.130E-04
RMM:  16    -0.413217156623E+03    0.26196E-05   -0.67228E-08  1002   0.585E-04    0.929E-05
RMM:  17    -0.413217153644E+03    0.29786E-05   -0.56665E-08  1015   0.584E-04    0.882E-05
RMM:  18    -0.413217151371E+03    0.22734E-05   -0.39666E-08   927   0.558E-04    0.515E-05
RMM:  19    -0.413217150100E+03    0.12711E-05   -0.23537E-08   765   0.522E-04    0.350E-05
RMM:  20    -0.413217149002E+03    0.10982E-05   -0.18213E-08   705   0.507E-04    0.321E-05
RMM:  21    -0.413217148783E+03    0.21829E-06   -0.81308E-09   563   0.481E-04
   48 T=    71. E= -.41286748E+03 F= -.41321715E+03 E0= -.41319622E+03  EK= 0.34967E+00 SP= 0.00E+00 SK= 0.00E+00
       N       E                     dE             d eps       ncg     rms          rms(c)
RMM:   1    -0.413249009185E+03   -0.31860E-01   -0.10964E+01  4306   0.188E+00    0.956E-01
RMM:   2    -0.413217132583E+03    0.31877E-01   -0.17757E-01  4464   0.213E-01    0.691E-01
RMM:   3    -0.413241035571E+03   -0.23903E-01   -0.34903E-02  5152   0.161E-01    0.722E-01
RMM:   4    -0.413222413860E+03    0.18622E-01   -0.41020E-02  4961   0.183E-01    0.412E-01
RMM:   5    -0.413213727198E+03    0.86867E-02   -0.41710E-03  4578   0.875E-02    0.620E-02
RMM:   6    -0.413213562494E+03    0.16470E-03   -0.45606E-04  4690   0.284E-02    0.326E-02
RMM:   7    -0.413213570450E+03   -0.79565E-05   -0.29210E-04  5753   0.177E-02    0.237E-02
RMM:   8    -0.413213536228E+03    0.34222E-04   -0.10134E-04  5023   0.115E-02    0.901E-03
RMM:   9    -0.413213529594E+03    0.66339E-05   -0.18095E-05  4695   0.547E-03    0.472E-03
RMM:  10    -0.413213525479E+03    0.41147E-05   -0.22608E-06  2621   0.238E-03    0.256E-03
RMM:  11    -0.413213519374E+03    0.61051E-05   -0.13388E-06  2495   0.189E-03    0.175E-03
RMM:  12    -0.413213515726E+03    0.36482E-05   -0.41943E-07  2380   0.121E-03    0.901E-04
RMM:  13    -0.413213511035E+03    0.46913E-05   -0.27830E-07  1969   0.892E-04    0.441E-04
RMM:  14    -0.413213505772E+03    0.52633E-05   -0.22163E-07  1785   0.794E-04    0.377E-04
RMM:  15    -0.413213501233E+03    0.45388E-05   -0.12392E-07  1151   0.642E-04    0.147E-04
RMM:  16    -0.413213498672E+03    0.25608E-05   -0.74597E-08  1069   0.600E-04    0.914E-05
RMM:  17    -0.413213495184E+03    0.34876E-05   -0.69906E-08  1123   0.608E-04    0.737E-05
RMM:  18    -0.413213493937E+03    0.12478E-05   -0.36486E-08   907   0.553E-04    0.610E-05
RMM:  19    -0.413213491883E+03    0.20535E-05   -0.37905E-08  1040   0.563E-04    0.393E-05
RMM:  20    -0.413213491138E+03    0.74543E-06   -0.20510E-08   795   0.509E-04
   49 T=    71. E= -.41286717E+03 F= -.41321349E+03 E0= -.41319257E+03  EK= 0.34632E+00 SP= 0.00E+00 SK= 0.00E+00
       N       E                     dE             d eps       ncg     rms          rms(c)
RMM:   1    -0.413235591382E+03   -0.22099E-01   -0.10731E+01  4304   0.193E+00    0.929E-01
RMM:   2    -0.413213121746E+03    0.22470E-01   -0.17886E-01  4484   0.222E-01    0.695E-01
RMM:   3    -0.413237331215E+03   -0.24209E-01   -0.35187E-02  5150   0.164E-01    0.735E-01
[...]
       N       E                     dE             d eps       ncg     rms          rms(c)
RMM:   1    -0.413681851156E+03   -0.21090E-01   -0.30984E+01  4302   0.106E+01    0.133E+00
RMM:   2    -0.413529201685E+03    0.15265E+00   -0.99080E-01  5383   0.118E+00    0.155E+00
RMM:   3    -0.413487387719E+03    0.41814E-01   -0.20262E-01  5528   0.505E-01    0.134E+00
RMM:   4    -0.413441607416E+03    0.45780E-01   -0.63799E-02  5240   0.305E-01    0.761E-01
RMM:   5    -0.413440567210E+03    0.10402E-02   -0.51997E-02  4982   0.277E-01    0.523E-01
RMM:   6    -0.413438483418E+03    0.20838E-02   -0.58281E-02  5110   0.278E-01    0.292E-01
RMM:   7    -0.413435652915E+03    0.28305E-02   -0.11058E-02  5217   0.141E-01    0.172E-01
RMM:   8    -0.413435081153E+03    0.57176E-03   -0.24278E-03  5613   0.603E-02    0.108E-01
RMM:   9    -0.413434893225E+03    0.18793E-03   -0.24046E-03  4559   0.557E-02    0.279E-02
RMM:  10    -0.413434958194E+03   -0.64968E-04   -0.38557E-04  5720   0.235E-02    0.224E-02
RMM:  11    -0.413434965365E+03   -0.71713E-05   -0.67965E-05  4718   0.106E-02    0.122E-02
RMM:  12    -0.413435002706E+03   -0.37341E-04   -0.40748E-05  4485   0.847E-03    0.738E-03
RMM:  13    -0.413435018618E+03   -0.15912E-04   -0.11274E-05  3481   0.440E-03    0.280E-03
RMM:  14    -0.413435032163E+03   -0.13545E-04   -0.71965E-06  3125   0.350E-03    0.205E-03
RMM:  15    -0.413435039584E+03   -0.74206E-05   -0.46325E-06  2855   0.274E-03    0.119E-03
RMM:  16    -0.413435043426E+03   -0.38419E-05   -0.43494E-06  2848   0.240E-03    0.839E-04
RMM:  17    -0.413435042571E+03    0.85469E-06   -0.31813E-06  2571   0.189E-03
  141 T=   274. E= -.41208731E+03 F= -.41343504E+03 E0= -.41341028E+03  EK= 0.13477E+01 SP= 0.00E+00 SK= 0.00E+00
       N       E                     dE             d eps       ncg     rms          rms(c)
RMM:   1    -0.413331459552E+03    0.10358E+00   -0.24139E+01  4299   0.949E+00    0.963E-01
RMM:   2    -0.413225919355E+03    0.10554E+00   -0.63835E-01  5375   0.939E-01    0.102E+00
RMM:   3    -0.413222714393E+03    0.32050E-02   -0.11602E-01  5682   0.367E-01    0.999E-01
RMM:   4    -0.413195714637E+03    0.27000E-01   -0.27015E-02  5066   0.200E-01    0.582E-01
RMM:   5    -0.413196128185E+03   -0.41355E-03   -0.37658E-02  5092   0.224E-01    0.415E-01
RMM:   6    -0.413194214885E+03    0.19133E-02   -0.42874E-02  5154   0.233E-01    0.224E-01
RMM:   7    -0.413193018769E+03    0.11961E-02   -0.65339E-03  5550   0.105E-01    0.174E-01
RMM:   8    -0.413192090572E+03    0.92820E-03   -0.20518E-03  4549   0.545E-02    0.814E-02
RMM:   9    -0.413192118970E+03   -0.28398E-04   -0.24340E-03  5204   0.504E-02    0.272E-02
RMM:  10    -0.413192136717E+03   -0.17747E-04   -0.16041E-04  5479   0.164E-02    0.166E-02
RMM:  11    -0.413192153004E+03   -0.16287E-04   -0.54443E-05  4608   0.923E-03    0.767E-03
RMM:  12    -0.413192177345E+03   -0.24341E-04   -0.16413E-05  3830   0.567E-03    0.402E-03
RMM:  13    -0.413192189920E+03   -0.12574E-04   -0.70121E-06  3131   0.340E-03    0.289E-03
RMM:  14    -0.413192197839E+03   -0.79193E-05   -0.48912E-06  2936   0.277E-03    0.177E-03
RMM:  15    -0.413192202012E+03   -0.41724E-05   -0.44775E-06  2903   0.252E-03    0.113E-03
RMM:  16    -0.413192201808E+03    0.20328E-06   -0.42076E-06  2777   0.230E-03
  142 T=   226. E= -.41208173E+03 F= -.41319220E+03 E0= -.41316891E+03  EK= 0.11105E+01 SP= 0.00E+00 SK= 0.00E+00
       N       E                     dE             d eps       ncg     rms          rms(c)
RMM:   1    -0.413111888106E+03    0.80314E-01   -0.18755E+01  4298   0.840E+00    0.737E-01
RMM:   2    -0.413045093436E+03    0.66795E-01   -0.41616E-01  5323   0.779E-01    0.716E-01
RMM:   3    -0.413051831967E+03   -0.67385E-02   -0.71920E-02  5779   0.281E-01    0.780E-01
RMM:   4    -0.413034992083E+03    0.16840E-01   -0.14976E-02  5008   0.146E-01    0.454E-01
RMM:   5    -0.413036516380E+03   -0.15243E-02   -0.29918E-02  5191   0.197E-01    0.320E-01
RMM:   6    -0.413034882917E+03    0.16335E-02   -0.25477E-02  5176   0.181E-01    0.180E-01
RMM:   7    -0.413034243226E+03    0.63969E-03   -0.33845E-03  5600   0.751E-02    0.145E-01
RMM:   8    -0.413033558535E+03    0.68469E-03   -0.18058E-03  4479   0.490E-02    0.537E-02
RMM:   9    -0.413033632793E+03   -0.74258E-04   -0.15468E-03  5534   0.389E-02    0.254E-02
RMM:  10    -0.413033625937E+03    0.68566E-05   -0.94416E-05  5113   0.128E-02    0.141E-02
RMM:  11    -0.413033636055E+03   -0.10119E-04   -0.47938E-05  4574   0.838E-03    0.556E-03
RMM:  12    -0.413033648493E+03   -0.12438E-04   -0.91223E-06  3444   0.413E-03    0.290E-03
RMM:  13    -0.413033655487E+03   -0.69936E-05   -0.36402E-06  2825   0.254E-03    0.266E-03
RMM:  14    -0.413033659689E+03   -0.42020E-05   -0.28281E-06  2768   0.223E-03    0.128E-03
RMM:  15    -0.413033661948E+03   -0.22594E-05   -0.26857E-06  2668   0.203E-03    0.852E-04
RMM:  16    -0.413033661395E+03    0.55317E-06   -0.23660E-06  2536   0.177E-03
  143 T=   194. E= -.41207863E+03 F= -.41303366E+03 E0= -.41301118E+03  EK= 0.95503E+00 SP= 0.00E+00 SK= 0.00E+00
       N       E                     dE             d eps       ncg     rms          rms(c)
RMM:   1    -0.413061940454E+03   -0.28279E-01   -0.16127E+01  4294   0.785E+00    0.592E-01
RMM:   2    -0.413015870912E+03    0.46070E-01   -0.31205E-01  5164   0.702E-01    0.551E-01
RMM:   3    -0.413024420878E+03   -0.85500E-02   -0.54919E-02  5837   0.240E-01    0.642E-01
RMM:   4    -0.413012880048E+03    0.11541E-01   -0.10605E-02  5103   0.119E-01    0.375E-01
RMM:   5    -0.413014203672E+03   -0.13236E-02   -0.19208E-02  5084   0.163E-01    0.241E-01
RMM:   6    -0.413013594508E+03    0.60916E-03   -0.14338E-02  5129   0.139E-01    0.142E-01
RMM:   7    -0.413013145903E+03    0.44861E-03   -0.21379E-03  5554   0.590E-02    0.111E-01
RMM:   8    -0.413012727440E+03    0.41846E-03   -0.11099E-03  4467   0.388E-02    0.397E-02
RMM:   9    -0.413012765033E+03   -0.37593E-04   -0.88257E-04  5576   0.298E-02    0.210E-02
RMM:  10    -0.413012759270E+03    0.57623E-05   -0.61607E-05  5172   0.987E-03    0.122E-02
RMM:  11    -0.413012760484E+03   -0.12136E-05   -0.29439E-05  4349   0.681E-03    0.434E-03
RMM:  12    -0.413012765106E+03   -0.46222E-05   -0.50825E-06  3041   0.310E-03    0.235E-03
RMM:  13    -0.413012768001E+03   -0.28947E-05   -0.14200E-06  2571   0.179E-03    0.180E-03
RMM:  14    -0.413012770111E+03   -0.21099E-05   -0.14300E-06  2523   0.168E-03    0.747E-04
RMM:  15    -0.413012771502E+03   -0.13911E-05   -0.11484E-06  2371   0.144E-03    0.401E-04
RMM:  16    -0.413012771719E+03   -0.21721E-06   -0.71386E-07  2153   0.114E-03
  144 T=   191. E= -.41207686E+03 F= -.41301277E+03 E0= -.41299058E+03  EK= 0.93592E+00 SP= 0.00E+00 SK= 0.00E+00
       N       E                     dE             d eps       ncg     rms          rms(c)
RMM:   1    -0.413214910083E+03   -0.20214E+00   -0.17357E+01  4281   0.816E+00    0.602E-01
RMM:   2    -0.413162334273E+03    0.52576E-01   -0.32590E-01  5038   0.736E-01    0.545E-01
RMM:   3    -0.413173943824E+03   -0.11610E-01   -0.57175E-02  5814   0.245E-01    0.656E-01
RMM:   4    -0.413161589027E+03    0.12355E-01   -0.11719E-02  5171   0.124E-01    0.384E-01
RMM:   5    -0.413162757928E+03   -0.11689E-02   -0.16282E-02  4849   0.161E-01    0.206E-01
RMM:   6    -0.413162250599E+03    0.50733E-03   -0.91451E-03  5010   0.118E-01    0.112E-01
RMM:   7    -0.413161986335E+03    0.26426E-03   -0.19037E-03  5607   0.528E-02    0.863E-02
RMM:   8    -0.413161701367E+03    0.28497E-03   -0.61731E-04  4486   0.314E-02    0.337E-02
RMM:   9    -0.413161704518E+03   -0.31516E-05   -0.58134E-04  5559   0.254E-02    0.189E-02
RMM:  10    -0.413161702370E+03    0.21483E-05   -0.54512E-05  5255   0.862E-03    0.128E-02
RMM:  11    -0.413161700348E+03    0.20222E-05   -0.21619E-05  4324   0.621E-03    0.520E-03
RMM:  12    -0.413161703895E+03   -0.35473E-05   -0.47617E-06  3046   0.302E-03    0.292E-03
RMM:  13    -0.413161708631E+03   -0.47357E-05   -0.12974E-06  2556   0.191E-03    0.177E-03
RMM:  14    -0.413161714002E+03   -0.53711E-05   -0.15291E-06  2599   0.181E-03    0.687E-04
RMM:  15    -0.413161719355E+03   -0.53533E-05   -0.10838E-06  2409   0.148E-03    0.450E-04
RMM:  16    -0.413161723069E+03   -0.37142E-05   -0.67541E-07  2186   0.112E-03    0.409E-04
RMM:  17    -0.413161728268E+03   -0.51984E-05   -0.94191E-07  2350   0.121E-03    0.209E-04
RMM:  18    -0.413161731480E+03   -0.32124E-05   -0.50489E-07  1619   0.859E-04    0.110E-04
RMM:  19    -0.413161733521E+03   -0.20405E-05   -0.26993E-07  1464   0.737E-04    0.815E-05
RMM:  20    -0.413161735271E+03   -0.17505E-05   -0.16083E-07  1297   0.656E-04    0.703E-05
RMM:  21    -0.413161736627E+03   -0.13558E-05   -0.93210E-08  1118   0.594E-04    0.391E-05
RMM:  22    -0.413161737348E+03   -0.72051E-06   -0.47070E-08   956   0.552E-04
  145 T=   221. E= -.41207760E+03 F= -.41316174E+03 E0= -.41313961E+03  EK= 0.10841E+01 SP= 0.00E+00 SK= 0.00E+00
       N       E                     dE             d eps       ncg     rms          rms(c)
RMM:   1    -0.413584445321E+03   -0.42271E+00   -0.23185E+01  4264   0.929E+00    0.743E-01
RMM:   2    -0.413466429575E+03    0.11802E+00   -0.46723E-01  4998   0.901E-01    0.677E-01
RMM:   3    -0.413483623010E+03   -0.17193E-01   -0.74246E-02  5815   0.289E-01    0.789E-01
RMM:   4    -0.413466990690E+03    0.16632E-01   -0.17047E-02  5207   0.149E-01    0.505E-01
RMM:   5    -0.413467362433E+03   -0.37174E-03   -0.23074E-02  4655   0.200E-01    0.234E-01
RMM:   6    -0.413466160235E+03    0.12022E-02   -0.98779E-03  4784   0.130E-01    0.115E-01
RMM:   7    -0.413465981849E+03    0.17839E-03   -0.25380E-03  5754   0.584E-02    0.853E-02
RMM:   8    -0.413465662100E+03    0.31975E-03   -0.68116E-04  4826   0.329E-02    0.409E-02
RMM:   9    -0.413465613988E+03    0.48112E-04   -0.63448E-04  5405   0.288E-02    0.207E-02
RMM:  10    -0.413465619180E+03   -0.51919E-05   -0.11583E-04  5819   0.117E-02    0.173E-02
RMM:  11    -0.413465614761E+03    0.44190E-05   -0.34325E-05  4870   0.763E-03    0.836E-03
RMM:  12    -0.413465620716E+03   -0.59554E-05   -0.12789E-05  4042   0.442E-03    0.463E-03
RMM:  13    -0.413465630354E+03   -0.96375E-05   -0.26881E-06  2726   0.282E-03    0.226E-03
RMM:  14    -0.413465641655E+03   -0.11301E-04   -0.18342E-06  2624   0.208E-03    0.123E-03
RMM:  15    -0.413465653781E+03   -0.12126E-04   -0.19336E-06  2667   0.193E-03    0.739E-04
RMM:  16    -0.413465663001E+03   -0.92202E-05   -0.12373E-06  2458   0.140E-03    0.565E-04
RMM:  17    -0.413465676754E+03   -0.13753E-04   -0.26203E-06  2744   0.190E-03    0.304E-04
RMM:  18    -0.413465683587E+03   -0.68333E-05   -0.13228E-06  2034   0.121E-03    0.207E-04
RMM:  19    -0.413465687969E+03   -0.43819E-05   -0.53663E-07  1778   0.918E-04    0.144E-04
RMM:  20    -0.413465691102E+03   -0.31323E-05   -0.27994E-07  1476   0.739E-04    0.890E-05
RMM:  21    -0.413465693909E+03   -0.28072E-05   -0.16958E-07  1331   0.667E-04    0.592E-05
RMM:  22    -0.413465695123E+03   -0.12147E-05   -0.83374E-08  1115   0.591E-04    0.398E-05
RMM:  23    -0.413465696016E+03   -0.89246E-06   -0.49323E-08  1033   0.563E-04
  146 T=   281. E= -.41208685E+03 F= -.41346570E+03 E0= -.41344362E+03  EK= 0.13788E+01 SP= 0.00E+00 SK= 0.00E+00
       N       E                     dE             d eps       ncg     rms          rms(c)
RMM:   1    -0.414063814740E+03   -0.59812E+00   -0.32925E+01  4264   0.109E+01    0.114E+00
RMM:   2    -0.413776771045E+03    0.28704E+00   -0.75550E-01  4961   0.116E+00    0.106E+00
RMM:   3    -0.413790280894E+03   -0.13510E-01   -0.93219E-02  5882   0.342E-01    0.960E-01
RMM:   4    -0.413794634220E+03   -0.43533E-02   -0.41376E-02  5336   0.210E-01    0.908E-01
RMM:   5    -0.413782045271E+03    0.12589E-01   -0.58654E-02  4742   0.316E-01    0.359E-01
RMM:   6    -0.413776962653E+03    0.50826E-02   -0.17932E-02  4703   0.180E-01    0.149E-01
RMM:   7    -0.413776890855E+03    0.71798E-04   -0.64980E-03  5893   0.882E-02    0.106E-01
RMM:   8    -0.413776504636E+03    0.38622E-03   -0.10737E-03  5393   0.384E-02    0.690E-02
RMM:   9    -0.413776285895E+03    0.21874E-03   -0.11655E-03  5167   0.412E-02    0.292E-02
RMM:  10    -0.413776307276E+03   -0.21381E-04   -0.38110E-04  5988   0.211E-02    0.300E-02
RMM:  11    -0.413776277109E+03    0.30168E-04   -0.78069E-05  4975   0.119E-02    0.132E-02
RMM:  12    -0.413776281933E+03   -0.48247E-05   -0.46149E-05  5506   0.741E-03    0.750E-03
RMM:  13    -0.413776294473E+03   -0.12540E-04   -0.82894E-06  3375   0.434E-03    0.332E-03
RMM:  14    -0.413776308084E+03   -0.13611E-04   -0.26871E-06  2740   0.275E-03    0.165E-03
RMM:  15    -0.413776323375E+03   -0.15291E-04   -0.22418E-06  2695   0.225E-03    0.133E-03
RMM:  16    -0.413776335361E+03   -0.11986E-04   -0.16946E-06  2622   0.172E-03    0.784E-04
RMM:  17    -0.413776351419E+03   -0.16058E-04   -0.31579E-06  2791   0.215E-03    0.480E-04
RMM:  18    -0.413776360035E+03   -0.86163E-05   -0.17994E-06  2430   0.146E-03    0.451E-04
RMM:  19    -0.413776365926E+03   -0.58909E-05   -0.90391E-07  2128   0.113E-03    0.397E-04
RMM:  20    -0.413776370593E+03   -0.46663E-05   -0.57356E-07  1834   0.918E-04    0.242E-04
RMM:  21    -0.413776373734E+03   -0.31419E-05   -0.30460E-07  1478   0.741E-04    0.110E-04
RMM:  22    -0.413776375630E+03   -0.18951E-05   -0.15963E-07  1283   0.644E-04    0.715E-05
RMM:  23    -0.413776377246E+03   -0.16163E-05   -0.10377E-07  1217   0.608E-04    0.976E-05
RMM:  24    -0.413776377568E+03   -0.32174E-06   -0.41631E-08   924   0.538E-04
  147 T=   338. E= -.41211546E+03 F= -.41377638E+03 E0= -.41375453E+03  EK= 0.16609E+01 SP= 0.00E+00 SK= 0.00E+00
       N       E                     dE             d eps       ncg     rms          rms(c)
RMM:   1    -0.414162292426E+03   -0.38592E+00   -0.39920E+01  4264   0.117E+01    0.206E+00
RMM:   2    -0.413730991852E+03    0.43130E+00   -0.10672E+00  4960   0.134E+00    0.185E+00
RMM:   3    -0.413753106351E+03   -0.22114E-01   -0.15538E-01  5752   0.473E-01    0.132E+00
RMM:   4    -0.413986684097E+03   -0.23358E+00   -0.32496E-01  5241   0.537E-01    0.214E+00
RMM:   5    -0.413747225512E+03    0.23946E+00   -0.22369E-01  5023   0.539E-01    0.576E-01
RMM:   6    -0.413732078926E+03    0.15147E-01   -0.45589E-02  5014   0.275E-01    0.152E-01
RMM:   7    -0.413732463009E+03   -0.38408E-03   -0.14087E-02  6053   0.120E-01    0.995E-02
RMM:   8    -0.413732220184E+03    0.24283E-03   -0.20728E-03  5635   0.508E-02    0.660E-02
RMM:   9    -0.413732036477E+03    0.18371E-03   -0.67562E-04  5001   0.326E-02    0.248E-02
RMM:  10    -0.413732048246E+03   -0.11769E-04   -0.39014E-04  6084   0.208E-02    0.224E-02
RMM:  11    -0.413732035787E+03    0.12459E-04   -0.45679E-05  4900   0.916E-03    0.110E-02
RMM:  12    -0.413732040719E+03   -0.49321E-05   -0.40753E-05  5362   0.743E-03    0.596E-03
RMM:  13    -0.413732050193E+03   -0.94735E-05   -0.63141E-06  3176   0.362E-03    0.377E-03
RMM:  14    -0.413732058988E+03   -0.87953E-05   -0.26762E-06  2713   0.267E-03    0.172E-03
RMM:  15    -0.413732071256E+03   -0.12268E-04   -0.21109E-06  2661   0.231E-03    0.897E-04
RMM:  16    -0.413732081490E+03   -0.10234E-04   -0.18540E-06  2653   0.189E-03    0.792E-04
RMM:  17    -0.413732091872E+03   -0.10382E-04   -0.19675E-06  2665   0.178E-03    0.607E-04
RMM:  18    -0.413732099962E+03   -0.80893E-05   -0.17633E-06  2536   0.153E-03    0.455E-04
RMM:  19    -0.413732104277E+03   -0.43149E-05   -0.87783E-07  1891   0.103E-03    0.307E-04
RMM:  20    -0.413732107659E+03   -0.33826E-05   -0.50203E-07  1789   0.899E-04    0.138E-04
RMM:  21    -0.413732110262E+03   -0.26025E-05   -0.30485E-07  1550   0.755E-04    0.120E-04
RMM:  22    -0.413732111606E+03   -0.13444E-05   -0.15325E-07  1183   0.629E-04    0.918E-05
RMM:  23    -0.413732112717E+03   -0.11111E-05   -0.95416E-08  1091   0.589E-04    0.448E-05
RMM:  24    -0.413732113331E+03   -0.61330E-06   -0.54553E-08   980   0.558E-04
  148 T=   328. E= -.41212145E+03 F= -.41373211E+03 E0= -.41371066E+03  EK= 0.16107E+01 SP= 0.00E+00 SK= 0.00E+00
       N       E                     dE             d eps       ncg     rms          rms(c)
RMM:   1    -0.413728875209E+03    0.32375E-02   -0.33320E+01  4264   0.107E+01    0.163E+00
RMM:   2    -0.413466238909E+03    0.26264E+00   -0.10477E+00  5253   0.120E+00    0.136E+00
RMM:   3    -0.413566285560E+03   -0.10005E+00   -0.23415E-01  5512   0.540E-01    0.179E+00
RMM:   4    -0.413464167396E+03    0.10212E+00   -0.12225E-01  5202   0.397E-01    0.107E+00
RMM:   5    -0.413453543610E+03    0.10624E-01   -0.27041E-02  4389   0.248E-01    0.300E-01
RMM:   6    -0.413454010475E+03   -0.46686E-03   -0.14321E-02  5736   0.139E-01    0.121E-01
RMM:   7    -0.413453783712E+03    0.22676E-03   -0.28263E-03  5593   0.612E-02    0.745E-02
RMM:   8    -0.413453628783E+03    0.15493E-03   -0.99193E-04  5370   0.385E-02    0.448E-02
RMM:   9    -0.413453628449E+03    0.33426E-06   -0.62364E-04  5557   0.299E-02    0.426E-02
RMM:  10    -0.413453571056E+03    0.57393E-04   -0.17728E-04  4908   0.178E-02    0.144E-02
RMM:  11    -0.413453578049E+03   -0.69931E-05   -0.91446E-05  5934   0.102E-02    0.119E-02
RMM:  12    -0.413453575999E+03    0.20493E-05   -0.11375E-05  3907   0.477E-03    0.585E-03
RMM:  13    -0.413453579001E+03   -0.30012E-05   -0.76689E-06  3498   0.358E-03    0.205E-03
RMM:  14    -0.413453583949E+03   -0.49484E-05   -0.28257E-06  2729   0.265E-03    0.102E-03
RMM:  15    -0.413453587747E+03   -0.37978E-05   -0.15318E-06  2571   0.196E-03    0.788E-04
RMM:  16    -0.413453591037E+03   -0.32898E-05   -0.10562E-06  2459   0.153E-03    0.679E-04
RMM:  17    -0.413453593837E+03   -0.28001E-05   -0.88412E-07  2412   0.126E-03    0.471E-04
RMM:  18    -0.413453595843E+03   -0.20060E-05   -0.67757E-07  1934   0.102E-03    0.226E-04
RMM:  19    -0.413453597066E+03   -0.12229E-05   -0.51271E-07  1872   0.915E-04    0.128E-04
RMM:  20    -0.413453597624E+03   -0.55824E-06   -0.22810E-07  1376   0.681E-04
  149 T=   287. E= -.41204266E+03 F= -.41345360E+03 E0= -.41343187E+03  EK= 0.14109E+01 SP= 0.00E+00 SK= 0.00E+00
       N       E                     dE             d eps       ncg     rms          rms(c)
RMM:   1    -0.414136082743E+03   -0.68249E+00   -0.34675E+01  4282   0.106E+01    0.226E+00
RMM:   2    -0.413967173247E+03    0.16891E+00   -0.18924E+00  5413   0.163E+00    0.254E+00
RMM:   3    -0.413943008396E+03    0.24165E-01   -0.49200E-01  5283   0.797E-01    0.231E+00
RMM:   4    -0.413759081645E+03    0.18393E+00   -0.26171E-01  5146   0.609E-01    0.107E+00
RMM:   5    -0.413754336683E+03    0.47450E-02   -0.83415E-02  5276   0.382E-01    0.455E-01
RMM:   6    -0.413753339808E+03    0.99688E-03   -0.60055E-02  5178   0.290E-01    0.299E-01
RMM:   7    -0.413747861513E+03    0.54783E-02   -0.12745E-02  4933   0.151E-01    0.131E-01
RMM:   8    -0.413747805292E+03    0.56221E-04   -0.27557E-03  5623   0.648E-02    0.847E-02
RMM:   9    -0.413747729059E+03    0.76232E-04   -0.65846E-04  4825   0.342E-02    0.330E-02
RMM:  10    -0.413747715390E+03    0.13669E-04   -0.21200E-04  5433   0.178E-02    0.163E-02
RMM:  11    -0.413747717176E+03   -0.17855E-05   -0.82890E-05  5951   0.104E-02    0.101E-02
RMM:  12    -0.413747718958E+03   -0.17825E-05   -0.15429E-05  4458   0.513E-03    0.631E-03
RMM:  13    -0.413747720224E+03   -0.12656E-05   -0.66740E-06  3400   0.362E-03    0.280E-03
RMM:  14    -0.413747722047E+03   -0.18229E-05   -0.21917E-06  2643   0.234E-03    0.147E-03
RMM:  15    -0.413747723237E+03   -0.11898E-05   -0.10909E-06  2519   0.169E-03    0.712E-04
RMM:  16    -0.413747723605E+03   -0.36796E-06   -0.54875E-07  2312   0.116E-03
  150 T=   330. E= -.41212609E+03 F= -.41374772E+03 E0= -.41372503E+03  EK= 0.16216E+01 SP= 0.00E+00 SK= 0.00E+00
