       N       E                     dE             d eps       ncg     rms          rms(c)
RMM:   1     0.220194320929E+04    0.22019E+04   -0.52442E+04  2132   0.654E+02
RMM:   2     0.706031277898E+03   -0.14959E+04   -0.16266E+04  2132   0.177E+02
RMM:   3     0.138164295125E+03   -0.56787E+03   -0.65713E+03  2132   0.117E+02
RMM:   4    -0.159450505872E+03   -0.29761E+03   -0.27892E+03  2132   0.937E+01
RMM:   5    -0.287462264256E+03   -0.12801E+03   -0.11460E+03  2132   0.595E+01
RMM:   6    -0.349910984243E+03   -0.62449E+02   -0.55181E+02  2132   0.423E+01
RMM:   7    -0.382806176420E+03   -0.32895E+02   -0.30431E+02  2132   0.293E+01
RMM:   8    -0.404258256898E+03   -0.21452E+02   -0.18415E+02  2132   0.233E+01
RMM:   9    -0.435992228089E+03   -0.31734E+02   -0.30608E+02  6105   0.173E+01
RMM:  10    -0.441333547129E+03   -0.53413E+01   -0.63281E+01  6401   0.540E+00
RMM:  11    -0.442530459278E+03   -0.11969E+01   -0.11131E+01  6207   0.173E+00
RMM:  12    -0.442897604531E+03   -0.36715E+00   -0.26257E+00  6364   0.597E-01    0.134E+02
RMM:  13    -0.425606983935E+03    0.17291E+02   -0.81295E+01  4676   0.119E+01    0.712E+01
RMM:  14    -0.499518297583E+03   -0.73911E+02   -0.54072E+02  5416   0.232E+01    0.306E+01
RMM:  15    -0.416284263518E+03    0.83234E+02   -0.20006E+02  5093   0.164E+01    0.734E+00
RMM:  16    -0.414002515501E+03    0.22817E+01   -0.39813E+01  6092   0.613E+00    0.426E+00
RMM:  17    -0.413214355825E+03    0.78816E+00   -0.25487E+00  5410   0.189E+00    0.244E+00
RMM:  18    -0.413177130024E+03    0.37226E-01   -0.76128E-01  5985   0.897E-01    0.169E+00
RMM:  19    -0.413171016949E+03    0.61131E-02   -0.27707E-01  5699   0.568E-01    0.888E-01
RMM:  20    -0.413192833100E+03   -0.21816E-01   -0.28700E-01  5588   0.556E-01    0.647E-01
RMM:  21    -0.413170090404E+03    0.22743E-01   -0.36589E-02  4984   0.247E-01    0.295E-01
RMM:  22    -0.413166578755E+03    0.35116E-02   -0.23681E-02  5917   0.146E-01    0.135E-01
RMM:  23    -0.413165492286E+03    0.10865E-02   -0.54224E-03  6015   0.651E-02    0.846E-02
RMM:  24    -0.413163902784E+03    0.15895E-02   -0.17253E-03  5315   0.426E-02    0.519E-02
RMM:  25    -0.413163108345E+03    0.79444E-03   -0.87954E-04  5067   0.292E-02    0.410E-02
RMM:  26    -0.413163115134E+03   -0.67890E-05   -0.10702E-03  5816   0.337E-02    0.347E-02
RMM:  27    -0.413163517230E+03   -0.40210E-03   -0.21065E-04  4523   0.213E-02    0.196E-02
RMM:  28    -0.413163915405E+03   -0.39818E-03   -0.15785E-04  5163   0.177E-02    0.925E-03
RMM:  29    -0.413164281137E+03   -0.36573E-03   -0.11028E-04  4578   0.157E-02    0.460E-03
RMM:  30    -0.413164514596E+03   -0.23346E-03   -0.83512E-05  4383   0.108E-02    0.446E-03
RMM:  31    -0.413164638047E+03   -0.12345E-03   -0.55563E-05  3213   0.710E-03    0.366E-03
RMM:  32    -0.413164658671E+03   -0.20624E-04   -0.21027E-05  2994   0.320E-03    0.184E-03
RMM:  33    -0.413164666839E+03   -0.81683E-05   -0.82468E-06  2797   0.223E-03    0.649E-04
RMM:  34    -0.413164667041E+03   -0.20249E-06   -0.43872E-06  2608   0.158E-03
    1 T=    61. E= -.41286687E+03 F= -.41316467E+03 E0= -.41314217E+03  EK= 0.29779E+00 SP= 0.00E+00 SK= 0.00E+00
       N       E                     dE             d eps       ncg     rms          rms(c)
RMM:   1    -0.413177650187E+03   -0.12983E-01   -0.54091E+00  3979   0.444E-01    0.930E-01
RMM:   2    -0.413172228728E+03    0.54215E-02   -0.72627E-02  3928   0.679E-02    0.667E-01
RMM:   3    -0.413170097225E+03    0.21315E-02   -0.66878E-02  5138   0.888E-02    0.396E-01
RMM:   4    -0.413178414580E+03   -0.83174E-02   -0.22863E-02  5133   0.131E-01    0.524E-01
RMM:   5    -0.413164311099E+03    0.14103E-01   -0.92922E-03  4688   0.873E-02    0.387E-02
RMM:   6    -0.413164369406E+03   -0.58307E-04   -0.10942E-03  5592   0.317E-02    0.232E-02
RMM:   7    -0.413164379106E+03   -0.97001E-05   -0.17738E-04  5552   0.124E-02    0.156E-02
RMM:   8    -0.413164387251E+03   -0.81450E-05   -0.27595E-05  4358   0.604E-03    0.436E-03
RMM:   9    -0.413164392020E+03   -0.47689E-05   -0.49126E-06  2837   0.248E-03    0.343E-03
RMM:  10    -0.413164397574E+03   -0.55540E-05   -0.13797E-06  2522   0.156E-03    0.208E-03
RMM:  11    -0.413164401978E+03   -0.44044E-05   -0.97158E-07  2237   0.118E-03    0.797E-04
RMM:  12    -0.413164407143E+03   -0.51646E-05   -0.78305E-07  2188   0.107E-03    0.419E-04
RMM:  13    -0.413164409940E+03   -0.27976E-05   -0.47037E-07  1623   0.843E-04    0.285E-04
RMM:  14    -0.413164411635E+03   -0.16952E-05   -0.38893E-07  1480   0.774E-04    0.138E-04
RMM:  15    -0.413164413326E+03   -0.16908E-05   -0.41553E-07  1681   0.787E-04    0.225E-04
RMM:  16    -0.413164414448E+03   -0.11219E-05   -0.39900E-07  1554   0.738E-04    0.123E-04
RMM:  17    -0.413164414411E+03    0.37558E-07   -0.15839E-07  1029   0.557E-04
    2 T=    61. E= -.41286663E+03 F= -.41316441E+03 E0= -.41314191E+03  EK= 0.29778E+00 SP= 0.00E+00 SK= 0.00E+00
       N       E                     dE             d eps       ncg     rms          rms(c)
RMM:   1    -0.413178768494E+03   -0.14354E-01   -0.53446E+00  4187   0.440E-01    0.949E-01
RMM:   2    -0.413172408062E+03    0.63604E-02   -0.73292E-02  4009   0.680E-02    0.667E-01
RMM:   3    -0.413171729494E+03    0.67857E-03   -0.63680E-02  5171   0.931E-02    0.397E-01
RMM:   4    -0.413177388599E+03   -0.56591E-02   -0.22814E-02  5091   0.132E-01    0.492E-01
RMM:   5    -0.413164848033E+03    0.12541E-01   -0.75824E-03  4617   0.808E-02    0.369E-02
RMM:   6    -0.413164892226E+03   -0.44193E-04   -0.95512E-04  5499   0.290E-02    0.242E-02
RMM:   7    -0.413164910680E+03   -0.18454E-04   -0.16135E-04  5362   0.127E-02    0.172E-02
RMM:   8    -0.413164914706E+03   -0.40264E-05   -0.28097E-05  4390   0.671E-03    0.474E-03
RMM:   9    -0.413164914680E+03    0.25917E-07   -0.51869E-06  2833   0.258E-03
    3 T=    61. E= -.41286687E+03 F= -.41316491E+03 E0= -.41314242E+03  EK= 0.29804E+00 SP= 0.00E+00 SK= 0.00E+00
       N       E                     dE             d eps       ncg     rms          rms(c)
RMM:   1    -0.413177922199E+03   -0.13007E-01   -0.53145E+00  4216   0.447E-01    0.932E-01
RMM:   2    -0.413172133527E+03    0.57887E-02   -0.72566E-02  4089   0.656E-02    0.661E-01
RMM:   3    -0.413175966344E+03   -0.38328E-02   -0.66624E-02  5197   0.111E-01    0.489E-01
RMM:   4    -0.413173330815E+03    0.26355E-02   -0.22905E-02  5043   0.135E-01    0.428E-01
RMM:   5    -0.413164671798E+03    0.86590E-02   -0.65318E-03  4477   0.697E-02    0.355E-02
RMM:   6    -0.413164686479E+03   -0.14681E-04   -0.59912E-04  5261   0.226E-02    0.235E-02
RMM:   7    -0.413164697048E+03   -0.10569E-04   -0.11430E-04  5057   0.110E-02    0.153E-02
RMM:   8    -0.413164691238E+03    0.58107E-05   -0.21740E-05  3978   0.612E-03    0.351E-03
RMM:   9    -0.413164692285E+03   -0.10475E-05   -0.28594E-06  2635   0.224E-03    0.292E-03
RMM:  10    -0.413164693711E+03   -0.14259E-05   -0.10042E-06  2463   0.134E-03    0.155E-03
RMM:  11    -0.413164694904E+03   -0.11924E-05   -0.69791E-07  1867   0.101E-03    0.597E-04
RMM:  12    -0.413164696232E+03   -0.13286E-05   -0.81112E-07  2298   0.108E-03    0.467E-04
RMM:  13    -0.413164696434E+03   -0.20159E-06   -0.50102E-07  1518   0.833E-04
    4 T=    61. E= -.41286660E+03 F= -.41316470E+03 E0= -.41314221E+03  EK= 0.29810E+00 SP= 0.00E+00 SK= 0.00E+00
       N       E                     dE             d eps       ncg     rms          rms(c)
RMM:   1    -0.413177948108E+03   -0.13252E-01   -0.54086E+00  4236   0.462E-01    0.928E-01
RMM:   2    -0.413172649621E+03    0.52985E-02   -0.72476E-02  3917   0.632E-02    0.666E-01
RMM:   3    -0.413172318718E+03    0.33090E-03   -0.67833E-02  5174   0.931E-02    0.434E-01
RMM:   4    -0.413176701242E+03   -0.43825E-02   -0.22209E-02  5085   0.131E-01    0.493E-01
RMM:   5    -0.413164740684E+03    0.11961E-01   -0.84865E-03  4590   0.802E-02    0.361E-02
RMM:   6    -0.413164801780E+03   -0.61096E-04   -0.92746E-04  5468   0.282E-02    0.234E-02
RMM:   7    -0.413164849451E+03   -0.47670E-04   -0.15324E-04  5346   0.121E-02    0.160E-02
RMM:   8    -0.413164858033E+03   -0.85820E-05   -0.25489E-05  4314   0.646E-03    0.427E-03
RMM:   9    -0.413164862201E+03   -0.41686E-05   -0.42705E-06  2788   0.253E-03    0.333E-03
RMM:  10    -0.413164867022E+03   -0.48209E-05   -0.93357E-07  2509   0.144E-03    0.204E-03
RMM:  11    -0.413164871177E+03   -0.41546E-05   -0.71867E-07  2019   0.106E-03    0.784E-04
RMM:  12    -0.413164875958E+03   -0.47807E-05   -0.67625E-07  2207   0.104E-03    0.503E-04
RMM:  13    -0.413164877946E+03   -0.19884E-05   -0.31239E-07  1455   0.782E-04    0.331E-04
RMM:  14    -0.413164878909E+03   -0.96348E-06   -0.27572E-07  1385   0.742E-04
    5 T=    61. E= -.41286665E+03 F= -.41316488E+03 E0= -.41314240E+03  EK= 0.29823E+00 SP= 0.00E+00 SK= 0.00E+00
       N       E                     dE             d eps       ncg     rms          rms(c)
RMM:   1    -0.413179027267E+03   -0.14149E-01   -0.53609E+00  4244   0.455E-01    0.945E-01
RMM:   2    -0.413172762086E+03    0.62652E-02   -0.73056E-02  4020   0.648E-02    0.668E-01
RMM:   3    -0.413172755157E+03    0.69284E-05   -0.64727E-02  5171   0.935E-02    0.415E-01
RMM:   4    -0.413177034735E+03   -0.42796E-02   -0.22643E-02  5072   0.132E-01    0.482E-01
RMM:   5    -0.413165276064E+03    0.11759E-01   -0.75279E-03  4585   0.783E-02    0.364E-02
RMM:   6    -0.413165322654E+03   -0.46589E-04   -0.89830E-04  5435   0.280E-02    0.239E-02
RMM:   7    -0.413165335732E+03   -0.13078E-04   -0.15042E-04  5357   0.119E-02    0.169E-02
RMM:   8    -0.413165335081E+03    0.65047E-06   -0.25646E-05  4357   0.614E-03    0.455E-03
RMM:   9    -0.413165335892E+03   -0.81109E-06   -0.40192E-06  2711   0.246E-03
    6 T=    61. E= -.41286702E+03 F= -.41316534E+03 E0= -.41314287E+03  EK= 0.29832E+00 SP= 0.00E+00 SK= 0.00E+00
       N       E                     dE             d eps       ncg     rms          rms(c)
RMM:   1    -0.413178671508E+03   -0.13336E-01   -0.53168E+00  4259   0.459E-01    0.939E-01
RMM:   2    -0.413172457047E+03    0.62145E-02   -0.72698E-02  4162   0.654E-02    0.662E-01
RMM:   3    -0.413176370672E+03   -0.39136E-02   -0.65955E-02  5185   0.110E-01    0.482E-01
RMM:   4    -0.413173897942E+03    0.24727E-02   -0.23024E-02  5034   0.135E-01    0.427E-01
RMM:   5    -0.413165145197E+03    0.87527E-02   -0.62658E-03  4478   0.698E-02    0.357E-02
RMM:   6    -0.413165157701E+03   -0.12504E-04   -0.61445E-04  5272   0.228E-02    0.237E-02
RMM:   7    -0.413165165882E+03   -0.81815E-05   -0.11819E-04  5079   0.110E-02    0.157E-02
RMM:   8    -0.413165168197E+03   -0.23145E-05   -0.22140E-05  4008   0.575E-03    0.362E-03
RMM:   9    -0.413165168087E+03    0.10933E-06   -0.28336E-06  2590   0.209E-03
    7 T=    61. E= -.41286697E+03 F= -.41316517E+03 E0= -.41314272E+03  EK= 0.29820E+00 SP= 0.00E+00 SK= 0.00E+00
       N       E                     dE             d eps       ncg     rms          rms(c)
RMM:   1    -0.413178753354E+03   -0.13585E-01   -0.53867E+00  4277   0.469E-01    0.925E-01
RMM:   2    -0.413173407282E+03    0.53461E-02   -0.72580E-02  4142   0.683E-02    0.664E-01
RMM:   3    -0.413175590665E+03   -0.21834E-02   -0.68514E-02  5134   0.106E-01    0.475E-01
RMM:   4    -0.413175545200E+03    0.45464E-04   -0.22401E-02  5038   0.132E-01    0.460E-01
RMM:   5    -0.413165648822E+03    0.98964E-02   -0.77258E-03  4534   0.736E-02    0.354E-02
RMM:   6    -0.413165681599E+03   -0.32777E-04   -0.74048E-04  5358   0.246E-02    0.230E-02
RMM:   7    -0.413165704306E+03   -0.22707E-04   -0.12954E-04  5196   0.110E-02    0.151E-02
RMM:   8    -0.413165712430E+03   -0.81239E-05   -0.21085E-05  4042   0.539E-03    0.375E-03
RMM:   9    -0.413165715247E+03   -0.28172E-05   -0.26004E-06  2583   0.210E-03    0.311E-03
RMM:  10    -0.413165718636E+03   -0.33890E-05   -0.98131E-07  2430   0.134E-03    0.171E-03
RMM:  11    -0.413165720926E+03   -0.22899E-05   -0.67094E-07  1842   0.100E-03    0.656E-04
RMM:  12    -0.413165723463E+03   -0.25367E-05   -0.72697E-07  2244   0.105E-03    0.481E-04
RMM:  13    -0.413165724387E+03   -0.92430E-06   -0.54775E-07  1579   0.870E-04
    8 T=    61. E= -.41286724E+03 F= -.41316572E+03 E0= -.41314330E+03  EK= 0.29848E+00 SP= 0.00E+00 SK= 0.00E+00
       N       E                     dE             d eps       ncg     rms          rms(c)
RMM:   1    -0.413179498252E+03   -0.13775E-01   -0.53797E+00  4283   0.469E-01    0.940E-01
RMM:   2    -0.413173591861E+03    0.59064E-02   -0.72832E-02  4175   0.694E-02    0.668E-01
RMM:   3    -0.413173648485E+03   -0.56623E-04   -0.65962E-02  5108   0.991E-02    0.427E-01
RMM:   4    -0.413177408238E+03   -0.37598E-02   -0.22363E-02  5053   0.131E-01    0.482E-01
RMM:   5    -0.413165882839E+03    0.11525E-01   -0.77657E-03  4582   0.787E-02    0.358E-02
RMM:   6    -0.413165921313E+03   -0.38475E-04   -0.90010E-04  5468   0.275E-02    0.239E-02
RMM:   7    -0.413165913335E+03    0.79782E-05   -0.14957E-04  5283   0.121E-02    0.167E-02
RMM:   8    -0.413165914871E+03   -0.15357E-05   -0.24918E-05  4228   0.641E-03    0.436E-03
RMM:   9    -0.413165916675E+03   -0.18044E-05   -0.43549E-06  2752   0.249E-03    0.313E-03
RMM:  10    -0.413165918269E+03   -0.15932E-05   -0.91804E-07  2486   0.142E-03    0.195E-03
RMM:  11    -0.413165919361E+03   -0.10922E-05   -0.67379E-07  1960   0.105E-03    0.772E-04
RMM:  12    -0.413165920090E+03   -0.72936E-06   -0.62480E-07  2210   0.104E-03
    9 T=    61. E= -.41286712E+03 F= -.41316592E+03 E0= -.41314351E+03  EK= 0.29880E+00 SP= 0.00E+00 SK= 0.00E+00
       N       E                     dE             d eps       ncg     rms          rms(c)
RMM:   1    -0.413179801989E+03   -0.13883E-01   -0.53342E+00  4288   0.471E-01    0.947E-01
RMM:   2    -0.413173388069E+03    0.64139E-02   -0.73142E-02  4209   0.690E-02    0.665E-01
RMM:   3    -0.413172704723E+03    0.68335E-03   -0.63418E-02  5127   0.937E-02    0.394E-01
RMM:   4    -0.413178571021E+03   -0.58663E-02   -0.22875E-02  5063   0.132E-01    0.493E-01
RMM:   5    -0.413165885637E+03    0.12685E-01   -0.75745E-03  4615   0.799E-02    0.364E-02
RMM:   6    -0.413165935098E+03   -0.49462E-04   -0.96972E-04  5536   0.289E-02    0.245E-02
RMM:   7    -0.413165943869E+03   -0.87702E-05   -0.16241E-04  5371   0.124E-02    0.177E-02
RMM:   8    -0.413165946723E+03   -0.28543E-05   -0.27807E-05  4370   0.642E-03    0.493E-03
RMM:   9    -0.413165945484E+03    0.12390E-05   -0.49489E-06  2799   0.264E-03    0.312E-03
RMM:  10    -0.413165944236E+03    0.12479E-05   -0.97570E-07  2498   0.150E-03    0.206E-03
RMM:  11    -0.413165942679E+03    0.15571E-05   -0.73040E-07  2121   0.110E-03    0.863E-04
RMM:  12    -0.413165939679E+03    0.29998E-05   -0.75147E-07  2238   0.111E-03    0.607E-04
RMM:  13    -0.413165937652E+03    0.20268E-05   -0.26801E-07  1474   0.788E-04    0.395E-04
RMM:  14    -0.413165935416E+03    0.22358E-05   -0.21789E-07  1386   0.738E-04    0.167E-04
RMM:  15    -0.413165932099E+03    0.33178E-05   -0.23331E-07  1547   0.749E-04    0.251E-04
RMM:  16    -0.413165928617E+03    0.34814E-05   -0.20463E-07  1415   0.692E-04    0.149E-04
RMM:  17    -0.413165926610E+03    0.20067E-05   -0.11218E-07  1107   0.585E-04    0.838E-05
RMM:  18    -0.413165925672E+03    0.93825E-06   -0.59771E-08   854   0.528E-04
   10 T=    61. E= -.41286684E+03 F= -.41316593E+03 E0= -.41314354E+03  EK= 0.29909E+00 SP= 0.00E+00 SK= 0.00E+00
       N       E                     dE             d eps       ncg     rms          rms(c)
RMM:   1    -0.413179766892E+03   -0.13840E-01   -0.53740E+00  4289   0.481E-01    0.926E-01
RMM:   2    -0.413174486516E+03    0.52804E-02   -0.72451E-02  4218   0.690E-02    0.663E-01
RMM:   3    -0.413174028520E+03    0.45800E-03   -0.66642E-02  5123   0.958E-02    0.428E-01
RMM:   4    -0.413178573504E+03   -0.45450E-02   -0.22342E-02  5053   0.131E-01    0.491E-01
RMM:   5    -0.413166666192E+03    0.11907E-01   -0.82728E-03  4580   0.794E-02    0.358E-02
RMM:   6    -0.413166731690E+03   -0.65499E-04   -0.94388E-04  5459   0.281E-02    0.236E-02
RMM:   7    -0.413166723235E+03    0.84558E-05   -0.15418E-04  5263   0.127E-02    0.166E-02
RMM:   8    -0.413166722179E+03    0.10560E-05   -0.25700E-05  4252   0.646E-03    0.436E-03
RMM:   9    -0.413166724819E+03   -0.26403E-05   -0.46255E-06  2776   0.257E-03    0.320E-03
RMM:  10    -0.413166727740E+03   -0.29206E-05   -0.92960E-07  2494   0.145E-03    0.202E-03
RMM:  11    -0.413166729780E+03   -0.20407E-05   -0.65471E-07  1976   0.105E-03    0.813E-04
RMM:  12    -0.413166731673E+03   -0.18924E-05   -0.59643E-07  2185   0.103E-03    0.520E-04
RMM:  13    -0.413166731882E+03   -0.20966E-06   -0.22798E-07  1368   0.751E-04
   11 T=    61. E= -.41286708E+03 F= -.41316673E+03 E0= -.41314437E+03  EK= 0.29965E+00 SP= 0.00E+00 SK= 0.00E+00
       N       E                     dE             d eps       ncg     rms          rms(c)
RMM:   1    -0.413180051153E+03   -0.13319E-01   -0.54158E+00  4284   0.483E-01    0.938E-01
RMM:   2    -0.413174482347E+03    0.55688E-02   -0.72873E-02  4222   0.704E-02    0.670E-01
RMM:   3    -0.413174237799E+03    0.24455E-03   -0.67023E-02  5135   0.963E-02    0.430E-01
RMM:   4    -0.413178502025E+03   -0.42642E-02   -0.22433E-02  5061   0.131E-01    0.489E-01
RMM:   5    -0.413166598492E+03    0.11904E-01   -0.81105E-03  4576   0.789E-02    0.359E-02
RMM:   6    -0.413166675600E+03   -0.77109E-04   -0.92812E-04  5493   0.277E-02    0.238E-02
RMM:   7    -0.413166702522E+03   -0.26922E-04   -0.15353E-04  5298   0.123E-02    0.168E-02
RMM:   8    -0.413166704533E+03   -0.20105E-05   -0.25633E-05  4284   0.672E-03    0.439E-03
RMM:   9    -0.413166706643E+03   -0.21099E-05   -0.43242E-06  2755   0.262E-03    0.326E-03
RMM:  10    -0.413166708991E+03   -0.23489E-05   -0.93433E-07  2494   0.145E-03    0.203E-03
RMM:  11    -0.413166710558E+03   -0.15664E-05   -0.70229E-07  2011   0.106E-03    0.785E-04
RMM:  12    -0.413166711745E+03   -0.11868E-05   -0.61020E-07  2159   0.103E-03    0.530E-04
RMM:  13    -0.413166711422E+03    0.32222E-06   -0.23345E-07  1367   0.748E-04
   12 T=    61. E= -.41286681E+03 F= -.41316671E+03 E0= -.41314438E+03  EK= 0.29990E+00 SP= 0.00E+00 SK= 0.00E+00
       N       E                     dE             d eps       ncg     rms          rms(c)
RMM:   1    -0.413181240677E+03   -0.14529E-01   -0.53602E+00  4290   0.483E-01    0.951E-01
RMM:   2    -0.413174583753E+03    0.66569E-02   -0.73544E-02  4255   0.654E-02    0.668E-01
RMM:   3    -0.413174833659E+03   -0.24991E-03   -0.63773E-02  5166   0.945E-02    0.411E-01
RMM:   4    -0.413178933096E+03   -0.40994E-02   -0.23120E-02  5060   0.133E-01    0.477E-01
RMM:   5    -0.413167218106E+03    0.11715E-01   -0.71195E-03  4577   0.777E-02    0.362E-02
RMM:   6    -0.413167262741E+03   -0.44634E-04   -0.89944E-04  5474   0.275E-02    0.243E-02
RMM:   7    -0.413167274967E+03   -0.12226E-04   -0.15135E-04  5299   0.121E-02    0.175E-02
RMM:   8    -0.413167278537E+03   -0.35700E-05   -0.25322E-05  4328   0.616E-03    0.474E-03
RMM:   9    -0.413167276942E+03    0.15948E-05   -0.42224E-06  2729   0.253E-03    0.299E-03
RMM:  10    -0.413167275243E+03    0.16987E-05   -0.96390E-07  2509   0.144E-03    0.192E-03
RMM:  11    -0.413167273167E+03    0.20765E-05   -0.69344E-07  2016   0.106E-03    0.787E-04
RMM:  12    -0.413167269231E+03    0.39353E-05   -0.69647E-07  2225   0.107E-03    0.578E-04
RMM:  13    -0.413167266511E+03    0.27203E-05   -0.23063E-07  1347   0.758E-04    0.389E-04
RMM:  14    -0.413167263284E+03    0.32274E-05   -0.18772E-07  1352   0.728E-04    0.163E-04
RMM:  15    -0.413167259910E+03    0.33735E-05   -0.14358E-07  1350   0.685E-04    0.216E-04
RMM:  16    -0.413167254855E+03    0.50550E-05   -0.18129E-07  1449   0.707E-04    0.133E-04
RMM:  17    -0.413167253433E+03    0.14224E-05   -0.64970E-08   922   0.540E-04    0.788E-05
RMM:  18    -0.413167252098E+03    0.13351E-05   -0.43446E-08   829   0.522E-04    0.327E-05
RMM:  19    -0.413167251671E+03    0.42646E-06   -0.23008E-08   689   0.500E-04
   13 T=    61. E= -.41286701E+03 F= -.41316725E+03 E0= -.41314495E+03  EK= 0.30024E+00 SP= 0.00E+00 SK= 0.00E+00
       N       E                     dE             d eps       ncg     rms          rms(c)
RMM:   1    -0.413181278850E+03   -0.14027E-01   -0.53618E+00  4294   0.492E-01    0.929E-01
RMM:   2    -0.413175494760E+03    0.57841E-02   -0.72495E-02  4245   0.666E-02    0.663E-01
RMM:   3    -0.413175600925E+03   -0.10617E-03   -0.65910E-02  5145   0.943E-02    0.425E-01
RMM:   4    -0.413179863258E+03   -0.42623E-02   -0.22790E-02  5060   0.132E-01    0.488E-01
RMM:   5    -0.413167948888E+03    0.11914E-01   -0.79714E-03  4575   0.788E-02    0.360E-02
RMM:   6    -0.413168001251E+03   -0.52364E-04   -0.93598E-04  5489   0.276E-02    0.238E-02
RMM:   7    -0.413168011481E+03   -0.10230E-04   -0.15308E-04  5277   0.122E-02    0.169E-02
RMM:   8    -0.413168014704E+03   -0.32224E-05   -0.25533E-05  4282   0.645E-03    0.445E-03
RMM:   9    -0.413168016291E+03   -0.15871E-05   -0.43262E-06  2748   0.261E-03    0.318E-03
RMM:  10    -0.413168017878E+03   -0.15876E-05   -0.93925E-07  2500   0.146E-03    0.202E-03
RMM:  11    -0.413168018776E+03   -0.89730E-06   -0.69367E-07  1976   0.106E-03
   14 T=    61. E= -.41286735E+03 F= -.41316802E+03 E0= -.41314575E+03  EK= 0.30067E+00 SP= 0.00E+00 SK= 0.00E+00
       N       E                     dE             d eps       ncg     rms          rms(c)
RMM:   1    -0.413181489006E+03   -0.13471E-01   -0.54463E+00  4295   0.497E-01    0.935E-01
RMM:   2    -0.413175918488E+03    0.55705E-02   -0.73278E-02  4257   0.682E-02    0.670E-01
RMM:   3    -0.413175254407E+03    0.66408E-03   -0.67756E-02  5123   0.940E-02    0.427E-01
RMM:   4    -0.413180415559E+03   -0.51612E-02   -0.22623E-02  5056   0.131E-01    0.501E-01
RMM:   5    -0.413167942409E+03    0.12473E-01   -0.85474E-03  4606   0.803E-02    0.357E-02
RMM:   6    -0.413168011158E+03   -0.68749E-04   -0.98959E-04  5550   0.283E-02    0.236E-02
RMM:   7    -0.413168031573E+03   -0.20415E-04   -0.16226E-04  5359   0.124E-02    0.168E-02
RMM:   8    -0.413168037944E+03   -0.63712E-05   -0.26104E-05  4373   0.613E-03    0.466E-03
RMM:   9    -0.413168039997E+03   -0.20536E-05   -0.44107E-06  2786   0.259E-03    0.335E-03
RMM:  10    -0.413168042339E+03   -0.23413E-05   -0.95854E-07  2497   0.150E-03    0.217E-03
RMM:  11    -0.413168043801E+03   -0.14626E-05   -0.72356E-07  2141   0.110E-03    0.857E-04
RMM:  12    -0.413168044592E+03   -0.79050E-06   -0.63605E-07  2136   0.105E-03
   15 T=    61. E= -.41286700E+03 F= -.41316804E+03 E0= -.41314581E+03  EK= 0.30104E+00 SP= 0.00E+00 SK= 0.00E+00
       N       E                     dE             d eps       ncg     rms          rms(c)
RMM:   1    -0.413183124152E+03   -0.15080E-01   -0.53884E+00  4294   0.496E-01    0.953E-01
RMM:   2    -0.413176680346E+03    0.64438E-02   -0.73812E-02  4258   0.716E-02    0.670E-01
RMM:   3    -0.413176453522E+03    0.22682E-03   -0.64181E-02  5108   0.973E-02    0.407E-01
RMM:   4    -0.413181173542E+03   -0.47200E-02   -0.23059E-02  5049   0.133E-01    0.485E-01
RMM:   5    -0.413169080979E+03    0.12093E-01   -0.73511E-03  4583   0.791E-02    0.360E-02
RMM:   6    -0.413169130224E+03   -0.49245E-04   -0.95229E-04  5545   0.280E-02    0.245E-02
RMM:   7    -0.413169115789E+03    0.14435E-04   -0.15783E-04  5304   0.128E-02    0.178E-02
RMM:   8    -0.413169113848E+03    0.19407E-05   -0.26229E-05  4336   0.643E-03    0.486E-03
RMM:   9    -0.413169112874E+03    0.97383E-06   -0.50525E-06  2813   0.270E-03
   16 T=    61. E= -.41286729E+03 F= -.41316911E+03 E0= -.41314692E+03  EK= 0.30182E+00 SP= 0.00E+00 SK= 0.00E+00
       N       E                     dE             d eps       ncg     rms          rms(c)
RMM:   1    -0.413182806051E+03   -0.13692E-01   -0.53704E+00  4298   0.502E-01    0.934E-01
RMM:   2    -0.413177213260E+03    0.55928E-02   -0.73227E-02  4290   0.733E-02    0.664E-01
RMM:   3    -0.413182610327E+03   -0.53971E-02   -0.68406E-02  5135   0.120E-01    0.518E-01
RMM:   4    -0.413177629708E+03    0.49806E-02   -0.23626E-02  4998   0.137E-01    0.419E-01
RMM:   5    -0.413169444459E+03    0.81852E-02   -0.64570E-03  4433   0.689E-02    0.347E-02
RMM:   6    -0.413169466630E+03   -0.22171E-04   -0.56423E-04  5266   0.217E-02    0.236E-02
RMM:   7    -0.413169492774E+03   -0.26144E-04   -0.11369E-04  4961   0.111E-02    0.153E-02
RMM:   8    -0.413169492369E+03    0.40434E-06   -0.20988E-05  3844   0.618E-03    0.338E-03
RMM:   9    -0.413169491351E+03    0.10184E-05   -0.25908E-06  2563   0.209E-03    0.281E-03
RMM:  10    -0.413169489243E+03    0.21080E-05   -0.10737E-06  2369   0.136E-03    0.140E-03
RMM:  11    -0.413169486994E+03    0.22486E-05   -0.57995E-07  1622   0.958E-04    0.586E-04
RMM:  12    -0.413169482063E+03    0.49315E-05   -0.66143E-07  2060   0.105E-03    0.481E-04
RMM:  13    -0.413169476867E+03    0.51959E-05   -0.29147E-07  1222   0.751E-04    0.305E-04
RMM:  14    -0.413169470800E+03    0.60669E-05   -0.26789E-07  1352   0.759E-04    0.242E-04
RMM:  15    -0.413169469091E+03    0.17089E-05   -0.89243E-08   851   0.585E-04    0.199E-04
RMM:  16    -0.413169463074E+03    0.60176E-05   -0.15080E-07  1265   0.682E-04    0.111E-04
RMM:  17    -0.413169461839E+03    0.12346E-05   -0.53460E-08   751   0.545E-04    0.675E-05
RMM:  18    -0.413169459496E+03    0.23428E-05   -0.54338E-08   897   0.566E-04    0.258E-05
RMM:  19    -0.413169459075E+03    0.42075E-06   -0.24733E-08   640   0.507E-04
   17 T=    62. E= -.41286706E+03 F= -.41316946E+03 E0= -.41314730E+03  EK= 0.30240E+00 SP= 0.00E+00 SK= 0.00E+00
       N       E                     dE             d eps       ncg     rms          rms(c)
RMM:   1    -0.413183263194E+03   -0.13804E-01   -0.54779E+00  4297   0.510E-01    0.933E-01
RMM:   2    -0.413178142815E+03    0.51204E-02   -0.73585E-02  4265   0.700E-02    0.671E-01
RMM:   3    -0.413178016089E+03    0.12673E-03   -0.68614E-02  5104   0.101E-01    0.447E-01
RMM:   4    -0.413181545868E+03   -0.35298E-02   -0.22595E-02  5037   0.132E-01    0.490E-01
RMM:   5    -0.413169941818E+03    0.11604E-01   -0.84267E-03  4573   0.793E-02    0.354E-02
RMM:   6    -0.413170004331E+03   -0.62513E-04   -0.92420E-04  5514   0.271E-02    0.235E-02
RMM:   7    -0.413170017505E+03   -0.13175E-04   -0.15214E-04  5260   0.121E-02    0.165E-02
RMM:   8    -0.413170015291E+03    0.22140E-05   -0.24626E-05  4231   0.654E-03    0.431E-03
RMM:   9    -0.413170018006E+03   -0.27143E-05   -0.42048E-06  2752   0.258E-03    0.320E-03
RMM:  10    -0.413170021234E+03   -0.32281E-05   -0.92119E-07  2484   0.146E-03    0.201E-03
RMM:  11    -0.413170023363E+03   -0.21298E-05   -0.65620E-07  1953   0.105E-03    0.797E-04
RMM:  12    -0.413170025091E+03   -0.17275E-05   -0.58210E-07  2131   0.103E-03    0.518E-04
RMM:  13    -0.413170024735E+03    0.35638E-06   -0.20277E-07  1237   0.731E-04
   18 T=    62. E= -.41286693E+03 F= -.41317002E+03 E0= -.41314791E+03  EK= 0.30309E+00 SP= 0.00E+00 SK= 0.00E+00
       N       E                     dE             d eps       ncg     rms          rms(c)
RMM:   1    -0.413185201171E+03   -0.15176E-01   -0.54282E+00  4295   0.507E-01    0.953E-01
RMM:   2    -0.413179003760E+03    0.61974E-02   -0.73978E-02  4287   0.689E-02    0.672E-01
RMM:   3    -0.413179096172E+03   -0.92412E-04   -0.65084E-02  5131   0.974E-02    0.420E-01
RMM:   4    -0.413183084700E+03   -0.39885E-02   -0.23193E-02  5048   0.133E-01    0.481E-01
RMM:   5    -0.413171197272E+03    0.11887E-01   -0.73857E-03  4581   0.783E-02    0.361E-02
RMM:   6    -0.413171260370E+03   -0.63098E-04   -0.91805E-04  5516   0.275E-02    0.245E-02
RMM:   7    -0.413171285784E+03   -0.25415E-04   -0.15481E-04  5229   0.130E-02    0.177E-02
RMM:   8    -0.413171287768E+03   -0.19836E-05   -0.27166E-05  4281   0.726E-03    0.460E-03
RMM:   9    -0.413171286949E+03    0.81899E-06   -0.55360E-06  2836   0.281E-03
   19 T=    62. E= -.41286731E+03 F= -.41317129E+03 E0= -.41314921E+03  EK= 0.30398E+00 SP= 0.00E+00 SK= 0.00E+00
       N       E                     dE             d eps       ncg     rms          rms(c)
RMM:   1    -0.413185296743E+03   -0.14009E-01   -0.54015E+00  4292   0.516E-01    0.942E-01
RMM:   2    -0.413179067021E+03    0.62297E-02   -0.73962E-02  4309   0.703E-02    0.666E-01
RMM:   3    -0.413184037533E+03   -0.49705E-02   -0.67431E-02  5167   0.114E-01    0.504E-01
RMM:   4    -0.413180133390E+03    0.39041E-02   -0.23855E-02  5011   0.137E-01    0.423E-01
RMM:   5    -0.413171612341E+03    0.85210E-02   -0.62570E-03  4461   0.693E-02    0.350E-02
RMM:   6    -0.413171627137E+03   -0.14795E-04   -0.59951E-04  5283   0.223E-02    0.237E-02
RMM:   7    -0.413171651977E+03   -0.24840E-04   -0.11603E-04  4988   0.111E-02    0.159E-02
RMM:   8    -0.413171655426E+03   -0.34490E-05   -0.22484E-05  3891   0.607E-03    0.349E-03
RMM:   9    -0.413171653777E+03    0.16493E-05   -0.31164E-06  2588   0.213E-03    0.280E-03
RMM:  10    -0.413171650678E+03    0.30989E-05   -0.10574E-06  2381   0.136E-03    0.149E-03
RMM:  11    -0.413171647704E+03    0.29742E-05   -0.61274E-07  1634   0.967E-04    0.633E-04
RMM:  12    -0.413171641266E+03    0.64383E-05   -0.72374E-07  2116   0.106E-03    0.492E-04
RMM:  13    -0.413171635900E+03    0.53651E-05   -0.28142E-07  1176   0.728E-04    0.370E-04
RMM:  14    -0.413171627711E+03    0.81894E-05   -0.28753E-07  1251   0.758E-04    0.239E-04
RMM:  15    -0.413171625759E+03    0.19518E-05   -0.93517E-08   878   0.608E-04    0.203E-04
RMM:  16    -0.413171618166E+03    0.75935E-05   -0.13881E-07  1241   0.689E-04    0.139E-04
RMM:  17    -0.413171617184E+03    0.98141E-06   -0.52213E-08   753   0.550E-04
   20 T=    62. E= -.41286710E+03 F= -.41317162E+03 E0= -.41314958E+03  EK= 0.30452E+00 SP= 0.00E+00 SK= 0.00E+00
       N       E                     dE             d eps       ncg     rms          rms(c)
RMM:   1    -0.413186195378E+03   -0.14577E-01   -0.54973E+00  4294   0.526E-01    0.933E-01
RMM:   2    -0.413180565830E+03    0.56295E-02   -0.73723E-02  4281   0.701E-02    0.671E-01
RMM:   3    -0.413180394125E+03    0.17170E-03   -0.68231E-02  5130   0.949E-02    0.433E-01
RMM:   4    -0.413185314381E+03   -0.49203E-02   -0.22929E-02  5050   0.132E-01    0.503E-01
RMM:   5    -0.413172739341E+03    0.12575E-01   -0.86225E-03  4597   0.816E-02    0.360E-02
RMM:   6    -0.413172807330E+03   -0.67989E-04   -0.10060E-03  5568   0.282E-02    0.236E-02
RMM:   7    -0.413172813536E+03   -0.62063E-05   -0.16193E-04  5293   0.130E-02    0.169E-02
RMM:   8    -0.413172820029E+03   -0.64932E-05   -0.27326E-05  4334   0.712E-03    0.459E-03
RMM:   9    -0.413172822857E+03   -0.28276E-05   -0.51505E-06  2824   0.276E-03    0.337E-03
RMM:  10    -0.413172825583E+03   -0.27267E-05   -0.94767E-07  2496   0.153E-03    0.219E-03
RMM:  11    -0.413172827590E+03   -0.20065E-05   -0.76447E-07  2158   0.112E-03    0.842E-04
RMM:  12    -0.413172828913E+03   -0.13233E-05   -0.62751E-07  2091   0.104E-03    0.575E-04
RMM:  13    -0.413172828094E+03    0.81955E-06   -0.19442E-07  1261   0.723E-04
   21 T=    62. E= -.41286740E+03 F= -.41317283E+03 E0= -.41315084E+03  EK= 0.30543E+00 SP= 0.00E+00 SK= 0.00E+00
       N       E                     dE             d eps       ncg     rms          rms(c)
RMM:   1    -0.413187846130E+03   -0.15017E-01   -0.54791E+00  4295   0.523E-01    0.951E-01
RMM:   2    -0.413181557095E+03    0.62890E-02   -0.74665E-02  4285   0.723E-02    0.675E-01
RMM:   3    -0.413180881082E+03    0.67601E-03   -0.65542E-02  5113   0.942E-02    0.407E-01
RMM:   4    -0.413187037092E+03   -0.61560E-02   -0.23486E-02  5050   0.133E-01    0.506E-01
RMM:   5    -0.413173796559E+03    0.13241E-01   -0.81174E-03  4622   0.828E-02    0.365E-02
RMM:   6    -0.413173872681E+03   -0.76123E-04   -0.10470E-03  5601   0.291E-02    0.243E-02
RMM:   7    -0.413173902485E+03   -0.29804E-04   -0.16950E-04  5336   0.130E-02    0.180E-02
RMM:   8    -0.413173904759E+03   -0.22739E-05   -0.28882E-05  4433   0.687E-03    0.514E-03
RMM:   9    -0.413173904189E+03    0.57002E-06   -0.57472E-06  2853   0.289E-03
   22 T=    62. E= -.41286747E+03 F= -.41317390E+03 E0= -.41315196E+03  EK= 0.30644E+00 SP= 0.00E+00 SK= 0.00E+00
       N       E                     dE             d eps       ncg     rms          rms(c)
RMM:   1    -0.413188593141E+03   -0.14688E-01   -0.54499E+00  4294   0.524E-01    0.952E-01
RMM:   2    -0.413182184388E+03    0.64088E-02   -0.74747E-02  4314   0.735E-02    0.671E-01
RMM:   3    -0.413186875806E+03   -0.46914E-02   -0.67212E-02  5131   0.118E-01    0.497E-01
RMM:   4    -0.413183448128E+03    0.34277E-02   -0.23944E-02  4998   0.138E-01    0.426E-01
RMM:   5    -0.413174650556E+03    0.87976E-02   -0.61153E-03  4457   0.700E-02    0.352E-02
RMM:   6    -0.413174664654E+03   -0.14098E-04   -0.61664E-04  5326   0.227E-02    0.240E-02
RMM:   7    -0.413174674904E+03   -0.10250E-04   -0.12195E-04  4999   0.115E-02    0.163E-02
RMM:   8    -0.413174675786E+03   -0.88263E-06   -0.22592E-05  3957   0.617E-03    0.363E-03
RMM:   9    -0.413174673566E+03    0.22205E-05   -0.32123E-06  2605   0.225E-03    0.273E-03
RMM:  10    -0.413174669668E+03    0.38974E-05   -0.11474E-06  2430   0.140E-03    0.151E-03
RMM:  11    -0.413174666060E+03    0.36084E-05   -0.67815E-07  1714   0.100E-03    0.653E-04
RMM:  12    -0.413174658506E+03    0.75539E-05   -0.81399E-07  2195   0.110E-03    0.519E-04
RMM:  13    -0.413174652376E+03    0.61298E-05   -0.32336E-07  1180   0.735E-04    0.380E-04
RMM:  14    -0.413174643447E+03    0.89293E-05   -0.30117E-07  1228   0.750E-04    0.251E-04
RMM:  15    -0.413174641082E+03    0.23654E-05   -0.10232E-07   889   0.611E-04    0.209E-04
RMM:  16    -0.413174632442E+03    0.86397E-05   -0.14416E-07  1231   0.688E-04    0.151E-04
RMM:  17    -0.413174631681E+03    0.76048E-06   -0.52045E-08   752   0.551E-04
   23 T=    63. E= -.41286716E+03 F= -.41317463E+03 E0= -.41315274E+03  EK= 0.30747E+00 SP= 0.00E+00 SK= 0.00E+00
       N       E                     dE             d eps       ncg     rms          rms(c)
RMM:   1    -0.413189623247E+03   -0.14991E-01   -0.55219E+00  4289   0.535E-01    0.936E-01
RMM:   2    -0.413184196077E+03    0.54272E-02   -0.74554E-02  4281   0.771E-02    0.672E-01
RMM:   3    -0.413183120682E+03    0.10754E-02   -0.67453E-02  5054   0.982E-02    0.413E-01
RMM:   4    -0.413190048251E+03   -0.69276E-02   -0.23103E-02  5038   0.133E-01    0.520E-01
RMM:   5    -0.413176121760E+03    0.13926E-01   -0.89907E-03  4632   0.861E-02    0.364E-02
RMM:   6    -0.413176200592E+03   -0.78832E-04   -0.10936E-03  5654   0.298E-02    0.239E-02
RMM:   7    -0.413176230164E+03   -0.29571E-04   -0.17787E-04  5346   0.136E-02    0.175E-02
RMM:   8    -0.413176241489E+03   -0.11325E-04   -0.32673E-05  4423   0.778E-03    0.497E-03
RMM:   9    -0.413176243586E+03   -0.20968E-05   -0.70361E-06  2917   0.314E-03    0.339E-03
RMM:  10    -0.413176245416E+03   -0.18304E-05   -0.11428E-06  2521   0.163E-03    0.227E-03
RMM:  11    -0.413176246387E+03   -0.97055E-06   -0.79531E-07  2227   0.116E-03
   24 T=    63. E= -.41286741E+03 F= -.41317625E+03 E0= -.41315440E+03  EK= 0.30884E+00 SP= 0.00E+00 SK= 0.00E+00
       N       E                     dE             d eps       ncg     rms          rms(c)
RMM:   1    -0.413191145653E+03   -0.14900E-01   -0.55624E+00  4290   0.540E-01    0.950E-01
RMM:   2    -0.413185397910E+03    0.57477E-02   -0.75569E-02  4288   0.785E-02    0.679E-01
RMM:   3    -0.413182877962E+03    0.25199E-02   -0.66222E-02  5045   0.930E-02    0.384E-01
RMM:   4    -0.413192670893E+03   -0.97929E-02   -0.23332E-02  5062   0.133E-01    0.541E-01
RMM:   5    -0.413177194530E+03    0.15476E-01   -0.92409E-03  4667   0.894E-02    0.365E-02
RMM:   6    -0.413177276698E+03   -0.82168E-04   -0.12511E-03  5733   0.322E-02    0.242E-02
RMM:   7    -0.413177294243E+03   -0.17545E-04   -0.19489E-04  5410   0.146E-02    0.185E-02
RMM:   8    -0.413177286200E+03    0.80427E-05   -0.36590E-05  4570   0.788E-03    0.615E-03
RMM:   9    -0.413177285642E+03    0.55807E-06   -0.87783E-06  3081   0.367E-03
   25 T=    63. E= -.41286724E+03 F= -.41317729E+03 E0= -.41315549E+03  EK= 0.31005E+00 SP= 0.00E+00 SK= 0.00E+00
       N       E                     dE             d eps       ncg     rms          rms(c)
RMM:   1    -0.413192886456E+03   -0.15600E-01   -0.55207E+00  4298   0.535E-01    0.962E-01
RMM:   2    -0.413186439287E+03    0.64472E-02   -0.75992E-02  4330   0.770E-02    0.677E-01
RMM:   3    -0.413192623086E+03   -0.61838E-02   -0.68443E-02  5130   0.127E-01    0.524E-01
RMM:   4    -0.413186866155E+03    0.57569E-02   -0.24456E-02  4976   0.140E-01    0.412E-01
RMM:   5    -0.413178690133E+03    0.81760E-02   -0.57950E-03  4416   0.687E-02    0.354E-02
RMM:   6    -0.413178705885E+03   -0.15751E-04   -0.56556E-04  5291   0.219E-02    0.242E-02
RMM:   7    -0.413178719197E+03   -0.13313E-04   -0.12109E-04  4914   0.125E-02    0.164E-02
RMM:   8    -0.413178721028E+03   -0.18308E-05   -0.21950E-05  3917   0.670E-03    0.349E-03
RMM:   9    -0.413178717740E+03    0.32877E-05   -0.30962E-06  2591   0.217E-03    0.269E-03
RMM:  10    -0.413178713072E+03    0.46687E-05   -0.11113E-06  2399   0.141E-03    0.140E-03
RMM:  11    -0.413178709155E+03    0.39170E-05   -0.62916E-07  1641   0.978E-04    0.618E-04
RMM:  12    -0.413178700455E+03    0.86997E-05   -0.86839E-07  2223   0.112E-03    0.546E-04
RMM:  13    -0.413178694934E+03    0.55203E-05   -0.30076E-07  1167   0.712E-04    0.437E-04
RMM:  14    -0.413178683818E+03    0.11116E-04   -0.35302E-07  1281   0.778E-04    0.269E-04
RMM:  15    -0.413178681362E+03    0.24565E-05   -0.10171E-07   880   0.615E-04    0.217E-04
RMM:  16    -0.413178672627E+03    0.87349E-05   -0.12921E-07  1209   0.673E-04    0.151E-04
RMM:  17    -0.413178671662E+03    0.96498E-06   -0.50282E-08   773   0.555E-04
   26 T=    63. E= -.41286722E+03 F= -.41317867E+03 E0= -.41315692E+03  EK= 0.31145E+00 SP= 0.00E+00 SK= 0.00E+00
       N       E                     dE             d eps       ncg     rms          rms(c)
RMM:   1    -0.413194187635E+03   -0.15515E-01   -0.55625E+00  4289   0.550E-01    0.940E-01
RMM:   2    -0.413188475685E+03    0.57120E-02   -0.76365E-02  4291   0.761E-02    0.674E-01
RMM:   3    -0.413186582971E+03    0.18927E-02   -0.66297E-02  5069   0.961E-02    0.393E-01
RMM:   4    -0.413195899655E+03   -0.93167E-02   -0.23968E-02  5064   0.135E-01    0.542E-01
RMM:   5    -0.413180380306E+03    0.15519E-01   -0.92761E-03  4656   0.897E-02    0.370E-02
RMM:   6    -0.413180482241E+03   -0.10193E-03   -0.12344E-03  5709   0.321E-02    0.243E-02
RMM:   7    -0.413180510646E+03   -0.28405E-04   -0.18844E-04  5408   0.140E-02    0.185E-02
RMM:   8    -0.413180517953E+03   -0.73074E-05   -0.33418E-05  4555   0.732E-03    0.582E-03
RMM:   9    -0.413180518430E+03   -0.47671E-06   -0.75398E-06  3010   0.323E-03
   27 T=    64. E= -.41286757E+03 F= -.41318052E+03 E0= -.41315882E+03  EK= 0.31295E+00 SP= 0.00E+00 SK= 0.00E+00
       N       E                     dE             d eps       ncg     rms          rms(c)
RMM:   1    -0.413195782165E+03   -0.15264E-01   -0.56560E+00  4294   0.568E-01    0.951E-01
RMM:   2    -0.413189687454E+03    0.60947E-02   -0.76501E-02  4324   0.788E-02    0.682E-01
RMM:   3    -0.413193757313E+03   -0.40699E-02   -0.71194E-02  5145   0.117E-01    0.510E-01
RMM:   4    -0.413191213188E+03    0.25441E-02   -0.23979E-02  5007   0.138E-01    0.454E-01
RMM:   5    -0.413181668360E+03    0.95448E-02   -0.74327E-03  4466   0.739E-02    0.355E-02
RMM:   6    -0.413181692880E+03   -0.24519E-04   -0.72305E-04  5411   0.239E-02    0.233E-02
RMM:   7    -0.413181696541E+03   -0.36614E-05   -0.13410E-04  5029   0.121E-02    0.162E-02
RMM:   8    -0.413181705325E+03   -0.87841E-05   -0.23436E-05  4080   0.656E-03    0.373E-03
RMM:   9    -0.413181705784E+03   -0.45889E-06   -0.35273E-06  2648   0.232E-03
   28 T=    64. E= -.41286747E+03 F= -.41318171E+03 E0= -.41316006E+03  EK= 0.31423E+00 SP= 0.00E+00 SK= 0.00E+00
       N       E                     dE             d eps       ncg     rms          rms(c)
RMM:   1    -0.413198332065E+03   -0.16627E-01   -0.56060E+00  4295   0.555E-01    0.970E-01
RMM:   2    -0.413191565849E+03    0.67662E-02   -0.77743E-02  4302   0.786E-02    0.682E-01
RMM:   3    -0.413192472865E+03   -0.90702E-03   -0.65508E-02  5118   0.104E-01    0.429E-01
RMM:   4    -0.413195965406E+03   -0.34925E-02   -0.24410E-02  5029   0.137E-01    0.485E-01
RMM:   5    -0.413183761136E+03    0.12204E-01   -0.70839E-03  4575   0.790E-02    0.368E-02
RMM:   6    -0.413183810254E+03   -0.49119E-04   -0.95535E-04  5596   0.278E-02    0.246E-02
RMM:   7    -0.413183833576E+03   -0.23322E-04   -0.16197E-04  5265   0.125E-02    0.184E-02
RMM:   8    -0.413183841949E+03   -0.83723E-05   -0.27981E-05  4375   0.713E-03    0.506E-03
RMM:   9    -0.413183838716E+03    0.32324E-05   -0.54335E-06  2820   0.288E-03    0.300E-03
RMM:  10    -0.413183834519E+03    0.41971E-05   -0.10257E-06  2511   0.153E-03    0.199E-03
RMM:  11    -0.413183829401E+03    0.51186E-05   -0.80661E-07  2131   0.113E-03    0.841E-04
RMM:  12    -0.413183820539E+03    0.88614E-05   -0.88485E-07  2214   0.113E-03    0.626E-04
RMM:  13    -0.413183815406E+03    0.51329E-05   -0.27968E-07  1340   0.769E-04    0.437E-04
RMM:  14    -0.413183809108E+03    0.62984E-05   -0.18667E-07  1133   0.694E-04    0.165E-04
RMM:  15    -0.413183799314E+03    0.97943E-05   -0.18972E-07  1313   0.715E-04    0.273E-04
RMM:  16    -0.413183791127E+03    0.81868E-05   -0.12806E-07  1293   0.671E-04    0.187E-04
RMM:  17    -0.413183788443E+03    0.26841E-05   -0.60151E-08   993   0.571E-04    0.108E-04
RMM:  18    -0.413183786107E+03    0.23358E-05   -0.39026E-08   864   0.543E-04    0.460E-05
RMM:  19    -0.413183785767E+03    0.33960E-06   -0.19564E-08   670   0.509E-04
   29 T=    64. E= -.41286780E+03 F= -.41318379E+03 E0= -.41316219E+03  EK= 0.31599E+00 SP= 0.00E+00 SK= 0.00E+00
       N       E                     dE             d eps       ncg     rms          rms(c)
RMM:   1    -0.413199507071E+03   -0.15721E-01   -0.56170E+00  4295   0.565E-01    0.950E-01
RMM:   2    -0.413193726333E+03    0.57807E-02   -0.76848E-02  4274   0.790E-02    0.678E-01
RMM:   3    -0.413191230573E+03    0.24958E-02   -0.65758E-02  5050   0.938E-02    0.378E-01
RMM:   4    -0.413201866253E+03   -0.10636E-01   -0.24641E-02  5059   0.137E-01    0.553E-01
RMM:   5    -0.413185515024E+03    0.16351E-01   -0.94552E-03  4673   0.917E-02    0.372E-02
RMM:   6    -0.413185602237E+03   -0.87213E-04   -0.13260E-03  5739   0.333E-02    0.247E-02
RMM:   7    -0.413185619172E+03   -0.16935E-04   -0.19725E-04  5458   0.142E-02    0.191E-02
RMM:   8    -0.413185624308E+03   -0.51365E-05   -0.36675E-05  4629   0.760E-03    0.672E-03
RMM:   9    -0.413185624983E+03   -0.67429E-06   -0.83558E-06  3094   0.342E-03
   30 T=    65. E= -.41286777E+03 F= -.41318562E+03 E0= -.41316408E+03  EK= 0.31786E+00 SP= 0.00E+00 SK= 0.00E+00
       N       E                     dE             d eps       ncg     rms          rms(c)
RMM:   1    -0.413200967673E+03   -0.15343E-01   -0.57494E+00  4303   0.574E-01    0.953E-01
RMM:   2    -0.413195913695E+03    0.50540E-02   -0.78372E-02  4304   0.884E-02    0.687E-01
RMM:   3    -0.413199560915E+03   -0.36472E-02   -0.72581E-02  5093   0.123E-01    0.516E-01
RMM:   4    -0.413197171395E+03    0.23895E-02   -0.24646E-02  4991   0.140E-01    0.464E-01
RMM:   5    -0.413187129823E+03    0.10042E-01   -0.77390E-03  4472   0.754E-02    0.358E-02
RMM:   6    -0.413187180314E+03   -0.50491E-04   -0.75287E-04  5428   0.245E-02    0.234E-02
RMM:   7    -0.413187212568E+03   -0.32253E-04   -0.13801E-04  5049   0.121E-02    0.163E-02
RMM:   8    -0.413187226979E+03   -0.14411E-04   -0.25677E-05  4185   0.675E-03    0.386E-03
RMM:   9    -0.413187227589E+03   -0.60986E-06   -0.37283E-06  2693   0.241E-03
   31 T=    65. E= -.41286746E+03 F= -.41318723E+03 E0= -.41316573E+03  EK= 0.31976E+00 SP= 0.00E+00 SK= 0.00E+00
       N       E                     dE             d eps       ncg     rms          rms(c)
RMM:   1    -0.413205185083E+03   -0.17958E-01   -0.57200E+00  4301   0.586E-01    0.976E-01
RMM:   2    -0.413198138395E+03    0.70467E-02   -0.79471E-02  4282   0.915E-02    0.689E-01
RMM:   3    -0.413198057632E+03    0.80763E-04   -0.66407E-02  5055   0.112E-01    0.425E-01
RMM:   4    -0.413202905298E+03   -0.48477E-02   -0.24791E-02  5021   0.138E-01    0.502E-01
RMM:   5    -0.413189703647E+03    0.13202E-01   -0.76568E-03  4579   0.830E-02    0.371E-02
RMM:   6    -0.413189787315E+03   -0.83668E-04   -0.10702E-03  5632   0.294E-02    0.251E-02
RMM:   7    -0.413189809879E+03   -0.22563E-04   -0.17404E-04  5228   0.141E-02    0.188E-02
RMM:   8    -0.413189810936E+03   -0.10578E-05   -0.30070E-05  4441   0.719E-03    0.554E-03
RMM:   9    -0.413189807428E+03    0.35082E-05   -0.66435E-06  2916   0.301E-03    0.319E-03
RMM:  10    -0.413189803104E+03    0.43242E-05   -0.10307E-06  2516   0.163E-03    0.212E-03
RMM:  11    -0.413189797924E+03    0.51798E-05   -0.76847E-07  2195   0.117E-03    0.923E-04
RMM:  12    -0.413189789165E+03    0.87588E-05   -0.78970E-07  2239   0.114E-03    0.614E-04
RMM:  13    -0.413189784275E+03    0.48900E-05   -0.24544E-07  1394   0.776E-04    0.437E-04
RMM:  14    -0.413189777851E+03    0.64246E-05   -0.16933E-07  1160   0.695E-04    0.168E-04
RMM:  15    -0.413189767738E+03    0.10113E-04   -0.17668E-07  1350   0.717E-04    0.280E-04
RMM:  16    -0.413189758346E+03    0.93920E-05   -0.13608E-07  1461   0.690E-04    0.208E-04
RMM:  17    -0.413189756288E+03    0.20578E-05   -0.54750E-08   918   0.545E-04    0.131E-04
RMM:  18    -0.413189753139E+03    0.31492E-05   -0.42333E-08   941   0.552E-04    0.491E-05
RMM:  19    -0.413189752723E+03    0.41584E-06   -0.18700E-08   684   0.507E-04
   32 T=    66. E= -.41286776E+03 F= -.41318975E+03 E0= -.41316830E+03  EK= 0.32199E+00 SP= 0.00E+00 SK= 0.00E+00
       N       E                     dE             d eps       ncg     rms          rms(c)
RMM:   1    -0.413206850863E+03   -0.17098E-01   -0.57206E+00  4301   0.603E-01    0.963E-01
RMM:   2    -0.413199976577E+03    0.68743E-02   -0.80349E-02  4268   0.942E-02    0.684E-01
RMM:   3    -0.413196171823E+03    0.38048E-02   -0.64837E-02  4976   0.995E-02    0.348E-01
RMM:   4    -0.413210384206E+03   -0.14212E-01   -0.25897E-02  5079   0.140E-01    0.586E-01
RMM:   5    -0.413191285073E+03    0.19099E-01   -0.10404E-02  4698   0.100E-01    0.384E-02
RMM:   6    -0.413191418310E+03   -0.13324E-03   -0.15672E-03  5781   0.365E-02    0.258E-02
RMM:   7    -0.413191471937E+03   -0.53627E-04   -0.21842E-04  5451   0.157E-02    0.195E-02
RMM:   8    -0.413191496682E+03   -0.24746E-04   -0.48184E-05  4683   0.918E-03    0.785E-03
RMM:   9    -0.413191496971E+03   -0.28873E-06   -0.12159E-05  3404   0.446E-03    0.426E-03
RMM:  10    -0.413191496089E+03    0.88205E-06   -0.21097E-06  2621   0.221E-03
   33 T=    66. E= -.41286751E+03 F= -.41319150E+03 E0= -.41317009E+03  EK= 0.32398E+00 SP= 0.00E+00 SK= 0.00E+00
       N       E                     dE             d eps       ncg     rms          rms(c)
RMM:   1    -0.413207831381E+03   -0.16334E-01   -0.58500E+00  4307   0.612E-01    0.959E-01
RMM:   2    -0.413202451309E+03    0.53801E-02   -0.80256E-02  4270   0.968E-02    0.692E-01
RMM:   3    -0.413201067216E+03    0.13841E-02   -0.70414E-02  5022   0.111E-01    0.426E-01
RMM:   4    -0.413209062560E+03   -0.79953E-02   -0.24952E-02  5048   0.138E-01    0.545E-01
RMM:   5    -0.413193707406E+03    0.15355E-01   -0.97436E-03  4624   0.915E-02    0.372E-02
RMM:   6    -0.413193820023E+03   -0.11262E-03   -0.12689E-03  5699   0.321E-02    0.246E-02
RMM:   7    -0.413193858887E+03   -0.38865E-04   -0.19253E-04  5334   0.147E-02    0.184E-02
RMM:   8    -0.413193870165E+03   -0.11278E-04   -0.37069E-05  4534   0.818E-03    0.586E-03
RMM:   9    -0.413193870875E+03   -0.71019E-06   -0.86769E-06  3078   0.368E-03
   34 T=    66. E= -.41286773E+03 F= -.41319387E+03 E0= -.41317252E+03  EK= 0.32614E+00 SP= 0.00E+00 SK= 0.00E+00
       N       E                     dE             d eps       ncg     rms          rms(c)
RMM:   1    -0.413211085249E+03   -0.17215E-01   -0.58350E+00  4305   0.618E-01    0.980E-01
RMM:   2    -0.413204625735E+03    0.64595E-02   -0.82596E-02  4275   0.108E-01    0.695E-01
RMM:   3    -0.413204054613E+03    0.57112E-03   -0.67077E-02  5001   0.121E-01    0.413E-01
RMM:   4    -0.413211330333E+03   -0.72757E-02   -0.25482E-02  5021   0.140E-01    0.531E-01
RMM:   5    -0.413196388292E+03    0.14942E-01   -0.85057E-03  4608   0.898E-02    0.384E-02
RMM:   6    -0.413196466093E+03   -0.77800E-04   -0.11960E-03  5655   0.313E-02    0.254E-02
RMM:   7    -0.413196486126E+03   -0.20033E-04   -0.18886E-04  5286   0.143E-02    0.189E-02
RMM:   8    -0.413196497215E+03   -0.11090E-04   -0.34244E-05  4461   0.829E-03    0.572E-03
RMM:   9    -0.413196495383E+03    0.18328E-05   -0.84695E-06  2984   0.357E-03    0.336E-03
RMM:  10    -0.413196491911E+03    0.34716E-05   -0.14858E-06  2564   0.181E-03    0.227E-03
RMM:  11    -0.413196487367E+03    0.45437E-05   -0.86213E-07  2295   0.130E-03    0.992E-04
RMM:  12    -0.413196479642E+03    0.77253E-05   -0.76827E-07  2270   0.120E-03    0.627E-04
RMM:  13    -0.413196475288E+03    0.43536E-05   -0.25081E-07  1513   0.806E-04    0.482E-04
RMM:  14    -0.413196468980E+03    0.63084E-05   -0.18196E-07  1197   0.706E-04    0.181E-04
RMM:  15    -0.413196456840E+03    0.12139E-04   -0.22868E-07  1535   0.765E-04    0.365E-04
RMM:  16    -0.413196448516E+03    0.83246E-05   -0.12837E-07  1365   0.673E-04    0.192E-04
RMM:  17    -0.413196445073E+03    0.34427E-05   -0.66652E-08  1055   0.579E-04    0.108E-04
RMM:  18    -0.413196442453E+03    0.26196E-05   -0.46927E-08  1040   0.567E-04    0.371E-05
RMM:  19    -0.413196442008E+03    0.44529E-06   -0.24181E-08   773   0.513E-04
   35 T=    67. E= -.41286812E+03 F= -.41319644E+03 E0= -.41317513E+03  EK= 0.32833E+00 SP= 0.00E+00 SK= 0.00E+00
       N       E                     dE             d eps       ncg     rms          rms(c)
RMM:   1    -0.413213587277E+03   -0.17145E-01   -0.58271E+00  4304   0.646E-01    0.980E-01
RMM:   2    -0.413206410683E+03    0.71766E-02   -0.82891E-02  4252   0.112E-01    0.692E-01
RMM:   3    -0.413200655426E+03    0.57553E-02   -0.64156E-02  4641   0.978E-02    0.274E-01
RMM:   4    -0.413211946921E+03   -0.11291E-01   -0.15509E-02  5119   0.108E-01    0.487E-01
RMM:   5    -0.413198416901E+03    0.13530E-01   -0.69326E-03  4789   0.816E-02    0.350E-02
RMM:   6    -0.413198502010E+03   -0.85109E-04   -0.10814E-03  5798   0.311E-02    0.245E-02
RMM:   7    -0.413198539187E+03   -0.37176E-04   -0.18088E-04  5424   0.145E-02    0.178E-02
RMM:   8    -0.413198532215E+03    0.69716E-05   -0.36109E-05  4697   0.717E-03    0.693E-03
RMM:   9    -0.413198532489E+03   -0.27385E-06   -0.90323E-06  3308   0.373E-03
   36 T=    67. E= -.41286820E+03 F= -.41319853E+03 E0= -.41317727E+03  EK= 0.33033E+00 SP= 0.00E+00 SK= 0.00E+00
       N       E                     dE             d eps       ncg     rms          rms(c)
RMM:   1    -0.413215789471E+03   -0.17257E-01   -0.59361E+00  4313   0.674E-01    0.964E-01
RMM:   2    -0.413209815297E+03    0.59742E-02   -0.84567E-02  4270   0.119E-01    0.695E-01
RMM:   3    -0.413206478319E+03    0.33370E-02   -0.68911E-02  4878   0.118E-01    0.365E-01
RMM:   4    -0.413221804848E+03   -0.15327E-01   -0.26065E-02  5068   0.140E-01    0.606E-01
RMM:   5    -0.413201608711E+03    0.20196E-01   -0.11388E-02  4720   0.102E-01    0.389E-02
RMM:   6    -0.413201719208E+03   -0.11050E-03   -0.16509E-03  5814   0.368E-02    0.247E-02
RMM:   7    -0.413201741656E+03   -0.22448E-04   -0.15537E-04  5430   0.129E-02    0.138E-02
RMM:   8    -0.413201745165E+03   -0.35085E-05   -0.30884E-05  4460   0.611E-03    0.528E-03
RMM:   9    -0.413201744717E+03    0.44737E-06   -0.64082E-06  2958   0.294E-03
   37 T=    68. E= -.41286885E+03 F= -.41320174E+03 E0= -.41318052E+03  EK= 0.33289E+00 SP= 0.00E+00 SK= 0.00E+00
       N       E                     dE             d eps       ncg     rms          rms(c)
RMM:   1    -0.413219225885E+03   -0.17481E-01   -0.59837E+00  4312   0.686E-01    0.982E-01
RMM:   2    -0.413212677142E+03    0.65487E-02   -0.87742E-02  4262   0.112E-01    0.703E-01
RMM:   3    -0.413208728302E+03    0.39488E-02   -0.67327E-02  4916   0.110E-01    0.347E-01
RMM:   4    -0.413225832553E+03   -0.17104E-01   -0.27658E-02  5077   0.144E-01    0.622E-01
RMM:   5    -0.413204175320E+03    0.21657E-01   -0.11634E-02  4736   0.104E-01    0.404E-02
RMM:   6    -0.413204291389E+03   -0.11607E-03   -0.17772E-03  5806   0.385E-02    0.264E-02
RMM:   7    -0.413204329106E+03   -0.37717E-04   -0.22667E-04  5575   0.148E-02    0.194E-02
RMM:   8    -0.413204336186E+03   -0.70795E-05   -0.54826E-05  4921   0.833E-03    0.862E-03
RMM:   9    -0.413204333065E+03    0.31201E-05   -0.11749E-05  3672   0.429E-03    0.436E-03
RMM:  10    -0.413204330326E+03    0.27393E-05   -0.18882E-06  2577   0.210E-03    0.299E-03
RMM:  11    -0.413204325577E+03    0.47493E-05   -0.14197E-06  2506   0.161E-03    0.134E-03
RMM:  12    -0.413204318572E+03    0.70050E-05   -0.10472E-06  2415   0.140E-03    0.106E-03
RMM:  13    -0.413204315357E+03    0.32146E-05   -0.28522E-07  1822   0.897E-04    0.614E-04
RMM:  14    -0.413204312156E+03    0.32011E-05   -0.16556E-07  1285   0.716E-04    0.277E-04
RMM:  15    -0.413204299053E+03    0.13103E-04   -0.31495E-07  2103   0.875E-04    0.610E-04
RMM:  16    -0.413204294441E+03    0.46121E-05   -0.93566E-08  1060   0.582E-04    0.451E-04
RMM:  17    -0.413204286738E+03    0.77029E-05   -0.97791E-08  1150   0.627E-04    0.243E-04
RMM:  18    -0.413204283650E+03    0.30887E-05   -0.57492E-08  1136   0.606E-04    0.630E-05
RMM:  19    -0.413204282492E+03    0.11575E-05   -0.31634E-08   935   0.545E-04    0.761E-05
RMM:  20    -0.413204281864E+03    0.62787E-06   -0.19859E-08   793   0.513E-04
   38 T=    68. E= -.41286876E+03 F= -.41320428E+03 E0= -.41318310E+03  EK= 0.33552E+00 SP= 0.00E+00 SK= 0.00E+00
       N       E                     dE             d eps       ncg     rms          rms(c)
RMM:   1    -0.413222900932E+03   -0.18618E-01   -0.59759E+00  4308   0.718E-01    0.996E-01
RMM:   2    -0.413215180309E+03    0.77206E-02   -0.87377E-02  4250   0.113E-01    0.702E-01
RMM:   3    -0.413208787608E+03    0.63927E-02   -0.64065E-02  4510   0.885E-02    0.252E-01
RMM:   4    -0.413210814766E+03   -0.20272E-02   -0.65901E-03  5118   0.646E-02    0.262E-01
RMM:   5    -0.413207022420E+03    0.37923E-02   -0.19324E-03  4785   0.445E-02    0.339E-02
RMM:   6    -0.413207018045E+03    0.43744E-05   -0.41689E-04  5525   0.205E-02    0.257E-02
RMM:   7    -0.413207047371E+03   -0.29326E-04   -0.14692E-04  5105   0.129E-02    0.189E-02
RMM:   8    -0.413207041598E+03    0.57732E-05   -0.28441E-05  4630   0.626E-03    0.661E-03
RMM:   9    -0.413207041152E+03    0.44600E-06   -0.73160E-06  2706   0.255E-03
   39 T=    69. E= -.41286859E+03 F= -.41320704E+03 E0= -.41318590E+03  EK= 0.33845E+00 SP= 0.00E+00 SK= 0.00E+00
       N       E                     dE             d eps       ncg     rms          rms(c)
RMM:   1    -0.413225540833E+03   -0.18499E-01   -0.60609E+00  4311   0.744E-01    0.974E-01
RMM:   2    -0.413218986089E+03    0.65547E-02   -0.90724E-02  4251   0.109E-01    0.703E-01
RMM:   3    -0.413212548621E+03    0.64375E-02   -0.66285E-02  4608   0.892E-02    0.285E-01
RMM:   4    -0.413217344238E+03   -0.47956E-02   -0.10351E-02  5115   0.830E-02    0.353E-01
RMM:   5    -0.413210399393E+03    0.69448E-02   -0.35149E-03  4801   0.597E-02    0.356E-02
RMM:   6    -0.413210388661E+03    0.10733E-04   -0.63759E-04  5625   0.253E-02    0.255E-02
RMM:   7    -0.413210439475E+03   -0.50814E-04   -0.15274E-04  5368   0.125E-02    0.173E-02
RMM:   8    -0.413210436381E+03    0.30946E-05   -0.34925E-05  4896   0.695E-03    0.669E-03
RMM:   9    -0.413210435812E+03    0.56859E-06   -0.67756E-06  2845   0.280E-03
   40 T=    70. E= -.41286883E+03 F= -.41321044E+03 E0= -.41318933E+03  EK= 0.34161E+00 SP= 0.00E+00 SK= 0.00E+00
       N       E                     dE             d eps       ncg     rms          rms(c)
RMM:   1    -0.413230716149E+03   -0.20280E-01   -0.61953E+00  4316   0.817E-01    0.990E-01
RMM:   2    -0.413221402892E+03    0.93133E-02   -0.89896E-02  4272   0.110E-01    0.711E-01
RMM:   3    -0.413215051692E+03    0.63512E-02   -0.68400E-02  4706   0.935E-02    0.302E-01
RMM:   4    -0.413225805073E+03   -0.10753E-01   -0.16389E-02  5102   0.109E-01    0.484E-01
RMM:   5    -0.413212610833E+03    0.13194E-01   -0.66304E-03  4789   0.816E-02    0.383E-02
RMM:   6    -0.413212605519E+03    0.53147E-05   -0.10627E-03  5676   0.323E-02    0.253E-02
RMM:   7    -0.413212635114E+03   -0.29595E-04   -0.21046E-04  5603   0.141E-02    0.187E-02
RMM:   8    -0.413212634150E+03    0.96346E-06   -0.46002E-05  4990   0.786E-03    0.776E-03
RMM:   9    -0.413212634357E+03   -0.20686E-06   -0.90322E-06  3064   0.345E-03
   41 T=    70. E= -.41286836E+03 F= -.41321263E+03 E0= -.41319156E+03  EK= 0.34428E+00 SP= 0.00E+00 SK= 0.00E+00
       N       E                     dE             d eps       ncg     rms          rms(c)
RMM:   1    -0.413233318877E+03   -0.20685E-01   -0.61577E+00  4315   0.820E-01    0.101E+00
RMM:   2    -0.413223975338E+03    0.93435E-02   -0.92774E-02  4305   0.115E-01    0.712E-01
RMM:   3    -0.413218341049E+03    0.56343E-02   -0.63980E-02  4891   0.937E-02    0.277E-01
RMM:   4    -0.413238941353E+03   -0.20600E-01   -0.27323E-02  5104   0.142E-01    0.641E-01
RMM:   5    -0.413215468136E+03    0.23473E-01   -0.11721E-02  4778   0.108E-01    0.428E-02
RMM:   6    -0.413215495219E+03   -0.27083E-04   -0.18109E-03  5756   0.404E-02    0.260E-02
RMM:   7    -0.413215540925E+03   -0.45705E-04   -0.27559E-04  5803   0.153E-02    0.196E-02
RMM:   8    -0.413215540447E+03    0.47770E-06   -0.59233E-05  5083   0.835E-03    0.986E-03
RMM:   9    -0.413215538126E+03    0.23204E-05   -0.11856E-05  3607   0.434E-03    0.423E-03
RMM:  10    -0.413215532760E+03    0.53665E-05   -0.23388E-06  2619   0.221E-03    0.273E-03
RMM:  11    -0.413215526810E+03    0.59500E-05   -0.12279E-06  2487   0.155E-03    0.134E-03
RMM:  12    -0.413215516336E+03    0.10474E-04   -0.88304E-07  2410   0.136E-03    0.744E-04
RMM:  13    -0.413215509777E+03    0.65591E-05   -0.32795E-07  1878   0.942E-04    0.544E-04
RMM:  14    -0.413215505192E+03    0.45843E-05   -0.17348E-07  1305   0.737E-04    0.216E-04
RMM:  15    -0.413215488084E+03    0.17108E-04   -0.26307E-07  1973   0.862E-04    0.489E-04
RMM:  16    -0.413215483926E+03    0.41580E-05   -0.94575E-08  1183   0.604E-04    0.363E-04
RMM:  17    -0.413215478579E+03    0.53467E-05   -0.76777E-08  1149   0.609E-04    0.179E-04
RMM:  18    -0.413215473982E+03    0.45979E-05   -0.62845E-08  1263   0.622E-04    0.801E-05
RMM:  19    -0.413215473793E+03    0.18849E-06   -0.30313E-08   838   0.532E-04
   42 T=    71. E= -.41286848E+03 F= -.41321547E+03 E0= -.41319443E+03  EK= 0.34700E+00 SP= 0.00E+00 SK= 0.00E+00
       N       E                     dE             d eps       ncg     rms          rms(c)
RMM:   1    -0.413234540693E+03   -0.19067E-01   -0.61824E+00  4315   0.864E-01    0.986E-01
RMM:   2    -0.413226643811E+03    0.78969E-02   -0.94613E-02  4379   0.114E-01    0.709E-01
RMM:   3    -0.413220019325E+03    0.66245E-02   -0.64745E-02  4804   0.911E-02    0.284E-01
RMM:   4    -0.413238341831E+03   -0.18323E-01   -0.24087E-02  5108   0.133E-01    0.605E-01
RMM:   5    -0.413217491400E+03    0.20850E-01   -0.10411E-02  4781   0.102E-01    0.410E-02
RMM:   6    -0.413217515375E+03   -0.23974E-04   -0.16307E-03  5747   0.386E-02    0.256E-02
RMM:   7    -0.413217555581E+03   -0.40207E-04   -0.25566E-04  5746   0.150E-02    0.193E-02
RMM:   8    -0.413217552020E+03    0.35612E-05   -0.54716E-05  5059   0.804E-03    0.933E-03
RMM:   9    -0.413217554165E+03   -0.21449E-05   -0.11182E-05  3484   0.415E-03    0.421E-03
RMM:  10    -0.413217553508E+03    0.65702E-06   -0.21855E-06  2605   0.214E-03
   43 T=    71. E= -.41286849E+03 F= -.41321755E+03 E0= -.41319654E+03  EK= 0.34906E+00 SP= 0.00E+00 SK= 0.00E+00
       N       E                     dE             d eps       ncg     rms          rms(c)
RMM:   1    -0.413239544697E+03   -0.21991E-01   -0.63514E+00  4316   0.969E-01    0.989E-01
RMM:   2    -0.413228016546E+03    0.11528E-01   -0.98662E-02  4418   0.125E-01    0.718E-01
RMM:   3    -0.413224321486E+03    0.36951E-02   -0.69419E-02  4978   0.110E-01    0.374E-01
RMM:   4    -0.413242914241E+03   -0.18593E-01   -0.33309E-02  5067   0.158E-01    0.661E-01
RMM:   5    -0.413218576159E+03    0.24338E-01   -0.12385E-02  4719   0.111E-01    0.431E-02
RMM:   6    -0.413218605990E+03   -0.29831E-04   -0.18534E-03  5744   0.403E-02    0.245E-02
RMM:   7    -0.413218639703E+03   -0.33713E-04   -0.19578E-04  5678   0.134E-02    0.158E-02
RMM:   8    -0.413218654229E+03   -0.14526E-04   -0.53360E-05  5048   0.756E-03    0.895E-03
RMM:   9    -0.413218649190E+03    0.50392E-05   -0.15589E-05  4174   0.457E-03    0.474E-03
RMM:  10    -0.413218647687E+03    0.15027E-05   -0.25001E-06  2617   0.242E-03    0.296E-03
RMM:  11    -0.413218645484E+03    0.22029E-05   -0.14442E-06  2505   0.174E-03    0.146E-03
RMM:  12    -0.413218640345E+03    0.51385E-05   -0.11045E-06  2482   0.147E-03    0.743E-04
RMM:  13    -0.413218635678E+03    0.46674E-05   -0.41780E-07  2008   0.979E-04    0.447E-04
RMM:  14    -0.413218632676E+03    0.30023E-05   -0.17756E-07  1306   0.724E-04    0.191E-04
RMM:  15    -0.413218622969E+03    0.97066E-05   -0.25528E-07  1704   0.808E-04    0.303E-04
RMM:  16    -0.413218617893E+03    0.50765E-05   -0.12670E-07  1343   0.659E-04    0.213E-04
RMM:  17    -0.413218613813E+03    0.40796E-05   -0.82400E-08  1182   0.613E-04    0.854E-05
RMM:  18    -0.413218609311E+03    0.45017E-05   -0.65176E-08  1295   0.611E-04    0.839E-05
RMM:  19    -0.413218609101E+03    0.21022E-06   -0.25413E-08   780   0.502E-04
   44 T=    71. E= -.41286825E+03 F= -.41321861E+03 E0= -.41319762E+03  EK= 0.35036E+00 SP= 0.00E+00 SK= 0.00E+00
       N       E                     dE             d eps       ncg     rms          rms(c)
RMM:   1    -0.413239403867E+03   -0.20795E-01   -0.62619E+00  4316   0.966E-01    0.101E+00
RMM:   2    -0.413229213966E+03    0.10190E-01   -0.98141E-02  4441   0.126E-01    0.718E-01
RMM:   3    -0.413222961947E+03    0.62520E-02   -0.62586E-02  4878   0.974E-02    0.281E-01
RMM:   4    -0.413246857331E+03   -0.23895E-01   -0.31647E-02  5106   0.153E-01    0.686E-01
RMM:   5    -0.413219869593E+03    0.26988E-01   -0.13199E-02  4777   0.115E-01    0.445E-02
RMM:   6    -0.413219905522E+03   -0.35929E-04   -0.20703E-03  5761   0.428E-02    0.257E-02
RMM:   7    -0.413219946682E+03   -0.41160E-04   -0.27349E-04  5870   0.152E-02    0.190E-02
RMM:   8    -0.413219943597E+03    0.30851E-05   -0.63676E-05  5083   0.837E-03    0.107E-02
RMM:   9    -0.413219942812E+03    0.78421E-06   -0.13831E-05  3914   0.474E-03    0.453E-03
RMM:  10    -0.413219940130E+03    0.26828E-05   -0.30013E-06  2684   0.249E-03    0.295E-03
RMM:  11    -0.413219937612E+03    0.25180E-05   -0.12767E-06  2500   0.171E-03    0.156E-03
RMM:  12    -0.413219932038E+03    0.55737E-05   -0.90574E-07  2444   0.146E-03    0.769E-04
RMM:  13    -0.413219927536E+03    0.45015E-05   -0.37723E-07  2038   0.102E-03    0.552E-04
RMM:  14    -0.413219925025E+03    0.25117E-05   -0.17939E-07  1431   0.752E-04    0.221E-04
RMM:  15    -0.413219916950E+03    0.80746E-05   -0.15783E-07  1411   0.747E-04    0.264E-04
RMM:  16    -0.413219912730E+03    0.42200E-05   -0.93666E-08  1262   0.664E-04    0.221E-04
RMM:  17    -0.413219910550E+03    0.21801E-05   -0.61133E-08  1071   0.605E-04    0.153E-04
RMM:  18    -0.413219905588E+03    0.49620E-05   -0.65604E-08  1346   0.636E-04    0.749E-05
RMM:  19    -0.413219903937E+03    0.16514E-05   -0.33311E-08   949   0.550E-04    0.411E-05
RMM:  20    -0.413219903722E+03    0.21502E-06   -0.17876E-08   746   0.515E-04
   45 T=    71. E= -.41286872E+03 F= -.41321990E+03 E0= -.41319894E+03  EK= 0.35118E+00 SP= 0.00E+00 SK= 0.00E+00
       N       E                     dE             d eps       ncg     rms          rms(c)
RMM:   1    -0.413238807327E+03   -0.18903E-01   -0.62249E+00  4315   0.105E+00    0.991E-01
RMM:   2    -0.413228367560E+03    0.10440E-01   -0.98938E-02  4464   0.134E-01    0.711E-01
RMM:   3    -0.413223434848E+03    0.49327E-02   -0.62528E-02  4927   0.107E-01    0.314E-01
RMM:   4    -0.413246765391E+03   -0.23331E-01   -0.34705E-02  5087   0.161E-01    0.695E-01
RMM:   5    -0.413219181342E+03    0.27584E-01   -0.13327E-02  4754   0.117E-01    0.450E-02
RMM:   6    -0.413219210313E+03   -0.28970E-04   -0.20681E-03  5755   0.428E-02    0.248E-02
RMM:   7    -0.413219242085E+03   -0.31772E-04   -0.23207E-04  5788   0.140E-02    0.164E-02
RMM:   8    -0.413219248450E+03   -0.63648E-05   -0.54483E-05  5065   0.770E-03    0.963E-03
RMM:   9    -0.413219248688E+03   -0.23768E-06   -0.16386E-05  4235   0.476E-03    0.461E-03
RMM:  10    -0.413219245693E+03    0.29946E-05   -0.29350E-06  2657   0.261E-03    0.300E-03
RMM:  11    -0.413219243482E+03    0.22109E-05   -0.14000E-06  2507   0.183E-03    0.160E-03
RMM:  12    -0.413219238433E+03    0.50495E-05   -0.90200E-07  2477   0.149E-03    0.777E-04
RMM:  13    -0.413219233974E+03    0.44588E-05   -0.38686E-07  2084   0.101E-03    0.518E-04
RMM:  14    -0.413219231334E+03    0.26395E-05   -0.17224E-07  1367   0.737E-04    0.220E-04
RMM:  15    -0.413219224184E+03    0.71501E-05   -0.15817E-07  1396   0.741E-04    0.212E-04
RMM:  16    -0.413219219717E+03    0.44670E-05   -0.10168E-07  1326   0.671E-04    0.194E-04
RMM:  17    -0.413219217301E+03    0.24157E-05   -0.64917E-08  1103   0.601E-04    0.130E-04
RMM:  18    -0.413219212493E+03    0.48080E-05   -0.63111E-08  1271   0.621E-04    0.653E-05
RMM:  19    -0.413219210822E+03    0.16717E-05   -0.31884E-08   906   0.548E-04    0.368E-05
RMM:  20    -0.413219210627E+03    0.19506E-06   -0.17502E-08   737   0.520E-04
   46 T=    71. E= -.41286865E+03 F= -.41321921E+03 E0= -.41319826E+03  EK= 0.35056E+00 SP= 0.00E+00 SK= 0.00E+00
       N       E                     dE             d eps       ncg     rms          rms(c)
RMM:   1    -0.413240627336E+03   -0.21417E-01   -0.63397E+00  4315   0.119E+00    0.974E-01
RMM:   2    -0.413227517272E+03    0.13110E-01   -0.10701E-01  4483   0.150E-01    0.717E-01
RMM:   3    -0.413225059492E+03    0.24578E-02   -0.66005E-02  4985   0.123E-01    0.396E-01
RMM:   4    -0.413243860400E+03   -0.18801E-01   -0.38375E-02  5061   0.171E-01    0.682E-01
RMM:   5    -0.413217759233E+03    0.26101E-01   -0.12655E-02  4702   0.116E-01    0.453E-02
RMM:   6    -0.413217778778E+03   -0.19546E-04   -0.19004E-03  5706   0.413E-02    0.233E-02
RMM:   7    -0.413217813552E+03   -0.34774E-04   -0.19627E-04  5678   0.132E-02    0.147E-02
RMM:   8    -0.413217829214E+03   -0.15662E-04   -0.53844E-05  5122   0.769E-03    0.901E-03
RMM:   9    -0.413217824700E+03    0.45135E-05   -0.15912E-05  4211   0.472E-03    0.460E-03
RMM:  10    -0.413217824232E+03    0.46866E-06   -0.28727E-06  2650   0.254E-03
   47 T=    71. E= -.41286910E+03 F= -.41321782E+03 E0= -.41319689E+03  EK= 0.34873E+00 SP= 0.00E+00 SK= 0.00E+00
       N       E                     dE             d eps       ncg     rms          rms(c)
RMM:   1    -0.413240116782E+03   -0.22292E-01   -0.62468E+00  4315   0.124E+00    0.992E-01
RMM:   2    -0.413224289806E+03    0.15827E-01   -0.10403E-01  4527   0.160E-01    0.715E-01
RMM:   3    -0.413228023925E+03   -0.37341E-02   -0.66548E-02  5063   0.144E-01    0.492E-01
RMM:   4    -0.413231528267E+03   -0.35043E-02   -0.35036E-02  4999   0.168E-01    0.550E-01
RMM:   5    -0.413215081036E+03    0.16447E-01   -0.75810E-03  4590   0.950E-02    0.426E-02
RMM:   6    -0.413215050186E+03    0.30849E-04   -0.11001E-03  5422   0.322E-02    0.225E-02
RMM:   7    -0.413215061689E+03   -0.11503E-04   -0.12284E-04  5412   0.115E-02    0.132E-02
RMM:   8    -0.413215070762E+03   -0.90731E-05   -0.53901E-05  5180   0.788E-03    0.920E-03
RMM:   9    -0.413215061413E+03    0.93493E-05   -0.12334E-05  3972   0.450E-03    0.382E-03
RMM:  10    -0.413215057663E+03    0.37499E-05   -0.25550E-06  2641   0.240E-03    0.236E-03
RMM:  11    -0.413215052480E+03    0.51825E-05   -0.14136E-06  2507   0.182E-03    0.109E-03
RMM:  12    -0.413215046589E+03    0.58911E-05   -0.63518E-07  2376   0.128E-03    0.619E-04
RMM:  13    -0.413215040993E+03    0.55966E-05   -0.29576E-07  1777   0.890E-04    0.293E-04
RMM:  14    -0.413215034696E+03    0.62970E-05   -0.19686E-07  1465   0.761E-04    0.182E-04
RMM:  15    -0.413215027849E+03    0.68464E-05   -0.15665E-07  1485   0.720E-04    0.147E-04
RMM:  16    -0.413215021289E+03    0.65605E-05   -0.12342E-07  1472   0.675E-04    0.956E-05
RMM:  17    -0.413215013417E+03    0.78721E-05   -0.10469E-07  1446   0.664E-04    0.986E-05
RMM:  18    -0.413215013001E+03    0.41583E-06   -0.37433E-08   818   0.501E-04
   48 T=    70. E= -.41286956E+03 F= -.41321501E+03 E0= -.41319408E+03  EK= 0.34545E+00 SP= 0.00E+00 SK= 0.00E+00
       N       E                     dE             d eps       ncg     rms          rms(c)
RMM:   1    -0.413238022904E+03   -0.23009E-01   -0.61402E+00  4313   0.136E+00    0.981E-01
RMM:   2    -0.413218716534E+03    0.19306E-01   -0.10244E-01  4575   0.166E-01    0.704E-01
RMM:   3    -0.413223295499E+03   -0.45790E-02   -0.64854E-02  5053   0.149E-01    0.497E-01
RMM:   4    -0.413225148956E+03   -0.18535E-02   -0.34090E-02  4989   0.167E-01    0.529E-01
RMM:   5    -0.413209838907E+03    0.15310E-01   -0.69922E-03  4602   0.932E-02    0.439E-02
RMM:   6    -0.413209803992E+03    0.34915E-04   -0.98409E-04  5252   0.312E-02    0.221E-02
RMM:   7    -0.413209835380E+03   -0.31388E-04   -0.12443E-04  5507   0.118E-02    0.118E-02
RMM:   8    -0.413209839749E+03   -0.43684E-05   -0.22972E-05  4362   0.590E-03    0.525E-03
RMM:   9    -0.413209836064E+03    0.36844E-05   -0.51137E-06  2943   0.293E-03    0.319E-03
RMM:  10    -0.413209833673E+03    0.23909E-05   -0.16528E-06  2540   0.204E-03    0.209E-03
RMM:  11    -0.413209829012E+03    0.46613E-05   -0.90352E-07  2482   0.156E-03    0.110E-03
RMM:  12    -0.413209825128E+03    0.38836E-05   -0.39100E-07  2100   0.104E-03    0.542E-04
RMM:  13    -0.413209820539E+03    0.45894E-05   -0.24817E-07  1713   0.847E-04    0.283E-04
RMM:  14    -0.413209814933E+03    0.56063E-05   -0.17466E-07  1425   0.735E-04    0.177E-04
RMM:  15    -0.413209810480E+03    0.44522E-05   -0.11276E-07  1247   0.656E-04    0.107E-04
RMM:  16    -0.413209804352E+03    0.61290E-05   -0.10129E-07  1377   0.660E-04    0.961E-05
RMM:  17    -0.413209798858E+03    0.54935E-05   -0.75346E-08  1312   0.629E-04    0.896E-05
RMM:  18    -0.413209798415E+03    0.44270E-06   -0.27204E-08   758   0.511E-04
   49 T=    69. E= -.41286947E+03 F= -.41320980E+03 E0= -.41318887E+03  EK= 0.34033E+00 SP= 0.00E+00 SK= 0.00E+00
       N       E                     dE             d eps       ncg     rms          rms(c)
RMM:   1    -0.413229091406E+03   -0.19293E-01   -0.60782E+00  4311   0.144E+00    0.941E-01
RMM:   2    -0.413212816087E+03    0.16275E-01   -0.11285E-01  4700   0.178E-01    0.700E-01
RMM:   3    -0.413227917917E+03   -0.15102E-01   -0.68838E-02  5096   0.178E-01    0.654E-01
RMM:   4    -0.413215330537E+03    0.12587E-01   -0.40028E-02  4957   0.184E-01    0.473E-01
RMM:   5    -0.413203561488E+03    0.11769E-01   -0.63150E-03  4565   0.924E-02    0.466E-02
RMM:   6    -0.413203478235E+03    0.83252E-04   -0.64337E-04  4866   0.284E-02    0.230E-02
RMM:   7    -0.413203501966E+03   -0.23730E-04   -0.13934E-04  5670   0.133E-02    0.125E-02
RMM:   8    -0.413203499434E+03    0.25314E-05   -0.39388E-05  5076   0.705E-03    0.822E-03
RMM:   9    -0.413203498943E+03    0.49162E-06   -0.91932E-06  3670   0.404E-03
   50 T=    68. E= -.41286984E+03 F= -.41320350E+03 E0= -.41318258E+03  EK= 0.33366E+00 SP= 0.00E+00 SK= 0.00E+00
       N       E                     dE             d eps       ncg     rms          rms(c)
RMM:   1    -0.413219616751E+03   -0.16117E-01   -0.59211E+00  4308   0.149E+00    0.943E-01
RMM:   2    -0.413203333375E+03    0.16283E-01   -0.11159E-01  4797   0.184E-01    0.695E-01
RMM:   3    -0.413227868473E+03   -0.24535E-01   -0.72223E-02  5118   0.197E-01    0.757E-01
RMM:   4    -0.413202523450E+03    0.25345E-01   -0.41583E-02  4930   0.191E-01    0.397E-01
RMM:   5    -0.413194432705E+03    0.80907E-02   -0.55948E-03  4708   0.911E-02    0.520E-02
RMM:   6    -0.413194307030E+03    0.12568E-03   -0.48495E-04  4682   0.278E-02    0.254E-02
RMM:   7    -0.413194350608E+03   -0.43578E-04   -0.19085E-04  5625   0.155E-02    0.193E-02
RMM:   8    -0.413194340384E+03    0.10224E-04   -0.46678E-05  4922   0.842E-03    0.872E-03
RMM:   9    -0.413194337329E+03    0.30548E-05   -0.12150E-05  3964   0.461E-03    0.376E-03
RMM:  10    -0.413194332385E+03    0.49447E-05   -0.21861E-06  2639   0.240E-03    0.251E-03
RMM:  11    -0.413194325306E+03    0.70787E-05   -0.10487E-06  2522   0.164E-03    0.138E-03
RMM:  12    -0.413194320911E+03    0.43955E-05   -0.49047E-07  2080   0.106E-03    0.667E-04
RMM:  13    -0.413194314262E+03    0.66485E-05   -0.51480E-07  2361   0.107E-03    0.467E-04
RMM:  14    -0.413194309167E+03    0.50952E-05   -0.26874E-07  1564   0.804E-04    0.328E-04
RMM:  15    -0.413194301933E+03    0.72337E-05   -0.25359E-07  1610   0.801E-04    0.149E-04
RMM:  16    -0.413194297217E+03    0.47159E-05   -0.16101E-07  1502   0.690E-04    0.120E-04
RMM:  17    -0.413194291405E+03    0.58122E-05   -0.15086E-07  1444   0.684E-04    0.781E-05
RMM:  18    -0.413194289015E+03    0.23898E-05   -0.81942E-08  1182   0.586E-04    0.426E-05
RMM:  19    -0.413194287619E+03    0.13960E-05   -0.49147E-08   956   0.528E-04    0.280E-05
RMM:  20    -0.413194287008E+03    0.61097E-06   -0.28529E-08   827   0.500E-04
   51 T=    66. E= -.41286956E+03 F= -.41319429E+03 E0= -.41317337E+03  EK= 0.32473E+00 SP= 0.00E+00 SK= 0.00E+00
       N       E                     dE             d eps       ncg     rms          rms(c)
RMM:   1    -0.413211365363E+03   -0.17078E-01   -0.56995E+00  4305   0.159E+00    0.939E-01
RMM:   2    -0.413191558188E+03    0.19807E-01   -0.10764E-01  4822   0.195E-01    0.678E-01
RMM:   3    -0.413222247678E+03   -0.30689E-01   -0.71819E-02  5120   0.209E-01    0.816E-01
RMM:   4    -0.413188851820E+03    0.33396E-01   -0.41409E-02  4907   0.194E-01    0.334E-01
RMM:   5    -0.413183136819E+03    0.57150E-02   -0.49292E-03  4939   0.886E-02    0.568E-02
RMM:   6    -0.413182980588E+03    0.15623E-03   -0.48084E-04  4655   0.283E-02    0.266E-02
RMM:   7    -0.413182999783E+03   -0.19196E-04   -0.18260E-04  5624   0.153E-02    0.196E-02
RMM:   8    -0.413182990973E+03    0.88108E-05   -0.46993E-05  4966   0.854E-03    0.945E-03
RMM:   9    -0.413182987742E+03    0.32304E-05   -0.11114E-05  3796   0.455E-03    0.387E-03
RMM:  10    -0.413182982740E+03    0.50018E-05   -0.22122E-06  2649   0.243E-03    0.242E-03
RMM:  11    -0.413182976431E+03    0.63098E-05   -0.91260E-07  2511   0.159E-03    0.114E-03
RMM:  12    -0.413182972609E+03    0.38221E-05   -0.46143E-07  2068   0.106E-03    0.545E-04
RMM:  13    -0.413182966913E+03    0.56960E-05   -0.40789E-07  2149   0.101E-03    0.409E-04
RMM:  14    -0.413182962499E+03    0.44132E-05   -0.22873E-07  1470   0.800E-04    0.269E-04
RMM:  15    -0.413182957925E+03    0.45745E-05   -0.16918E-07  1397   0.745E-04    0.123E-04
RMM:  16    -0.413182954018E+03    0.39065E-05   -0.13161E-07  1443   0.697E-04    0.879E-05
RMM:  17    -0.413182949597E+03    0.44216E-05   -0.11343E-07  1446   0.665E-04    0.108E-04
RMM:  18    -0.413182948566E+03    0.10304E-05   -0.59769E-08  1017   0.554E-04    0.674E-05
RMM:  19    -0.413182946195E+03    0.23713E-05   -0.61482E-08  1157   0.578E-04    0.268E-05
RMM:  20    -0.413182945773E+03    0.42197E-06   -0.29626E-08   835   0.511E-04
   52 T=    64. E= -.41286925E+03 F= -.41318295E+03 E0= -.41316202E+03  EK= 0.31369E+00 SP= 0.00E+00 SK= 0.00E+00
       N       E                     dE             d eps       ncg     rms          rms(c)
RMM:   1    -0.413189850450E+03   -0.69043E-02   -0.54169E+00  4308   0.161E+00    0.887E-01
RMM:   2    -0.413178262212E+03    0.11588E-01   -0.11468E-01  4968   0.199E-01    0.663E-01
RMM:   3    -0.413219252427E+03   -0.40990E-01   -0.74020E-02  5145   0.225E-01    0.913E-01
RMM:   4    -0.413174604527E+03    0.44648E-01   -0.46936E-02  4899   0.208E-01    0.310E-01
RMM:   5    -0.413169945144E+03    0.46594E-02   -0.64735E-03  5137   0.984E-02    0.685E-02
RMM:   6    -0.413169711298E+03    0.23385E-03   -0.72780E-04  4757   0.335E-02    0.296E-02
RMM:   7    -0.413169738031E+03   -0.26733E-04   -0.20309E-04  5659   0.158E-02    0.200E-02
RMM:   8    -0.413169735500E+03    0.25309E-05   -0.51423E-05  5164   0.889E-03    0.977E-03
RMM:   9    -0.413169732448E+03    0.30525E-05   -0.11276E-05  3749   0.445E-03    0.442E-03
RMM:  10    -0.413169727569E+03    0.48789E-05   -0.27457E-06  2738   0.255E-03    0.254E-03
RMM:  11    -0.413169721517E+03    0.60520E-05   -0.11031E-06  2529   0.172E-03    0.108E-03
RMM:  12    -0.413169717926E+03    0.35912E-05   -0.52521E-07  2125   0.112E-03    0.562E-04
RMM:  13    -0.413169713300E+03    0.46264E-05   -0.44964E-07  2061   0.103E-03    0.412E-04
RMM:  14    -0.413169709528E+03    0.37718E-05   -0.28644E-07  1650   0.851E-04    0.273E-04
RMM:  15    -0.413169705408E+03    0.41200E-05   -0.24039E-07  1633   0.800E-04    0.121E-04
RMM:  16    -0.413169701949E+03    0.34591E-05   -0.18692E-07  1495   0.720E-04    0.987E-05
RMM:  17    -0.413169699578E+03    0.23710E-05   -0.13069E-07  1289   0.648E-04    0.694E-05
RMM:  18    -0.413169698093E+03    0.14848E-05   -0.92790E-08  1197   0.606E-04    0.378E-05
RMM:  19    -0.413169696672E+03    0.14210E-05   -0.77764E-08  1218   0.586E-04    0.264E-05
RMM:  20    -0.413169696522E+03    0.14974E-06   -0.33390E-08   852   0.509E-04
   53 T=    61. E= -.41286928E+03 F= -.41316970E+03 E0= -.41314877E+03  EK= 0.30042E+00 SP= 0.00E+00 SK= 0.00E+00
       N       E                     dE             d eps       ncg     rms          rms(c)
RMM:   1    -0.413172044880E+03   -0.23482E-02   -0.51892E+00  4307   0.168E+00    0.852E-01
RMM:   2    -0.413161915840E+03    0.10129E-01   -0.13176E-01  5057   0.212E-01    0.652E-01
RMM:   3    -0.413203012699E+03   -0.41097E-01   -0.65023E-02  5159   0.219E-01    0.921E-01
RMM:   4    -0.413157768011E+03    0.45245E-01   -0.47695E-02  4897   0.209E-01    0.287E-01
RMM:   5    -0.413153554818E+03    0.42132E-02   -0.63982E-03  5196   0.101E-01    0.780E-02
RMM:   6    -0.413153230279E+03    0.32454E-03   -0.77910E-04  4714   0.361E-02    0.316E-02
RMM:   7    -0.413153237005E+03   -0.67258E-05   -0.21687E-04  5665   0.163E-02    0.195E-02
RMM:   8    -0.413153230743E+03    0.62619E-05   -0.58679E-05  5353   0.927E-03    0.104E-02
RMM:   9    -0.413153224865E+03    0.58775E-05   -0.12218E-05  3947   0.473E-03    0.491E-03
RMM:  10    -0.413153219198E+03    0.56678E-05   -0.31065E-06  2793   0.268E-03    0.267E-03
RMM:  11    -0.413153212751E+03    0.64468E-05   -0.12294E-06  2548   0.183E-03    0.116E-03
[...]
RMM:   2    -0.413232443157E+03   -0.72989E-02   -0.36517E-01  5439   0.658E-01    0.101E+00
RMM:   3    -0.413239053607E+03   -0.66105E-02   -0.68611E-02  5555   0.281E-01    0.101E+00
RMM:   4    -0.413214971545E+03    0.24082E-01   -0.32614E-02  5215   0.217E-01    0.530E-01
RMM:   5    -0.413213842240E+03    0.11293E-02   -0.18981E-02  4471   0.198E-01    0.170E-01
RMM:   6    -0.413212866718E+03    0.97552E-03   -0.78508E-03  4944   0.110E-01    0.985E-02
RMM:   7    -0.413212341926E+03    0.52479E-03   -0.14964E-03  4964   0.523E-02    0.466E-02
RMM:   8    -0.413212300652E+03    0.41274E-04   -0.28455E-04  5022   0.219E-02    0.296E-02
RMM:   9    -0.413212295957E+03    0.46946E-05   -0.14407E-04  4734   0.156E-02    0.137E-02
RMM:  10    -0.413212294319E+03    0.16385E-05   -0.47416E-05  5329   0.829E-03    0.722E-03
RMM:  11    -0.413212293942E+03    0.37678E-06   -0.91763E-06  3388   0.371E-03
  138 T=    80. E= -.41282038E+03 F= -.41321229E+03 E0= -.41318945E+03  EK= 0.39191E+00 SP= 0.00E+00 SK= 0.00E+00
       N       E                     dE             d eps       ncg     rms          rms(c)
RMM:   1    -0.413366685182E+03   -0.15439E+00   -0.88420E+00  4267   0.542E+00    0.796E-01
RMM:   2    -0.413349614642E+03    0.17071E-01   -0.32771E-01  5474   0.631E-01    0.746E-01
RMM:   3    -0.413367981920E+03   -0.18367E-01   -0.57518E-02  5642   0.258E-01    0.836E-01
RMM:   4    -0.413347890889E+03    0.20091E-01   -0.25422E-02  5307   0.176E-01    0.478E-01
RMM:   5    -0.413344875547E+03    0.30153E-02   -0.16752E-02  4333   0.188E-01    0.148E-01
RMM:   6    -0.413344344546E+03    0.53100E-03   -0.25017E-03  4881   0.710E-02    0.741E-02
RMM:   7    -0.413344247747E+03    0.96799E-04   -0.60171E-04  5244   0.316E-02    0.452E-02
RMM:   8    -0.413344211028E+03    0.36719E-04   -0.28085E-04  4742   0.216E-02    0.233E-02
RMM:   9    -0.413344216638E+03   -0.56095E-05   -0.13796E-04  5212   0.143E-02    0.130E-02
RMM:  10    -0.413344210862E+03    0.57752E-05   -0.40491E-05  5464   0.742E-03    0.910E-03
RMM:  11    -0.413344211076E+03   -0.21329E-06   -0.88128E-06  3732   0.405E-03
  139 T=   105. E= -.41282914E+03 F= -.41334421E+03 E0= -.41332128E+03  EK= 0.51507E+00 SP= 0.00E+00 SK= 0.00E+00
       N       E                     dE             d eps       ncg     rms          rms(c)
RMM:   1    -0.413583899884E+03   -0.23969E+00   -0.13877E+01  4264   0.671E+00    0.102E+00
RMM:   2    -0.413540700914E+03    0.43199E-01   -0.43765E-01  5464   0.724E-01    0.817E-01
RMM:   3    -0.413542869388E+03   -0.21685E-02   -0.71415E-02  5531   0.318E-01    0.539E-01
RMM:   4    -0.413607910655E+03   -0.65041E-01   -0.77499E-02  5199   0.287E-01    0.112E+00
RMM:   5    -0.413540511965E+03    0.67399E-01   -0.39492E-02  5052   0.222E-01    0.197E-01
RMM:   6    -0.413539431728E+03    0.10802E-02   -0.75816E-03  5521   0.110E-01    0.926E-02
RMM:   7    -0.413539226919E+03    0.20481E-03   -0.18476E-03  5480   0.481E-02    0.560E-02
RMM:   8    -0.413539195917E+03    0.31002E-04   -0.60316E-04  5199   0.294E-02    0.365E-02
RMM:   9    -0.413539175136E+03    0.20781E-04   -0.18005E-04  5048   0.173E-02    0.168E-02
RMM:  10    -0.413539177619E+03   -0.24827E-05   -0.61760E-05  5882   0.880E-03    0.993E-03
RMM:  11    -0.413539178376E+03   -0.75730E-06   -0.17163E-05  4538   0.500E-03    0.504E-03
RMM:  12    -0.413539179727E+03   -0.13512E-05   -0.38662E-06  2882   0.291E-03    0.265E-03
RMM:  13    -0.413539180980E+03   -0.12525E-05   -0.11305E-06  2496   0.187E-03    0.145E-03
RMM:  14    -0.413539183034E+03   -0.20537E-05   -0.82448E-07  2484   0.152E-03    0.856E-04
RMM:  15    -0.413539184532E+03   -0.14986E-05   -0.42894E-07  2227   0.104E-03    0.351E-04
RMM:  16    -0.413539185717E+03   -0.11843E-05   -0.26422E-07  1563   0.805E-04    0.182E-04
RMM:  17    -0.413539187357E+03   -0.16401E-05   -0.29516E-07  1730   0.820E-04    0.154E-04
RMM:  18    -0.413539188463E+03   -0.11063E-05   -0.18164E-07  1412   0.691E-04    0.102E-04
RMM:  19    -0.413539189759E+03   -0.12964E-05   -0.16407E-07  1362   0.662E-04    0.548E-05
RMM:  20    -0.413539190806E+03   -0.10463E-05   -0.11296E-07  1188   0.607E-04    0.334E-05
RMM:  21    -0.413539191495E+03   -0.68908E-06   -0.65214E-08   991   0.564E-04
  140 T=   143. E= -.41283692E+03 F= -.41353919E+03 E0= -.41351623E+03  EK= 0.70228E+00 SP= 0.00E+00 SK= 0.00E+00
       N       E                     dE             d eps       ncg     rms          rms(c)
RMM:   1    -0.413777623035E+03   -0.23843E+00   -0.18685E+01  4264   0.775E+00    0.112E+00
RMM:   2    -0.413692380756E+03    0.85242E-01   -0.54475E-01  5383   0.812E-01    0.884E-01
RMM:   3    -0.413701685274E+03   -0.93045E-02   -0.94441E-02  5557   0.367E-01    0.643E-01
RMM:   4    -0.413780837904E+03   -0.79153E-01   -0.10449E-01  5256   0.314E-01    0.128E+00
RMM:   5    -0.413692370009E+03    0.88468E-01   -0.55741E-02  4980   0.277E-01    0.151E-01
RMM:   6    -0.413692303858E+03    0.66151E-04   -0.92245E-03  5723   0.112E-01    0.944E-02
RMM:   7    -0.413692057081E+03    0.24678E-03   -0.22593E-03  5476   0.511E-02    0.549E-02
RMM:   8    -0.413692030890E+03    0.26191E-04   -0.66074E-04  5511   0.316E-02    0.351E-02
RMM:   9    -0.413692020928E+03    0.99622E-05   -0.18435E-04  5471   0.165E-02    0.237E-02
RMM:  10    -0.413692013667E+03    0.72610E-05   -0.74110E-05  5586   0.103E-02    0.885E-03
RMM:  11    -0.413692015651E+03   -0.19839E-05   -0.26584E-05  4981   0.546E-03    0.641E-03
RMM:  12    -0.413692015719E+03   -0.68540E-07   -0.37915E-06  2853   0.314E-03
  141 T=   175. E= -.41283388E+03 F= -.41369202E+03 E0= -.41366886E+03  EK= 0.85814E+00 SP= 0.00E+00 SK= 0.00E+00
       N       E                     dE             d eps       ncg     rms          rms(c)
RMM:   1    -0.413955175186E+03   -0.26316E+00   -0.22278E+01  4271   0.838E+00    0.135E+00
RMM:   2    -0.413822816784E+03    0.13236E+00   -0.68120E-01  5325   0.917E-01    0.114E+00
RMM:   3    -0.413896379530E+03   -0.73563E-01   -0.15871E-01  5565   0.433E-01    0.140E+00
RMM:   4    -0.413833657359E+03    0.62722E-01   -0.93379E-02  5243   0.332E-01    0.736E-01
RMM:   5    -0.413818034424E+03    0.15623E-01   -0.39820E-02  4612   0.277E-01    0.148E-01
RMM:   6    -0.413817926437E+03    0.10799E-03   -0.61746E-03  5686   0.974E-02    0.108E-01
RMM:   7    -0.413817678948E+03    0.24749E-03   -0.10464E-03  4946   0.409E-02    0.578E-02
RMM:   8    -0.413817660462E+03    0.18486E-04   -0.10876E-03  5499   0.400E-02    0.410E-02
RMM:   9    -0.413817642925E+03    0.17538E-04   -0.19484E-04  5676   0.170E-02    0.275E-02
RMM:  10    -0.413817629918E+03    0.13007E-04   -0.11504E-04  5401   0.127E-02    0.107E-02
RMM:  11    -0.413817630365E+03   -0.44774E-06   -0.43196E-05  5573   0.719E-03    0.863E-03
RMM:  12    -0.413817630341E+03    0.24691E-07   -0.66202E-06  3448   0.385E-03
  142 T=   200. E= -.41283501E+03 F= -.41381763E+03 E0= -.41379420E+03  EK= 0.98262E+00 SP= 0.00E+00 SK= 0.00E+00
       N       E                     dE             d eps       ncg     rms          rms(c)
RMM:   1    -0.414092623949E+03   -0.27499E+00   -0.25088E+01  4284   0.887E+00    0.164E+00
RMM:   2    -0.413927867006E+03    0.16476E+00   -0.78035E-01  5355   0.104E+00    0.154E+00
RMM:   3    -0.413988494657E+03   -0.60628E-01   -0.18761E-01  5540   0.471E-01    0.170E+00
RMM:   4    -0.413910790618E+03    0.77704E-01   -0.10903E-01  5223   0.379E-01    0.833E-01
RMM:   5    -0.413902487586E+03    0.83030E-02   -0.41860E-02  4403   0.297E-01    0.205E-01
RMM:   6    -0.413902003374E+03    0.48421E-03   -0.12136E-02  5256   0.139E-01    0.144E-01
RMM:   7    -0.413901103960E+03    0.89941E-03   -0.30718E-03  5002   0.701E-02    0.761E-02
RMM:   8    -0.413901007694E+03    0.96266E-04   -0.77385E-04  5343   0.350E-02    0.454E-02
RMM:   9    -0.413900991415E+03    0.16279E-04   -0.42543E-04  4862   0.263E-02    0.258E-02
RMM:  10    -0.413900985517E+03    0.58979E-05   -0.90752E-05  5417   0.121E-02    0.148E-02
RMM:  11    -0.413900985941E+03   -0.42376E-06   -0.53697E-05  5321   0.888E-03    0.830E-03
RMM:  12    -0.413900987275E+03   -0.13341E-05   -0.70208E-06  3216   0.368E-03    0.384E-03
RMM:  13    -0.413900988607E+03   -0.13321E-05   -0.27142E-06  2725   0.247E-03    0.151E-03
RMM:  14    -0.413900990099E+03   -0.14923E-05   -0.10733E-06  2460   0.175E-03    0.825E-04
RMM:  15    -0.413900991741E+03   -0.16418E-05   -0.63864E-07  2298   0.134E-03    0.443E-04
RMM:  16    -0.413900992900E+03   -0.11593E-05   -0.35776E-07  1968   0.993E-04    0.248E-04
RMM:  17    -0.413900993825E+03   -0.92428E-06   -0.22311E-07  1507   0.804E-04
  143 T=   217. E= -.41283424E+03 F= -.41390099E+03 E0= -.41387779E+03  EK= 0.10668E+01 SP= 0.00E+00 SK= 0.00E+00
       N       E                     dE             d eps       ncg     rms          rms(c)
RMM:   1    -0.414154630244E+03   -0.25364E+00   -0.26010E+01  4293   0.909E+00    0.151E+00
RMM:   2    -0.413995804030E+03    0.15883E+00   -0.78777E-01  5383   0.107E+00    0.155E+00
RMM:   3    -0.414005281359E+03   -0.94773E-02   -0.17069E-01  5525   0.463E-01    0.151E+00
RMM:   4    -0.413952569628E+03    0.52712E-01   -0.86896E-02  5228   0.350E-01    0.785E-01
RMM:   5    -0.413949592221E+03    0.29774E-02   -0.42737E-02  4545   0.289E-01    0.286E-01
RMM:   6    -0.413948520924E+03    0.10713E-02   -0.22944E-02  5033   0.185E-01    0.178E-01
RMM:   7    -0.413946574752E+03    0.19462E-02   -0.41281E-03  4816   0.889E-02    0.805E-02
RMM:   8    -0.413946527920E+03    0.46832E-04   -0.98131E-04  5478   0.379E-02    0.508E-02
RMM:   9    -0.413946493501E+03    0.34419E-04   -0.39447E-04  4541   0.260E-02    0.202E-02
RMM:  10    -0.413946498168E+03   -0.46676E-05   -0.11141E-04  5647   0.125E-02    0.140E-02
RMM:  11    -0.413946497835E+03    0.33283E-06   -0.27627E-05  4645   0.691E-03    0.665E-03
RMM:  12    -0.413946500525E+03   -0.26900E-05   -0.71741E-06  3307   0.361E-03    0.389E-03
RMM:  13    -0.413946502077E+03   -0.15513E-05   -0.21387E-06  2682   0.229E-03    0.146E-03
RMM:  14    -0.413946503238E+03   -0.11613E-05   -0.96908E-07  2460   0.161E-03    0.906E-04
RMM:  15    -0.413946504298E+03   -0.10603E-05   -0.57708E-07  2307   0.124E-03    0.433E-04
RMM:  16    -0.413946504869E+03   -0.57074E-06   -0.32039E-07  1678   0.906E-04
  144 T=   227. E= -.41283149E+03 F= -.41394650E+03 E0= -.41392402E+03  EK= 0.11150E+01 SP= 0.00E+00 SK= 0.00E+00
       N       E                     dE             d eps       ncg     rms          rms(c)
RMM:   1    -0.414181198098E+03   -0.23469E+00   -0.26531E+01  4296   0.927E+00    0.140E+00
RMM:   2    -0.414037188980E+03    0.14401E+00   -0.76887E-01  5400   0.106E+00    0.148E+00
RMM:   3    -0.414014528975E+03    0.22660E-01   -0.16301E-01  5552   0.458E-01    0.132E+00
RMM:   4    -0.413977330093E+03    0.37199E-01   -0.79143E-02  5290   0.338E-01    0.696E-01
RMM:   5    -0.413975043308E+03    0.22868E-02   -0.44274E-02  4675   0.281E-01    0.318E-01
RMM:   6    -0.413973647681E+03    0.13956E-02   -0.25703E-02  5012   0.195E-01    0.184E-01
RMM:   7    -0.413971593589E+03    0.20541E-02   -0.40594E-03  4732   0.917E-02    0.828E-02
RMM:   8    -0.413971548046E+03    0.45543E-04   -0.11348E-03  5622   0.405E-02    0.551E-02
RMM:   9    -0.413971507211E+03    0.40835E-04   -0.41562E-04  4519   0.268E-02    0.211E-02
RMM:  10    -0.413971515170E+03   -0.79589E-05   -0.12846E-04  5751   0.136E-02    0.141E-02
RMM:  11    -0.413971517274E+03   -0.21048E-05   -0.34640E-05  4973   0.744E-03    0.806E-03
RMM:  12    -0.413971521718E+03   -0.44433E-05   -0.91006E-06  3620   0.426E-03    0.436E-03
RMM:  13    -0.413971524085E+03   -0.23669E-05   -0.35703E-06  2882   0.264E-03    0.162E-03
RMM:  14    -0.413971525915E+03   -0.18304E-05   -0.13243E-06  2524   0.187E-03    0.102E-03
RMM:  15    -0.413971527069E+03   -0.11540E-05   -0.77193E-07  2437   0.138E-03    0.530E-04
RMM:  16    -0.413971527572E+03   -0.50292E-06   -0.42527E-07  1873   0.971E-04
  145 T=   231. E= -.41283918E+03 F= -.41397153E+03 E0= -.41394916E+03  EK= 0.11323E+01 SP= 0.00E+00 SK= 0.00E+00
       N       E                     dE             d eps       ncg     rms          rms(c)
RMM:   1    -0.414075524329E+03   -0.10400E+00   -0.25884E+01  4295   0.931E+00    0.136E+00
RMM:   2    -0.413934107641E+03    0.14142E+00   -0.73579E-01  5417   0.104E+00    0.141E+00
RMM:   3    -0.413922864085E+03    0.11244E-01   -0.14676E-01  5619   0.428E-01    0.130E+00
RMM:   4    -0.413888213706E+03    0.34650E-01   -0.61636E-02  5251   0.303E-01    0.716E-01
RMM:   5    -0.413886673443E+03    0.15403E-02   -0.49486E-02  4646   0.292E-01    0.325E-01
RMM:   6    -0.413884658821E+03    0.20146E-02   -0.25407E-02  5061   0.194E-01    0.182E-01
RMM:   7    -0.413882773626E+03    0.18852E-02   -0.40539E-03  4845   0.899E-02    0.969E-02
RMM:   8    -0.413882627289E+03    0.14634E-03   -0.11472E-03  5458   0.421E-02    0.598E-02
RMM:   9    -0.413882586376E+03    0.40913E-04   -0.58218E-04  4515   0.309E-02    0.204E-02
RMM:  10    -0.413882606422E+03   -0.20046E-04   -0.16315E-04  5845   0.152E-02    0.156E-02
RMM:  11    -0.413882610772E+03   -0.43506E-05   -0.37500E-05  4725   0.808E-03    0.780E-03
RMM:  12    -0.413882618541E+03   -0.77685E-05   -0.11617E-05  4009   0.460E-03    0.412E-03
RMM:  13    -0.413882623544E+03   -0.50028E-05   -0.41250E-06  2951   0.284E-03    0.203E-03
RMM:  14    -0.413882627494E+03   -0.39498E-05   -0.22199E-06  2675   0.218E-03    0.112E-03
RMM:  15    -0.413882629090E+03   -0.15961E-05   -0.11957E-06  2494   0.153E-03    0.691E-04
RMM:  16    -0.413882630072E+03   -0.98227E-06   -0.10307E-06  2293   0.129E-03
  146 T=   211. E= -.41284462E+03 F= -.41388263E+03 E0= -.41385980E+03  EK= 0.10380E+01 SP= 0.00E+00 SK= 0.00E+00
       N       E                     dE             d eps       ncg     rms          rms(c)
RMM:   1    -0.413735869637E+03    0.14676E+00   -0.21384E+01  4292   0.864E+00    0.147E+00
RMM:   2    -0.413629041123E+03    0.10683E+00   -0.62074E-01  5404   0.940E-01    0.136E+00
RMM:   3    -0.413677889504E+03   -0.48848E-01   -0.13561E-01  5675   0.393E-01    0.148E+00
RMM:   4    -0.413622388687E+03    0.55501E-01   -0.70122E-02  5134   0.303E-01    0.784E-01
RMM:   5    -0.413616587995E+03    0.58007E-02   -0.53510E-02  4480   0.306E-01    0.249E-01
RMM:   6    -0.413614431667E+03    0.21563E-02   -0.91600E-03  5030   0.131E-01    0.130E-01
RMM:   7    -0.413613978652E+03    0.45302E-03   -0.21718E-03  5453   0.591E-02    0.960E-02
RMM:   8    -0.413613760913E+03    0.21774E-03   -0.75741E-04  4620   0.365E-02    0.561E-02
RMM:   9    -0.413613745039E+03    0.15874E-04   -0.60991E-04  4538   0.311E-02    0.208E-02
RMM:  10    -0.413613766377E+03   -0.21338E-04   -0.13904E-04  5841   0.140E-02    0.147E-02
RMM:  11    -0.413613770508E+03   -0.41305E-05   -0.36883E-05  4684   0.781E-03    0.671E-03
RMM:  12    -0.413613777753E+03   -0.72457E-05   -0.95100E-06  3628   0.413E-03    0.376E-03
RMM:  13    -0.413613783888E+03   -0.61346E-05   -0.35903E-06  2860   0.284E-03    0.256E-03
RMM:  14    -0.413613787617E+03   -0.37294E-05   -0.29666E-06  2778   0.241E-03    0.123E-03
RMM:  15    -0.413613788962E+03   -0.13449E-05   -0.15733E-06  2543   0.168E-03    0.804E-04
RMM:  16    -0.413613789078E+03   -0.11516E-06   -0.13851E-06  2483   0.150E-03
  147 T=   157. E= -.41284334E+03 F= -.41361379E+03 E0= -.41359075E+03  EK= 0.77045E+00 SP= 0.00E+00 SK= 0.00E+00
       N       E                     dE             d eps       ncg     rms          rms(c)
RMM:   1    -0.413269718767E+03    0.34407E+00   -0.12446E+01  4286   0.680E+00    0.138E+00
RMM:   2    -0.413244484610E+03    0.25234E-01   -0.35969E-01  5359   0.702E-01    0.120E+00
RMM:   3    -0.413265593107E+03   -0.21108E-01   -0.79174E-02  5456   0.316E-01    0.925E-01
RMM:   4    -0.413314606653E+03   -0.49014E-01   -0.11999E-01  5213   0.333E-01    0.119E+00
RMM:   5    -0.413242087792E+03    0.72519E-01   -0.60802E-02  4859   0.306E-01    0.205E-01
RMM:   6    -0.413240653097E+03    0.14347E-02   -0.83435E-03  5253   0.116E-01    0.928E-02
RMM:   7    -0.413240532962E+03    0.12013E-03   -0.20457E-03  5598   0.497E-02    0.664E-02
RMM:   8    -0.413240444778E+03    0.88184E-04   -0.64840E-04  5115   0.306E-02    0.378E-02
RMM:   9    -0.413240457915E+03   -0.13136E-04   -0.25904E-04  5015   0.206E-02    0.201E-02
RMM:  10    -0.413240465411E+03   -0.74965E-05   -0.73464E-05  5679   0.103E-02    0.103E-02
RMM:  11    -0.413240469845E+03   -0.44343E-05   -0.23863E-05  4703   0.567E-03    0.570E-03
RMM:  12    -0.413240475505E+03   -0.56596E-05   -0.54851E-06  3096   0.336E-03    0.317E-03
RMM:  13    -0.413240480484E+03   -0.49791E-05   -0.27436E-06  2749   0.250E-03    0.171E-03
RMM:  14    -0.413240484389E+03   -0.39046E-05   -0.24956E-06  2703   0.220E-03    0.869E-04
RMM:  15    -0.413240485387E+03   -0.99808E-06   -0.13142E-06  2473   0.149E-03
  148 T=    85. E= -.41282150E+03 F= -.41324049E+03 E0= -.41321760E+03  EK= 0.41898E+00 SP= 0.00E+00 SK= 0.00E+00
       N       E                     dE             d eps       ncg     rms          rms(c)
RMM:   1    -0.413091235784E+03    0.14925E+00   -0.44044E+00  4283   0.416E+00    0.425E-01
RMM:   2    -0.413090447490E+03    0.78829E-03   -0.82736E-02  5206   0.342E-01    0.364E-01
RMM:   3    -0.413093149422E+03   -0.27019E-02   -0.13290E-02  5704   0.121E-01    0.319E-01
RMM:   4    -0.413093649509E+03   -0.50009E-03   -0.79547E-03  5352   0.889E-02    0.300E-01
RMM:   5    -0.413090575640E+03    0.30739E-02   -0.60799E-03  4689   0.100E-01    0.849E-02
RMM:   6    -0.413090383958E+03    0.19168E-03   -0.10843E-03  5066   0.438E-02    0.440E-02
RMM:   7    -0.413090357264E+03    0.26693E-04   -0.30620E-04  5648   0.205E-02    0.335E-02
RMM:   8    -0.413090344692E+03    0.12572E-04   -0.13261E-04  4697   0.139E-02    0.161E-02
RMM:   9    -0.413090355826E+03   -0.11133E-04   -0.70137E-05  4933   0.100E-02    0.879E-03
RMM:  10    -0.413090357763E+03   -0.19372E-05   -0.10778E-05  3768   0.416E-03    0.509E-03
RMM:  11    -0.413090359664E+03   -0.19014E-05   -0.45437E-06  2992   0.294E-03    0.217E-03
RMM:  12    -0.413090362434E+03   -0.27698E-05   -0.17622E-06  2592   0.203E-03    0.113E-03
RMM:  13    -0.413090364057E+03   -0.16231E-05   -0.11273E-06  2424   0.150E-03    0.699E-04
RMM:  14    -0.413090364326E+03   -0.26883E-06   -0.96237E-07  2339   0.132E-03
  149 T=    56. E= -.41281330E+03 F= -.41309036E+03 E0= -.41306772E+03  EK= 0.27706E+00 SP= 0.00E+00 SK= 0.00E+00
       N       E                     dE             d eps       ncg     rms          rms(c)
RMM:   1    -0.413274274482E+03   -0.18391E+00   -0.56690E+00  4294   0.470E+00    0.104E+00
RMM:   2    -0.413278117640E+03   -0.38432E-02   -0.13758E-01  5246   0.471E-01    0.905E-01
RMM:   3    -0.413301067599E+03   -0.22950E-01   -0.61880E-02  5459   0.259E-01    0.103E+00
RMM:   4    -0.413271187779E+03    0.29880E-01   -0.46005E-02  5152   0.250E-01    0.357E-01
RMM:   5    -0.413268849588E+03    0.23382E-02   -0.21042E-02  4998   0.186E-01    0.149E-01
RMM:   6    -0.413267661398E+03    0.11882E-02   -0.48716E-03  5167   0.879E-02    0.685E-02
RMM:   7    -0.413267493299E+03    0.16810E-03   -0.55337E-04  4767   0.334E-02    0.315E-02
RMM:   8    -0.413267480523E+03    0.12776E-04   -0.21422E-04  5279   0.184E-02    0.181E-02
RMM:   9    -0.413267486232E+03   -0.57091E-05   -0.72435E-05  5676   0.956E-03    0.110E-02
RMM:  10    -0.413267486184E+03    0.47570E-07   -0.15785E-05  4377   0.485E-03    0.619E-03
RMM:  11    -0.413267488776E+03   -0.25917E-05   -0.11067E-05  4058   0.420E-03    0.360E-03
RMM:  12    -0.413267490347E+03   -0.15708E-05   -0.16140E-06  2595   0.230E-03    0.182E-03
RMM:  13    -0.413267491106E+03   -0.75926E-06   -0.83073E-07  2479   0.149E-03
  150 T=    88. E= -.41283599E+03 F= -.41326749E+03 E0= -.41324502E+03  EK= 0.43150E+00 SP= 0.00E+00 SK= 0.00E+00
