       N       E                     dE             d eps       ncg     rms          rms(c)
RMM:   1     0.220127668543E+04    0.22013E+04   -0.52442E+04  2132   0.654E+02
RMM:   2     0.705715207053E+03   -0.14956E+04   -0.16258E+04  2132   0.177E+02
RMM:   3     0.137603795507E+03   -0.56811E+03   -0.65755E+03  2132   0.117E+02
RMM:   4    -0.159262603817E+03   -0.29687E+03   -0.27858E+03  2132   0.936E+01
RMM:   5    -0.287562584007E+03   -0.12830E+03   -0.11449E+03  2132   0.595E+01
RMM:   6    -0.349787314180E+03   -0.62225E+02   -0.55163E+02  2132   0.423E+01
RMM:   7    -0.382710296543E+03   -0.32923E+02   -0.30436E+02  2132   0.293E+01
RMM:   8    -0.404191902300E+03   -0.21482E+02   -0.18434E+02  2132   0.233E+01
RMM:   9    -0.435990482787E+03   -0.31799E+02   -0.30752E+02  6103   0.173E+01
RMM:  10    -0.441252523984E+03   -0.52620E+01   -0.62998E+01  6396   0.539E+00
RMM:  11    -0.442515395875E+03   -0.12629E+01   -0.11195E+01  6234   0.173E+00
RMM:  12    -0.442893602980E+03   -0.37821E+00   -0.28115E+00  6372   0.605E-01    0.134E+02
RMM:  13    -0.425621367844E+03    0.17272E+02   -0.81032E+01  4672   0.119E+01    0.712E+01
RMM:  14    -0.499571451458E+03   -0.73950E+02   -0.54101E+02  5419   0.232E+01    0.307E+01
RMM:  15    -0.416017258447E+03    0.83554E+02   -0.20065E+02  5080   0.164E+01    0.710E+00
RMM:  16    -0.414037935696E+03    0.19793E+01   -0.40268E+01  6082   0.615E+00    0.429E+00
RMM:  17    -0.413217331918E+03    0.82060E+00   -0.25322E+00  5394   0.189E+00    0.245E+00
RMM:  18    -0.413174955170E+03    0.42377E-01   -0.78985E-01  5984   0.914E-01    0.167E+00
RMM:  19    -0.413169866690E+03    0.50885E-02   -0.27231E-01  5718   0.561E-01    0.882E-01
RMM:  20    -0.413189732419E+03   -0.19866E-01   -0.27392E-01  5558   0.547E-01    0.624E-01
RMM:  21    -0.413168351761E+03    0.21381E-01   -0.34922E-02  5006   0.242E-01    0.284E-01
RMM:  22    -0.413165447361E+03    0.29044E-02   -0.20964E-02  5945   0.135E-01    0.134E-01
RMM:  23    -0.413164504142E+03    0.94322E-03   -0.53541E-03  6016   0.650E-02    0.836E-02
RMM:  24    -0.413163283839E+03    0.12203E-02   -0.16069E-03  5287   0.403E-02    0.503E-02
RMM:  25    -0.413162790461E+03    0.49338E-03   -0.87759E-04  5292   0.287E-02    0.372E-02
RMM:  26    -0.413162936024E+03   -0.14556E-03   -0.10068E-03  5841   0.319E-02    0.355E-02
RMM:  27    -0.413163339459E+03   -0.40344E-03   -0.20413E-04  4583   0.201E-02    0.197E-02
RMM:  28    -0.413163793714E+03   -0.45425E-03   -0.18472E-04  5253   0.185E-02    0.889E-03
RMM:  29    -0.413164189715E+03   -0.39600E-03   -0.11445E-04  4545   0.155E-02    0.467E-03
RMM:  30    -0.413164418007E+03   -0.22829E-03   -0.79499E-05  4231   0.102E-02    0.387E-03
RMM:  31    -0.413164555939E+03   -0.13793E-03   -0.57404E-05  3246   0.727E-03    0.347E-03
RMM:  32    -0.413164580896E+03   -0.24957E-04   -0.21936E-05  2992   0.311E-03    0.167E-03
RMM:  33    -0.413164593567E+03   -0.12671E-04   -0.91174E-06  2786   0.226E-03    0.669E-04
RMM:  34    -0.413164596945E+03   -0.33775E-05   -0.52867E-06  2689   0.171E-03    0.750E-04
RMM:  35    -0.413164596590E+03    0.35512E-06   -0.24815E-06  2300   0.122E-03
    1 T=    61. E= -.41286681E+03 F= -.41316460E+03 E0= -.41314210E+03  EK= 0.29779E+00 SP= 0.00E+00 SK= 0.00E+00
       N       E                     dE             d eps       ncg     rms          rms(c)
RMM:   1    -0.413158388916E+03    0.62080E-02   -0.10219E+01  4002   0.664E-01    0.885E-01
RMM:   2    -0.413167123650E+03   -0.87347E-02   -0.12529E-01  3973   0.962E-02    0.645E-01
RMM:   3    -0.413164408350E+03    0.27153E-02   -0.97094E-03  4618   0.406E-02    0.111E-01
RMM:   4    -0.413176451547E+03   -0.12043E-01   -0.12757E-02  5213   0.935E-02    0.461E-01
RMM:   5    -0.413164240998E+03    0.12211E-01   -0.61544E-03  4864   0.770E-02    0.365E-02
RMM:   6    -0.413164318430E+03   -0.77432E-04   -0.10902E-03  5785   0.317E-02    0.259E-02
RMM:   7    -0.413164320169E+03   -0.17388E-05   -0.23258E-04  5595   0.141E-02    0.143E-02
RMM:   8    -0.413164321282E+03   -0.11134E-05   -0.23612E-05  4289   0.544E-03    0.610E-03
RMM:   9    -0.413164325270E+03   -0.39876E-05   -0.51175E-06  2965   0.250E-03    0.464E-03
RMM:  10    -0.413164330457E+03   -0.51875E-05   -0.14068E-06  2526   0.177E-03    0.274E-03
RMM:  11    -0.413164336759E+03   -0.63016E-05   -0.12344E-06  2511   0.159E-03    0.117E-03
RMM:  12    -0.413164341857E+03   -0.50978E-05   -0.86502E-07  2373   0.130E-03    0.536E-04
RMM:  13    -0.413164342775E+03   -0.91854E-06   -0.42217E-07  1928   0.895E-04
    2 T=    61. E= -.41286661E+03 F= -.41316434E+03 E0= -.41314184E+03  EK= 0.29773E+00 SP= 0.00E+00 SK= 0.00E+00
       N       E                     dE             d eps       ncg     rms          rms(c)
RMM:   1    -0.413159570706E+03    0.47712E-02   -0.10238E+01  4197   0.671E-01    0.907E-01
RMM:   2    -0.413167042007E+03   -0.74713E-02   -0.12314E-01  4065   0.952E-02    0.639E-01
RMM:   3    -0.413165073508E+03    0.19685E-02   -0.97817E-03  4768   0.421E-02    0.133E-01
RMM:   4    -0.413188247576E+03   -0.23174E-01   -0.23684E-02  5183   0.128E-01    0.636E-01
RMM:   5    -0.413164743520E+03    0.23504E-01   -0.11430E-02  4836   0.106E-01    0.426E-02
RMM:   6    -0.413164896862E+03   -0.15334E-03   -0.20166E-03  5793   0.428E-02    0.283E-02
RMM:   7    -0.413164896057E+03    0.80521E-06   -0.32443E-04  5712   0.166E-02    0.177E-02
RMM:   8    -0.413164890262E+03    0.57954E-05   -0.50619E-05  4975   0.757E-03    0.824E-03
RMM:   9    -0.413164889125E+03    0.11371E-05   -0.10405E-05  3634   0.360E-03    0.636E-03
RMM:  10    -0.413164889544E+03   -0.41896E-06   -0.16000E-06  2566   0.201E-03
    3 T=    61. E= -.41286692E+03 F= -.41316489E+03 E0= -.41314239E+03  EK= 0.29797E+00 SP= 0.00E+00 SK= 0.00E+00
       N       E                     dE             d eps       ncg     rms          rms(c)
RMM:   1    -0.413160040320E+03    0.48488E-02   -0.10166E+01  4221   0.681E-01    0.891E-01
RMM:   2    -0.413166780632E+03   -0.67403E-02   -0.12242E-01  4197   0.932E-02    0.633E-01
RMM:   3    -0.413167719785E+03   -0.93915E-03   -0.11777E-02  5145   0.654E-02    0.262E-01
RMM:   4    -0.413197561318E+03   -0.29842E-01   -0.43098E-02  5135   0.175E-01    0.750E-01
RMM:   5    -0.413164560914E+03    0.33000E-01   -0.14034E-02  4756   0.124E-01    0.581E-02
RMM:   6    -0.413164638312E+03   -0.77397E-04   -0.24601E-03  5584   0.491E-02    0.275E-02
RMM:   7    -0.413164660627E+03   -0.22315E-04   -0.38210E-04  6047   0.167E-02    0.173E-02
RMM:   8    -0.413164660190E+03    0.43680E-06   -0.66512E-05  5288   0.869E-03    0.781E-03
RMM:   9    -0.413164658164E+03    0.20260E-05   -0.10215E-05  3501   0.372E-03    0.379E-03
RMM:  10    -0.413164659467E+03   -0.13032E-05   -0.22948E-06  2594   0.220E-03    0.258E-03
RMM:  11    -0.413164661210E+03   -0.17427E-05   -0.14453E-06  2534   0.185E-03    0.147E-03
RMM:  12    -0.413164662148E+03   -0.93870E-06   -0.75898E-07  2486   0.141E-03
    4 T=    61. E= -.41286669E+03 F= -.41316466E+03 E0= -.41314217E+03  EK= 0.29798E+00 SP= 0.00E+00 SK= 0.00E+00
       N       E                     dE             d eps       ncg     rms          rms(c)
RMM:   1    -0.413158962769E+03    0.56984E-02   -0.10206E+01  4236   0.679E-01    0.883E-01
RMM:   2    -0.413167358803E+03   -0.83960E-02   -0.12547E-01  4020   0.922E-02    0.644E-01
RMM:   3    -0.413165168220E+03    0.21906E-02   -0.97972E-03  4930   0.416E-02    0.131E-01
RMM:   4    -0.413195135624E+03   -0.29967E-01   -0.31063E-02  5159   0.147E-01    0.722E-01
RMM:   5    -0.413164647095E+03    0.30489E-01   -0.14770E-02  4824   0.120E-01    0.442E-02
RMM:   6    -0.413164823763E+03   -0.17667E-03   -0.23999E-03  5793   0.478E-02    0.278E-02
RMM:   7    -0.413164833314E+03   -0.95509E-05   -0.35578E-04  5806   0.169E-02    0.178E-02
RMM:   8    -0.413164834677E+03   -0.13626E-05   -0.58309E-05  5044   0.784E-03    0.842E-03
RMM:   9    -0.413164836197E+03   -0.15199E-05   -0.11963E-05  3812   0.389E-03    0.609E-03
RMM:  10    -0.413164840380E+03   -0.41837E-05   -0.17425E-06  2573   0.200E-03    0.396E-03
RMM:  11    -0.413164845543E+03   -0.51623E-05   -0.14549E-06  2550   0.184E-03    0.187E-03
RMM:  12    -0.413164850848E+03   -0.53054E-05   -0.14375E-06  2550   0.172E-03    0.813E-04
RMM:  13    -0.413164851516E+03   -0.66838E-06   -0.40648E-07  2208   0.108E-03
    5 T=    61. E= -.41286673E+03 F= -.41316485E+03 E0= -.41314237E+03  EK= 0.29812E+00 SP= 0.00E+00 SK= 0.00E+00
       N       E                     dE             d eps       ncg     rms          rms(c)
RMM:   1    -0.413159806325E+03    0.50445E-02   -0.10236E+01  4251   0.681E-01    0.903E-01
RMM:   2    -0.413167449212E+03   -0.76429E-02   -0.12351E-01  4081   0.946E-02    0.641E-01
RMM:   3    -0.413165451050E+03    0.19982E-02   -0.97264E-03  4688   0.418E-02    0.127E-01
RMM:   4    -0.413184564217E+03   -0.19113E-01   -0.19340E-02  5159   0.116E-01    0.580E-01
RMM:   5    -0.413165164659E+03    0.19400E-01   -0.95208E-03  4832   0.960E-02    0.399E-02
RMM:   6    -0.413165284172E+03   -0.11951E-03   -0.16201E-03  5815   0.383E-02    0.257E-02
RMM:   7    -0.413165285445E+03   -0.12732E-05   -0.26465E-04  5674   0.154E-02    0.162E-02
RMM:   8    -0.413165279144E+03    0.63011E-05   -0.46242E-05  4866   0.734E-03    0.779E-03
RMM:   9    -0.413165278013E+03    0.11310E-05   -0.91805E-06  3545   0.351E-03    0.614E-03
RMM:  10    -0.413165278570E+03   -0.55740E-06   -0.13876E-06  2537   0.199E-03
    6 T=    61. E= -.41286690E+03 F= -.41316528E+03 E0= -.41314282E+03  EK= 0.29838E+00 SP= 0.00E+00 SK= 0.00E+00
       N       E                     dE             d eps       ncg     rms          rms(c)
RMM:   1    -0.413159489334E+03    0.57887E-02   -0.10180E+01  4256   0.684E-01    0.898E-01
RMM:   2    -0.413167207356E+03   -0.77180E-02   -0.12269E-01  4226   0.947E-02    0.634E-01
RMM:   3    -0.413167414585E+03   -0.20723E-03   -0.11327E-02  5108   0.601E-02    0.238E-01
RMM:   4    -0.413201313719E+03   -0.33899E-01   -0.44680E-02  5129   0.177E-01    0.786E-01
RMM:   5    -0.413164940758E+03    0.36373E-01   -0.16016E-02  4769   0.130E-01    0.573E-02
RMM:   6    -0.413165053085E+03   -0.11233E-03   -0.27081E-03  5623   0.515E-02    0.283E-02
RMM:   7    -0.413165070894E+03   -0.17810E-04   -0.40198E-04  6030   0.170E-02    0.178E-02
RMM:   8    -0.413165068565E+03    0.23295E-05   -0.66976E-05  5256   0.861E-03    0.797E-03
RMM:   9    -0.413165064886E+03    0.36782E-05   -0.10852E-05  3553   0.376E-03    0.403E-03
RMM:  10    -0.413165064842E+03    0.44278E-07   -0.25371E-06  2616   0.225E-03
    7 T=    61. E= -.41286661E+03 F= -.41316506E+03 E0= -.41314262E+03  EK= 0.29846E+00 SP= 0.00E+00 SK= 0.00E+00
       N       E                     dE             d eps       ncg     rms          rms(c)
RMM:   1    -0.413159735474E+03    0.53294E-02   -0.10188E+01  4264   0.690E-01    0.882E-01
RMM:   2    -0.413168180359E+03   -0.84449E-02   -0.12468E-01  4186   0.934E-02    0.642E-01
RMM:   3    -0.413166727299E+03    0.14531E-02   -0.10372E-02  5048   0.513E-02    0.179E-01
RMM:   4    -0.413209025302E+03   -0.42298E-01   -0.47698E-02  5142   0.182E-01    0.858E-01
RMM:   5    -0.413165377217E+03    0.43648E-01   -0.20394E-02  4803   0.143E-01    0.528E-02
RMM:   6    -0.413165578461E+03   -0.20124E-03   -0.33158E-03  5744   0.565E-02    0.288E-02
RMM:   7    -0.413165597514E+03   -0.19052E-04   -0.46182E-04  5971   0.183E-02    0.194E-02
RMM:   8    -0.413165599650E+03   -0.21365E-05   -0.74037E-05  5248   0.866E-03    0.924E-03
RMM:   9    -0.413165599341E+03    0.30919E-06   -0.14532E-05  3969   0.418E-03    0.545E-03
RMM:  10    -0.413165602703E+03   -0.33620E-05   -0.26888E-06  2636   0.221E-03    0.367E-03
RMM:  11    -0.413165605836E+03   -0.31326E-05   -0.11940E-06  2519   0.170E-03    0.189E-03
RMM:  12    -0.413165609495E+03   -0.36591E-05   -0.12811E-06  2542   0.165E-03    0.596E-04
RMM:  13    -0.413165610779E+03   -0.12839E-05   -0.54034E-07  2257   0.116E-03    0.495E-04
RMM:  14    -0.413165610682E+03    0.96505E-07   -0.22242E-07  1687   0.809E-04
    8 T=    61. E= -.41286682E+03 F= -.41316561E+03 E0= -.41314318E+03  EK= 0.29879E+00 SP= 0.00E+00 SK= 0.00E+00
       N       E                     dE             d eps       ncg     rms          rms(c)
RMM:   1    -0.413160181488E+03    0.54293E-02   -0.10236E+01  4281   0.696E-01    0.898E-01
RMM:   2    -0.413168293013E+03   -0.81115E-02   -0.12422E-01  4201   0.961E-02    0.644E-01
RMM:   3    -0.413166117105E+03    0.21759E-02   -0.98681E-03  4832   0.423E-02    0.131E-01
RMM:   4    -0.413192569033E+03   -0.26452E-01   -0.27221E-02  5147   0.137E-01    0.679E-01
RMM:   5    -0.413165663466E+03    0.26906E-01   -0.13155E-02  4812   0.113E-01    0.433E-02
RMM:   6    -0.413165818903E+03   -0.15544E-03   -0.21458E-03  5778   0.450E-02    0.282E-02
RMM:   7    -0.413165819813E+03   -0.90979E-06   -0.33773E-04  5714   0.166E-02    0.177E-02
RMM:   8    -0.413165815586E+03    0.42268E-05   -0.52007E-05  4993   0.760E-03    0.821E-03
RMM:   9    -0.413165814264E+03    0.13225E-05   -0.10597E-05  3663   0.369E-03    0.616E-03
RMM:  10    -0.413165814993E+03   -0.72947E-06   -0.15248E-06  2551   0.197E-03
    9 T=    61. E= -.41286681E+03 F= -.41316581E+03 E0= -.41314341E+03  EK= 0.29900E+00 SP= 0.00E+00 SK= 0.00E+00
       N       E                     dE             d eps       ncg     rms          rms(c)
RMM:   1    -0.413160529912E+03    0.52844E-02   -0.10210E+01  4295   0.697E-01    0.905E-01
RMM:   2    -0.413167997755E+03   -0.74678E-02   -0.12273E-01  4266   0.952E-02    0.636E-01
RMM:   3    -0.413168452790E+03   -0.45504E-03   -0.11636E-02  5091   0.633E-02    0.247E-01
RMM:   4    -0.413200832911E+03   -0.32380E-01   -0.43948E-02  5117   0.176E-01    0.772E-01
RMM:   5    -0.413165775436E+03    0.35057E-01   -0.15314E-02  4760   0.128E-01    0.569E-02
RMM:   6    -0.413165877874E+03   -0.10244E-03   -0.26154E-03  5619   0.504E-02    0.286E-02
RMM:   7    -0.413165891544E+03   -0.13670E-04   -0.39235E-04  6017   0.168E-02    0.179E-02
RMM:   8    -0.413165887321E+03    0.42228E-05   -0.65911E-05  5245   0.857E-03    0.798E-03
RMM:   9    -0.413165882216E+03    0.51056E-05   -0.10587E-05  3528   0.374E-03    0.400E-03
RMM:  10    -0.413165880992E+03    0.12232E-05   -0.24849E-06  2610   0.224E-03    0.277E-03
RMM:  11    -0.413165879272E+03    0.17206E-05   -0.12260E-06  2517   0.175E-03    0.144E-03
RMM:  12    -0.413165877352E+03    0.19195E-05   -0.78886E-07  2479   0.139E-03    0.477E-04
RMM:  13    -0.413165876471E+03    0.88090E-06   -0.37331E-07  2060   0.991E-04
   10 T=    61. E= -.41286665E+03 F= -.41316588E+03 E0= -.41314349E+03  EK= 0.29923E+00 SP= 0.00E+00 SK= 0.00E+00
       N       E                     dE             d eps       ncg     rms          rms(c)
RMM:   1    -0.413160800864E+03    0.50765E-02   -0.10168E+01  4287   0.703E-01    0.882E-01
RMM:   2    -0.413169094159E+03   -0.82933E-02   -0.12415E-01  4228   0.953E-02    0.639E-01
RMM:   3    -0.413166984528E+03    0.21096E-02   -0.97310E-03  4885   0.435E-02    0.135E-01
RMM:   4    -0.413197501464E+03   -0.30517E-01   -0.31705E-02  5144   0.148E-01    0.728E-01
RMM:   5    -0.413166428311E+03    0.31073E-01   -0.15107E-02  4806   0.121E-01    0.448E-02
RMM:   6    -0.413166612102E+03   -0.18379E-03   -0.24677E-03  5787   0.480E-02    0.285E-02
RMM:   7    -0.413166618293E+03   -0.61911E-05   -0.36519E-04  5755   0.171E-02    0.182E-02
RMM:   8    -0.413166615423E+03    0.28701E-05   -0.59149E-05  5016   0.797E-03    0.871E-03
RMM:   9    -0.413166613970E+03    0.14531E-05   -0.12183E-05  3819   0.394E-03    0.634E-03
RMM:  10    -0.413166615177E+03   -0.12074E-05   -0.17195E-06  2562   0.202E-03    0.410E-03
RMM:  11    -0.413166616837E+03   -0.16600E-05   -0.15873E-06  2550   0.194E-03    0.183E-03
RMM:  12    -0.413166618162E+03   -0.13245E-05   -0.13138E-06  2530   0.170E-03    0.800E-04
RMM:  13    -0.413166618251E+03   -0.88705E-07   -0.38103E-07  2195   0.107E-03
   11 T=    61. E= -.41286689E+03 F= -.41316662E+03 E0= -.41314426E+03  EK= 0.29973E+00 SP= 0.00E+00 SK= 0.00E+00
       N       E                     dE             d eps       ncg     rms          rms(c)
RMM:   1    -0.413160893708E+03    0.57245E-02   -0.10241E+01  4293   0.708E-01    0.894E-01
RMM:   2    -0.413169057977E+03   -0.81643E-02   -0.12500E-01  4217   0.944E-02    0.646E-01
RMM:   3    -0.413166804374E+03    0.22536E-02   -0.98541E-03  4812   0.401E-02    0.125E-01
RMM:   4    -0.413190675470E+03   -0.23871E-01   -0.24539E-02  5141   0.130E-01    0.646E-01
RMM:   5    -0.413166431318E+03    0.24244E-01   -0.11876E-02  4813   0.107E-01    0.416E-02
RMM:   6    -0.413166579829E+03   -0.14851E-03   -0.19811E-03  5818   0.423E-02    0.264E-02
RMM:   7    -0.413166585351E+03   -0.55225E-05   -0.29496E-04  5715   0.159E-02    0.168E-02
RMM:   8    -0.413166581037E+03    0.43145E-05   -0.54222E-05  4946   0.773E-03    0.831E-03
RMM:   9    -0.413166579686E+03    0.13507E-05   -0.10928E-05  3738   0.379E-03    0.636E-03
RMM:  10    -0.413166580668E+03   -0.98201E-06   -0.14899E-06  2546   0.199E-03
   12 T=    61. E= -.41286658E+03 F= -.41316658E+03 E0= -.41314425E+03  EK= 0.30000E+00 SP= 0.00E+00 SK= 0.00E+00
       N       E                     dE             d eps       ncg     rms          rms(c)
RMM:   1    -0.413161945456E+03    0.46342E-02   -0.10240E+01  4306   0.709E-01    0.910E-01
RMM:   2    -0.413169012684E+03   -0.70672E-02   -0.12304E-01  4274   0.914E-02    0.639E-01
RMM:   3    -0.413169671002E+03   -0.65832E-03   -0.11756E-02  5109   0.610E-02    0.246E-01
RMM:   4    -0.413202496533E+03   -0.32826E-01   -0.44478E-02  5111   0.177E-01    0.777E-01
RMM:   5    -0.413166996944E+03    0.35500E-01   -0.15521E-02  4755   0.128E-01    0.568E-02
RMM:   6    -0.413167107384E+03   -0.11044E-03   -0.26471E-03  5626   0.507E-02    0.289E-02
RMM:   7    -0.413167118660E+03   -0.11276E-04   -0.39640E-04  6004   0.169E-02    0.182E-02
RMM:   8    -0.413167112620E+03    0.60401E-05   -0.66776E-05  5228   0.864E-03    0.811E-03
RMM:   9    -0.413167106503E+03    0.61175E-05   -0.10741E-05  3562   0.378E-03    0.408E-03
RMM:  10    -0.413167104295E+03    0.22079E-05   -0.24833E-06  2610   0.223E-03    0.283E-03
RMM:  11    -0.413167101530E+03    0.27648E-05   -0.11910E-06  2512   0.173E-03    0.145E-03
RMM:  12    -0.413167098525E+03    0.30047E-05   -0.77612E-07  2476   0.139E-03    0.473E-04
RMM:  13    -0.413167097151E+03    0.13741E-05   -0.37197E-07  2053   0.995E-04    0.306E-04
RMM:  14    -0.413167096038E+03    0.11129E-05   -0.21757E-07  1595   0.795E-04    0.209E-04
RMM:  15    -0.413167094168E+03    0.18707E-05   -0.19302E-07  1451   0.746E-04    0.104E-04
RMM:  16    -0.413167092252E+03    0.19158E-05   -0.16694E-07  1448   0.712E-04    0.123E-04
RMM:  17    -0.413167090534E+03    0.17173E-05   -0.12754E-07  1323   0.656E-04    0.671E-05
RMM:  18    -0.413167089103E+03    0.14310E-05   -0.92779E-08  1122   0.601E-04    0.281E-05
RMM:  19    -0.413167088601E+03    0.50275E-06   -0.43840E-08   858   0.542E-04
   13 T=    61. E= -.41286662E+03 F= -.41316709E+03 E0= -.41314479E+03  EK= 0.30047E+00 SP= 0.00E+00 SK= 0.00E+00
       N       E                     dE             d eps       ncg     rms          rms(c)
RMM:   1    -0.413162786310E+03    0.43028E-02   -0.10174E+01  4294   0.727E-01    0.886E-01
RMM:   2    -0.413170134468E+03   -0.73482E-02   -0.12386E-01  4237   0.923E-02    0.638E-01
RMM:   3    -0.413168298142E+03    0.18363E-02   -0.98481E-03  4934   0.429E-02    0.143E-01
RMM:   4    -0.413202341770E+03   -0.34044E-01   -0.35843E-02  5136   0.157E-01    0.768E-01
RMM:   5    -0.413167627335E+03    0.34714E-01   -0.16899E-02  4799   0.128E-01    0.470E-02
RMM:   6    -0.413167818092E+03   -0.19076E-03   -0.27155E-03  5761   0.506E-02    0.295E-02
RMM:   7    -0.413167819871E+03   -0.17792E-05   -0.39520E-04  5742   0.177E-02    0.188E-02
RMM:   8    -0.413167815100E+03    0.47711E-05   -0.63506E-05  5104   0.823E-03    0.900E-03
RMM:   9    -0.413167812094E+03    0.30061E-05   -0.13408E-05  3938   0.410E-03    0.633E-03
RMM:  10    -0.413167811982E+03    0.11170E-06   -0.18786E-06  2564   0.206E-03
   14 T=    61. E= -.41286676E+03 F= -.41316781E+03 E0= -.41314554E+03  EK= 0.30105E+00 SP= 0.00E+00 SK= 0.00E+00
       N       E                     dE             d eps       ncg     rms          rms(c)
RMM:   1    -0.413162241290E+03    0.55708E-02   -0.10253E+01  4301   0.723E-01    0.891E-01
RMM:   2    -0.413170626249E+03   -0.83850E-02   -0.12599E-01  4302   0.971E-02    0.649E-01
RMM:   3    -0.413171576203E+03   -0.94995E-03   -0.12714E-02  5114   0.702E-02    0.280E-01
RMM:   4    -0.413201944837E+03   -0.30369E-01   -0.46188E-02  5100   0.181E-01    0.761E-01
RMM:   5    -0.413167725037E+03    0.34220E-01   -0.14307E-02  4732   0.125E-01    0.571E-02
RMM:   6    -0.413167813629E+03   -0.88591E-04   -0.24671E-03  5614   0.489E-02    0.270E-02
RMM:   7    -0.413167833348E+03   -0.19720E-04   -0.37011E-04  6007   0.166E-02    0.173E-02
RMM:   8    -0.413167834419E+03   -0.10710E-05   -0.68636E-05  5223   0.877E-03    0.791E-03
RMM:   9    -0.413167832097E+03    0.23222E-05   -0.10750E-05  3545   0.384E-03    0.366E-03
RMM:  10    -0.413167833312E+03   -0.12145E-05   -0.23517E-06  2595   0.217E-03    0.247E-03
RMM:  11    -0.413167834713E+03   -0.14011E-05   -0.14087E-06  2520   0.183E-03    0.139E-03
RMM:  12    -0.413167835259E+03   -0.54581E-06   -0.73616E-07  2465   0.138E-03
   15 T=    61. E= -.41286643E+03 F= -.41316784E+03 E0= -.41314560E+03  EK= 0.30140E+00 SP= 0.00E+00 SK= 0.00E+00
       N       E                     dE             d eps       ncg     rms          rms(c)
RMM:   1    -0.413163938898E+03    0.38958E-02   -0.10267E+01  4304   0.731E-01    0.912E-01
RMM:   2    -0.413171167779E+03   -0.72289E-02   -0.12373E-01  4255   0.984E-02    0.642E-01
RMM:   3    -0.413169413382E+03    0.17544E-02   -0.10271E-02  4932   0.464E-02    0.153E-01
RMM:   4    -0.413205310253E+03   -0.35897E-01   -0.37951E-02  5135   0.162E-01    0.789E-01
RMM:   5    -0.413168658876E+03    0.36651E-01   -0.17701E-02  4794   0.131E-01    0.490E-02
RMM:   6    -0.413168871033E+03   -0.21216E-03   -0.30084E-03  5777   0.524E-02    0.311E-02
RMM:   7    -0.413168870368E+03    0.66488E-06   -0.42310E-04  5771   0.185E-02    0.201E-02
RMM:   8    -0.413168861027E+03    0.93411E-05   -0.69451E-05  5124   0.861E-03    0.993E-03
RMM:   9    -0.413168854627E+03    0.63999E-05   -0.14228E-05  4049   0.424E-03    0.696E-03
RMM:  10    -0.413168850980E+03    0.36466E-05   -0.20787E-06  2585   0.216E-03    0.446E-03
RMM:  11    -0.413168847519E+03    0.34609E-05   -0.14206E-06  2531   0.186E-03    0.228E-03
RMM:  12    -0.413168842317E+03    0.52022E-05   -0.15912E-06  2554   0.192E-03    0.859E-04
RMM:  13    -0.413168840880E+03    0.14368E-05   -0.48586E-07  2318   0.123E-03    0.611E-04
RMM:  14    -0.413168840851E+03    0.29355E-07   -0.21991E-07  1834   0.831E-04
   16 T=    61. E= -.41286682E+03 F= -.41316884E+03 E0= -.41314664E+03  EK= 0.30202E+00 SP= 0.00E+00 SK= 0.00E+00
       N       E                     dE             d eps       ncg     rms          rms(c)
RMM:   1    -0.413163763645E+03    0.50772E-02   -0.10179E+01  4297   0.723E-01    0.892E-01
RMM:   2    -0.413171766188E+03   -0.80025E-02   -0.12376E-01  4261   0.974E-02    0.638E-01
RMM:   3    -0.413169621794E+03    0.21444E-02   -0.97941E-03  4817   0.449E-02    0.137E-01
RMM:   4    -0.413198443410E+03   -0.28822E-01   -0.29745E-02  5135   0.143E-01    0.708E-01
RMM:   5    -0.413169128905E+03    0.29315E-01   -0.14339E-02  4801   0.118E-01    0.449E-02
RMM:   6    -0.413169310552E+03   -0.18165E-03   -0.24316E-03  5797   0.467E-02    0.292E-02
RMM:   7    -0.413169310614E+03   -0.61933E-07   -0.35762E-04  5686   0.173E-02    0.184E-02
RMM:   8    -0.413169302447E+03    0.81670E-05   -0.59156E-05  5003   0.808E-03    0.893E-03
RMM:   9    -0.413169297977E+03    0.44702E-05   -0.12567E-05  3860   0.398E-03    0.663E-03
RMM:  10    -0.413169295883E+03    0.20938E-05   -0.16542E-06  2550   0.204E-03    0.426E-03
RMM:  11    -0.413169293278E+03    0.26051E-05   -0.15479E-06  2537   0.195E-03    0.195E-03
RMM:  12    -0.413169290298E+03    0.29794E-05   -0.12894E-06  2517   0.174E-03    0.790E-04
RMM:  13    -0.413169289807E+03    0.49088E-06   -0.38482E-07  2205   0.109E-03
   17 T=    62. E= -.41286675E+03 F= -.41316929E+03 E0= -.41314713E+03  EK= 0.30254E+00 SP= 0.00E+00 SK= 0.00E+00
       N       E                     dE             d eps       ncg     rms          rms(c)
RMM:   1    -0.413164134050E+03    0.51562E-02   -0.10253E+01  4299   0.732E-01    0.889E-01
RMM:   2    -0.413172511555E+03   -0.83775E-02   -0.12621E-01  4275   0.965E-02    0.649E-01
RMM:   3    -0.413170091032E+03    0.24205E-02   -0.10177E-02  4825   0.451E-02    0.128E-01
RMM:   4    -0.413199024613E+03   -0.28934E-01   -0.30020E-02  5134   0.144E-01    0.709E-01
RMM:   5    -0.413169576268E+03    0.29448E-01   -0.14484E-02  4805   0.118E-01    0.438E-02
RMM:   6    -0.413169747977E+03   -0.17171E-03   -0.23451E-03  5814   0.463E-02    0.277E-02
RMM:   7    -0.413169754584E+03   -0.66063E-05   -0.33529E-04  5729   0.168E-02    0.176E-02
RMM:   8    -0.413169750480E+03    0.41038E-05   -0.61645E-05  5005   0.812E-03    0.886E-03
RMM:   9    -0.413169747833E+03    0.26464E-05   -0.12974E-05  3960   0.407E-03    0.651E-03
RMM:  10    -0.413169748045E+03   -0.21129E-06   -0.16901E-06  2557   0.203E-03
   18 T=    62. E= -.41286658E+03 F= -.41316975E+03 E0= -.41314763E+03  EK= 0.30317E+00 SP= 0.00E+00 SK= 0.00E+00
       N       E                     dE             d eps       ncg     rms          rms(c)
RMM:   1    -0.413165783212E+03    0.39646E-02   -0.10284E+01  4305   0.733E-01    0.911E-01
RMM:   2    -0.413173214699E+03   -0.74315E-02   -0.12473E-01  4310   0.962E-02    0.646E-01
RMM:   3    -0.413174257119E+03   -0.10424E-02   -0.12482E-02  5099   0.665E-02    0.269E-01
RMM:   4    -0.413204681266E+03   -0.30424E-01   -0.44702E-02  5097   0.177E-01    0.758E-01
RMM:   5    -0.413170911803E+03    0.33769E-01   -0.14439E-02  4732   0.125E-01    0.567E-02
RMM:   6    -0.413171011180E+03   -0.99377E-04   -0.24971E-03  5615   0.490E-02    0.287E-02
RMM:   7    -0.413171020850E+03   -0.96701E-05   -0.37772E-04  5999   0.167E-02    0.182E-02
RMM:   8    -0.413171014667E+03    0.61829E-05   -0.67057E-05  5201   0.870E-03    0.808E-03
RMM:   9    -0.413171007591E+03    0.70757E-05   -0.10632E-05  3571   0.382E-03    0.390E-03
RMM:  10    -0.413171004935E+03    0.26560E-05   -0.23532E-06  2591   0.221E-03    0.268E-03
RMM:  11    -0.413171001113E+03    0.38227E-05   -0.11978E-06  2513   0.175E-03    0.142E-03
RMM:  12    -0.413170997378E+03    0.37351E-05   -0.68609E-07  2448   0.137E-03    0.457E-04
RMM:  13    -0.413170995533E+03    0.18442E-05   -0.33862E-07  2042   0.971E-04    0.294E-04
RMM:  14    -0.413170994024E+03    0.15093E-05   -0.19516E-07  1533   0.778E-04    0.204E-04
RMM:  15    -0.413170991346E+03    0.26779E-05   -0.16796E-07  1393   0.733E-04    0.979E-05
RMM:  16    -0.413170989046E+03    0.23002E-05   -0.13071E-07  1348   0.689E-04    0.105E-04
RMM:  17    -0.413170986452E+03    0.25936E-05   -0.11697E-07  1354   0.659E-04    0.600E-05
RMM:  18    -0.413170984812E+03    0.16403E-05   -0.70501E-08  1060   0.580E-04    0.278E-05
RMM:  19    -0.413170984108E+03    0.70419E-06   -0.36133E-08   843   0.540E-04
   19 T=    62. E= -.41286690E+03 F= -.41317098E+03 E0= -.41314891E+03  EK= 0.30409E+00 SP= 0.00E+00 SK= 0.00E+00
       N       E                     dE             d eps       ncg     rms          rms(c)
RMM:   1    -0.413166057689E+03    0.49271E-02   -0.10222E+01  4297   0.734E-01    0.900E-01
RMM:   2    -0.413173490346E+03   -0.74327E-02   -0.12411E-01  4266   0.956E-02    0.639E-01
RMM:   3    -0.413171960319E+03    0.15300E-02   -0.10172E-02  4958   0.454E-02    0.155E-01
RMM:   4    -0.413209116316E+03   -0.37156E-01   -0.39695E-02  5137   0.165E-01    0.802E-01
RMM:   5    -0.413171158172E+03    0.37958E-01   -0.18452E-02  4793   0.134E-01    0.495E-02
RMM:   6    -0.413171357006E+03   -0.19883E-03   -0.30308E-03  5771   0.530E-02    0.313E-02
RMM:   7    -0.413171355344E+03    0.16622E-05   -0.43554E-04  5743   0.186E-02    0.200E-02
RMM:   8    -0.413171346372E+03    0.89719E-05   -0.70797E-05  5172   0.869E-03    0.976E-03
RMM:   9    -0.413171339765E+03    0.66067E-05   -0.14952E-05  4118   0.431E-03    0.667E-03
RMM:  10    -0.413171336267E+03    0.34982E-05   -0.21374E-06  2585   0.214E-03    0.432E-03
RMM:  11    -0.413171333068E+03    0.31988E-05   -0.12423E-06  2511   0.177E-03    0.224E-03
RMM:  12    -0.413171328279E+03    0.47891E-05   -0.14316E-06  2531   0.185E-03    0.821E-04
RMM:  13    -0.413171326706E+03    0.15728E-05   -0.47223E-07  2315   0.122E-03    0.604E-04
RMM:  14    -0.413171326777E+03   -0.70631E-07   -0.21771E-07  1828   0.824E-04
   20 T=    62. E= -.41286657E+03 F= -.41317133E+03 E0= -.41314929E+03  EK= 0.30475E+00 SP= 0.00E+00 SK= 0.00E+00
       N       E                     dE             d eps       ncg     rms          rms(c)
RMM:   1    -0.413167097110E+03    0.42296E-02   -0.10269E+01  4297   0.752E-01    0.889E-01
RMM:   2    -0.413175302153E+03   -0.82050E-02   -0.12776E-01  4276   0.977E-02    0.650E-01
RMM:   3    -0.413172759299E+03    0.25429E-02   -0.10178E-02  4859   0.430E-02    0.127E-01
RMM:   4    -0.413200020193E+03   -0.27261E-01   -0.28273E-02  5138   0.140E-01    0.689E-01
RMM:   5    -0.413172286733E+03    0.27733E-01   -0.13653E-02  4802   0.114E-01    0.436E-02
RMM:   6    -0.413172447293E+03   -0.16056E-03   -0.22723E-03  5821   0.449E-02    0.275E-02
RMM:   7    -0.413172451390E+03   -0.40961E-05   -0.31970E-04  5709   0.166E-02    0.172E-02
RMM:   8    -0.413172446373E+03    0.50168E-05   -0.62416E-05  4998   0.815E-03    0.904E-03
RMM:   9    -0.413172442515E+03    0.38574E-05   -0.12774E-05  3981   0.409E-03    0.664E-03
RMM:  10    -0.413172441909E+03    0.60640E-06   -0.16240E-06  2554   0.202E-03
   21 T=    62. E= -.41286672E+03 F= -.41317244E+03 E0= -.41315045E+03  EK= 0.30572E+00 SP= 0.00E+00 SK= 0.00E+00
       N       E                     dE             d eps       ncg     rms          rms(c)
RMM:   1    -0.413168465509E+03    0.39770E-02   -0.10319E+01  4293   0.755E-01    0.909E-01
RMM:   2    -0.413176055282E+03   -0.75898E-02   -0.12597E-01  4305   0.987E-02    0.650E-01
RMM:   3    -0.413176397914E+03   -0.34263E-03   -0.12307E-02  5079   0.648E-02    0.255E-01
RMM:   4    -0.413210379679E+03   -0.33982E-01   -0.47149E-02  5106   0.182E-01    0.791E-01
RMM:   5    -0.413173394048E+03    0.36986E-01   -0.16198E-02  4751   0.131E-01    0.564E-02
RMM:   6    -0.413173518013E+03   -0.12396E-03   -0.27554E-03  5646   0.514E-02    0.291E-02
RMM:   7    -0.413173523430E+03   -0.54175E-05   -0.40067E-04  5970   0.173E-02    0.187E-02
RMM:   8    -0.413173517284E+03    0.61460E-05   -0.70159E-05  5191   0.887E-03    0.839E-03
RMM:   9    -0.413173510256E+03    0.70287E-05   -0.12034E-05  3692   0.400E-03    0.416E-03
RMM:  10    -0.413173507566E+03    0.26895E-05   -0.25612E-06  2615   0.225E-03    0.289E-03
RMM:  11    -0.413173504067E+03    0.34991E-05   -0.11070E-06  2499   0.171E-03    0.147E-03
RMM:  12    -0.413173500096E+03    0.39708E-05   -0.72549E-07  2461   0.138E-03    0.448E-04
RMM:  13    -0.413173498011E+03    0.20856E-05   -0.35241E-07  2052   0.990E-04    0.287E-04
RMM:  14    -0.413173496644E+03    0.13671E-05   -0.19335E-07  1557   0.776E-04    0.184E-04
RMM:  15    -0.413173493915E+03    0.27281E-05   -0.15586E-07  1360   0.726E-04    0.101E-04
RMM:  16    -0.413173491584E+03    0.23314E-05   -0.11807E-07  1305   0.680E-04    0.118E-04
RMM:  17    -0.413173489762E+03    0.18223E-05   -0.84310E-08  1191   0.630E-04    0.696E-05
RMM:  18    -0.413173487423E+03    0.23385E-05   -0.77176E-08  1190   0.615E-04    0.419E-05
RMM:  19    -0.413173486496E+03    0.92710E-06   -0.37744E-08   899   0.553E-04
   22 T=    62. E= -.41286678E+03 F= -.41317349E+03 E0= -.41315154E+03  EK= 0.30671E+00 SP= 0.00E+00 SK= 0.00E+00
       N       E                     dE             d eps       ncg     rms          rms(c)
RMM:   1    -0.413169002465E+03    0.44850E-02   -0.10284E+01  4295   0.748E-01    0.910E-01
RMM:   2    -0.413176649908E+03   -0.76474E-02   -0.12509E-01  4277   0.100E-01    0.643E-01
RMM:   3    -0.413174687651E+03    0.19623E-02   -0.10405E-02  4878   0.479E-02    0.150E-01
RMM:   4    -0.413209388359E+03   -0.34701E-01   -0.36496E-02  5136   0.158E-01    0.775E-01
RMM:   5    -0.413174028351E+03    0.35360E-01   -0.17304E-02  4791   0.129E-01    0.486E-02
RMM:   6    -0.413174224662E+03   -0.19631E-03   -0.29264E-03  5788   0.514E-02    0.314E-02
RMM:   7    -0.413174222462E+03    0.21995E-05   -0.41060E-04  5710   0.185E-02    0.198E-02
RMM:   8    -0.413174212157E+03    0.10305E-04   -0.72856E-05  5133   0.879E-03    0.102E-02
RMM:   9    -0.413174204231E+03    0.79257E-05   -0.14988E-05  4161   0.439E-03    0.715E-03
RMM:  10    -0.413174199560E+03    0.46713E-05   -0.20717E-06  2572   0.217E-03    0.460E-03
RMM:  11    -0.413174195084E+03    0.44759E-05   -0.14013E-06  2521   0.187E-03    0.238E-03
RMM:  12    -0.413174188676E+03    0.64082E-05   -0.15355E-06  2528   0.193E-03    0.871E-04
RMM:  13    -0.413174186776E+03    0.19001E-05   -0.48594E-07  2324   0.124E-03    0.613E-04
RMM:  14    -0.413174186776E+03   -0.30559E-09   -0.22735E-07  1848   0.841E-04
   23 T=    63. E= -.41286659E+03 F= -.41317419E+03 E0= -.41315229E+03  EK= 0.30759E+00 SP= 0.00E+00 SK= 0.00E+00
       N       E                     dE             d eps       ncg     rms          rms(c)
RMM:   1    -0.413171614749E+03    0.25720E-02   -0.10299E+01  4296   0.790E-01    0.892E-01
RMM:   2    -0.413178789957E+03   -0.71752E-02   -0.12756E-01  4280   0.103E-01    0.650E-01
RMM:   3    -0.413175989691E+03    0.28003E-02   -0.10236E-02  4724   0.458E-02    0.124E-01
RMM:   4    -0.413199372848E+03   -0.23383E-01   -0.23951E-02  5135   0.129E-01    0.639E-01
RMM:   5    -0.413175631893E+03    0.23741E-01   -0.11777E-02  4803   0.106E-01    0.422E-02
RMM:   6    -0.413175759843E+03   -0.12795E-03   -0.19602E-03  5824   0.415E-02    0.265E-02
RMM:   7    -0.413175762470E+03   -0.26276E-05   -0.26333E-04  5683   0.155E-02    0.152E-02
RMM:   8    -0.413175757926E+03    0.45442E-05   -0.57516E-05  4981   0.778E-03    0.895E-03
RMM:   9    -0.413175753080E+03    0.48462E-05   -0.11662E-05  3952   0.399E-03    0.660E-03
RMM:  10    -0.413175751483E+03    0.15964E-05   -0.15286E-06  2546   0.203E-03    0.421E-03
RMM:  11    -0.413175749238E+03    0.22452E-05   -0.15679E-06  2524   0.202E-03    0.196E-03
RMM:  12    -0.413175746647E+03    0.25907E-05   -0.11047E-06  2475   0.167E-03    0.680E-04
RMM:  13    -0.413175746050E+03    0.59789E-06   -0.36830E-07  2149   0.105E-03
   24 T=    63. E= -.41286691E+03 F= -.41317575E+03 E0= -.41315390E+03  EK= 0.30884E+00 SP= 0.00E+00 SK= 0.00E+00
       N       E                     dE             d eps       ncg     rms          rms(c)
RMM:   1    -0.413177170200E+03   -0.14236E-02   -0.10419E+01  4296   0.819E-01    0.905E-01
RMM:   2    -0.413179722295E+03   -0.25521E-02   -0.13957E-01  4275   0.107E-01    0.657E-01
RMM:   3    -0.413176888547E+03    0.28337E-02   -0.98208E-03  4654   0.430E-02    0.135E-01
RMM:   4    -0.413193351190E+03   -0.16463E-01   -0.16909E-02  5142   0.108E-01    0.538E-01
RMM:   5    -0.413176684649E+03    0.16667E-01   -0.82951E-03  4816   0.885E-02    0.397E-02
RMM:   6    -0.413176757705E+03   -0.73057E-04   -0.13839E-03  5832   0.343E-02    0.233E-02
RMM:   7    -0.413176756864E+03    0.84162E-06   -0.16116E-04  5585   0.126E-02    0.109E-02
RMM:   8    -0.413176749726E+03    0.71381E-05   -0.29875E-05  4734   0.569E-03    0.712E-03
RMM:   9    -0.413176748991E+03    0.73448E-06   -0.78740E-06  3465   0.321E-03
   25 T=    63. E= -.41286670E+03 F= -.41317675E+03 E0= -.41315495E+03  EK= 0.31005E+00 SP= 0.00E+00 SK= 0.00E+00
       N       E                     dE             d eps       ncg     rms          rms(c)
RMM:   1    -0.413173177933E+03    0.35718E-02   -0.10368E+01  4295   0.765E-01    0.920E-01
RMM:   2    -0.413180414359E+03   -0.72364E-02   -0.12627E-01  4348   0.101E-01    0.649E-01
RMM:   3    -0.413185658952E+03   -0.52446E-02   -0.16414E-02  5126   0.906E-02    0.387E-01
RMM:   4    -0.413198240159E+03   -0.12581E-01   -0.37069E-02  5057   0.165E-01    0.589E-01
RMM:   5    -0.413178140851E+03    0.20099E-01   -0.71704E-03  4642   0.967E-02    0.545E-02
RMM:   6    -0.413178126241E+03    0.14610E-04   -0.14928E-03  5491   0.372E-02    0.293E-02
RMM:   7    -0.413178121714E+03    0.45269E-05   -0.26810E-04  5914   0.155E-02    0.178E-02
RMM:   8    -0.413178110979E+03    0.10735E-04   -0.58269E-05  5078   0.855E-03    0.726E-03
RMM:   9    -0.413178101351E+03    0.96286E-05   -0.80356E-06  3439   0.371E-03    0.361E-03
RMM:  10    -0.413178097547E+03    0.38035E-05   -0.13524E-06  2518   0.198E-03    0.225E-03
RMM:  11    -0.413178089796E+03    0.77508E-05   -0.11224E-06  2500   0.171E-03    0.140E-03
RMM:  12    -0.413178084706E+03    0.50906E-05   -0.51430E-07  2413   0.125E-03    0.479E-04
RMM:  13    -0.413178080716E+03    0.39898E-05   -0.25654E-07  1846   0.874E-04    0.261E-04
RMM:  14    -0.413178076971E+03    0.37450E-05   -0.15090E-07  1389   0.720E-04    0.161E-04
RMM:  15    -0.413178072469E+03    0.45022E-05   -0.12414E-07  1300   0.689E-04    0.110E-04
RMM:  16    -0.413178068477E+03    0.39912E-05   -0.10634E-07  1338   0.662E-04    0.112E-04
RMM:  17    -0.413178064004E+03    0.44736E-05   -0.10522E-07  1341   0.645E-04    0.554E-05
RMM:  18    -0.413178062625E+03    0.13790E-05   -0.44277E-08   891   0.541E-04    0.393E-05
RMM:  19    -0.413178061995E+03    0.62946E-06   -0.24283E-08   762   0.518E-04
   26 T=    63. E= -.41286666E+03 F= -.41317806E+03 E0= -.41315631E+03  EK= 0.31141E+00 SP= 0.00E+00 SK= 0.00E+00
       N       E                     dE             d eps       ncg     rms          rms(c)
RMM:   1    -0.413174587498E+03    0.34751E-02   -0.10332E+01  4291   0.783E-01    0.897E-01
RMM:   2    -0.413182422278E+03   -0.78348E-02   -0.12788E-01  4281   0.101E-01    0.651E-01
RMM:   3    -0.413180238513E+03    0.21838E-02   -0.10498E-02  4821   0.479E-02    0.135E-01
RMM:   4    -0.413210259905E+03   -0.30021E-01   -0.31045E-02  5141   0.147E-01    0.722E-01
RMM:   5    -0.413179727263E+03    0.30533E-01   -0.15166E-02  4796   0.120E-01    0.455E-02
RMM:   6    -0.413179881434E+03   -0.15417E-03   -0.24770E-03  5811   0.476E-02    0.291E-02
RMM:   7    -0.413179881727E+03   -0.29274E-06   -0.34574E-04  5718   0.173E-02    0.177E-02
RMM:   8    -0.413179875109E+03    0.66174E-05   -0.69115E-05  5048   0.851E-03    0.977E-03
RMM:   9    -0.413179868983E+03    0.61261E-05   -0.14142E-05  4136   0.432E-03    0.693E-03
RMM:  10    -0.413179866395E+03    0.25879E-05   -0.18545E-06  2571   0.211E-03    0.445E-03
RMM:  11    -0.413179863609E+03    0.27861E-05   -0.14757E-06  2519   0.194E-03    0.218E-03
RMM:  12    -0.413179860045E+03    0.35637E-05   -0.13215E-06  2505   0.180E-03    0.776E-04
RMM:  13    -0.413179859069E+03    0.97606E-06   -0.41657E-07  2247   0.115E-03
   27 T=    64. E= -.41286691E+03 F= -.41317986E+03 E0= -.41315816E+03  EK= 0.31295E+00 SP= 0.00E+00 SK= 0.00E+00
       N       E                     dE             d eps       ncg     rms          rms(c)
RMM:   1    -0.413176780422E+03    0.30796E-02   -0.10447E+01  4296   0.809E-01    0.907E-01
RMM:   2    -0.413183781463E+03   -0.70010E-02   -0.13185E-01  4276   0.107E-01    0.661E-01
RMM:   3    -0.413181204622E+03    0.25768E-02   -0.10691E-02  4672   0.456E-02    0.120E-01
RMM:   4    -0.413198164510E+03   -0.16960E-01   -0.17292E-02  5142   0.110E-01    0.546E-01
RMM:   5    -0.413180988562E+03    0.17176E-01   -0.85937E-03  4821   0.899E-02    0.398E-02
RMM:   6    -0.413181052246E+03   -0.63683E-04   -0.13885E-03  5836   0.351E-02    0.234E-02
RMM:   7    -0.413181052386E+03   -0.14083E-06   -0.17613E-04  5609   0.130E-02    0.116E-02
RMM:   8    -0.413181044450E+03    0.79364E-05   -0.33715E-05  4783   0.606E-03    0.741E-03
RMM:   9    -0.413181043579E+03    0.87060E-06   -0.86233E-06  3637   0.342E-03
   28 T=    64. E= -.41286658E+03 F= -.41318104E+03 E0= -.41315940E+03  EK= 0.31447E+00 SP= 0.00E+00 SK= 0.00E+00
       N       E                     dE             d eps       ncg     rms          rms(c)
RMM:   1    -0.413178220937E+03    0.28235E-02   -0.10468E+01  4293   0.789E-01    0.928E-01
RMM:   2    -0.413185405437E+03   -0.71845E-02   -0.12851E-01  4342   0.104E-01    0.655E-01
RMM:   3    -0.413188722930E+03   -0.33175E-02   -0.15253E-02  5097   0.860E-02    0.341E-01
RMM:   4    -0.413208740340E+03   -0.20017E-01   -0.39856E-02  5065   0.171E-01    0.663E-01
RMM:   5    -0.413183015511E+03    0.25725E-01   -0.98990E-03  4693   0.109E-01    0.552E-02
RMM:   6    -0.413183058475E+03   -0.42964E-04   -0.19759E-03  5628   0.429E-02    0.302E-02
RMM:   7    -0.413183054724E+03    0.37508E-05   -0.31877E-04  5918   0.164E-02    0.189E-02
RMM:   8    -0.413183044802E+03    0.99224E-05   -0.65672E-05  5080   0.899E-03    0.803E-03
RMM:   9    -0.413183034479E+03    0.10323E-04   -0.99011E-06  3644   0.396E-03    0.388E-03
RMM:  10    -0.413183029963E+03    0.45162E-05   -0.18183E-06  2560   0.210E-03    0.250E-03
RMM:  11    -0.413183022219E+03    0.77432E-05   -0.11852E-06  2508   0.175E-03    0.140E-03
RMM:  12    -0.413183015926E+03    0.62932E-05   -0.59421E-07  2431   0.131E-03    0.487E-04
RMM:  13    -0.413183012003E+03    0.39237E-05   -0.29754E-07  1963   0.926E-04    0.263E-04
RMM:  14    -0.413183008936E+03    0.30666E-05   -0.16765E-07  1440   0.748E-04    0.182E-04
RMM:  15    -0.413183002960E+03    0.59756E-05   -0.15059E-07  1418   0.728E-04    0.127E-04
RMM:  16    -0.413182999333E+03    0.36276E-05   -0.10543E-07  1314   0.661E-04    0.118E-04
RMM:  17    -0.413182994707E+03    0.46256E-05   -0.10176E-07  1343   0.653E-04    0.605E-05
RMM:  18    -0.413182992868E+03    0.18392E-05   -0.50753E-08   962   0.569E-04    0.417E-05
RMM:  19    -0.413182992134E+03    0.73340E-06   -0.28987E-08   808   0.539E-04
   29 T=    64. E= -.41286671E+03 F= -.41318299E+03 E0= -.41316139E+03  EK= 0.31629E+00 SP= 0.00E+00 SK= 0.00E+00
       N       E                     dE             d eps       ncg     rms          rms(c)
RMM:   1    -0.413179756614E+03    0.32363E-02   -0.10416E+01  4287   0.800E-01    0.907E-01
RMM:   2    -0.413187789242E+03   -0.80326E-02   -0.12972E-01  4265   0.112E-01    0.654E-01
RMM:   3    -0.413185001267E+03    0.27880E-02   -0.10740E-02  4513   0.498E-02    0.121E-01
RMM:   4    -0.413196543868E+03   -0.11543E-01   -0.11817E-02  5151   0.916E-02    0.452E-01
RMM:   5    -0.413184886980E+03    0.11657E-01   -0.58869E-03  4822   0.744E-02    0.386E-02
RMM:   6    -0.413184929827E+03   -0.42848E-04   -0.99892E-04  5837   0.298E-02    0.236E-02
RMM:   7    -0.413184932453E+03   -0.26260E-05   -0.21297E-04  5469   0.145E-02    0.154E-02
RMM:   8    -0.413184916308E+03    0.16145E-04   -0.30421E-05  4659   0.649E-03    0.686E-03
RMM:   9    -0.413184914255E+03    0.20531E-05   -0.58646E-06  3109   0.301E-03    0.520E-03
RMM:  10    -0.413184910791E+03    0.34637E-05   -0.13097E-06  2497   0.198E-03    0.292E-03
RMM:  11    -0.413184907184E+03    0.36069E-05   -0.85027E-07  2472   0.157E-03    0.147E-03
RMM:  12    -0.413184903378E+03    0.38060E-05   -0.58945E-07  2388   0.127E-03    0.719E-04
RMM:  13    -0.413184901902E+03    0.14757E-05   -0.24616E-07  1931   0.880E-04    0.324E-04
RMM:  14    -0.413184900388E+03    0.15140E-05   -0.12896E-07  1334   0.697E-04    0.205E-04
RMM:  15    -0.413184897568E+03    0.28207E-05   -0.97953E-08  1256   0.672E-04    0.848E-05
RMM:  16    -0.413184896087E+03    0.14803E-05   -0.54236E-08   976   0.613E-04    0.741E-05
RMM:  17    -0.413184894335E+03    0.17529E-05   -0.45533E-08   981   0.602E-04    0.579E-05
RMM:  18    -0.413184891699E+03    0.26356E-05   -0.51884E-08  1091   0.606E-04    0.350E-05
RMM:  19    -0.413184891145E+03    0.55426E-06   -0.19134E-08   757   0.540E-04
   30 T=    65. E= -.41286683E+03 F= -.41318489E+03 E0= -.41316334E+03  EK= 0.31806E+00 SP= 0.00E+00 SK= 0.00E+00
       N       E                     dE             d eps       ncg     rms          rms(c)
RMM:   1    -0.413184213629E+03    0.67807E-03   -0.10559E+01  4291   0.849E-01    0.909E-01
RMM:   2    -0.413190062918E+03   -0.58493E-02   -0.13925E-01  4282   0.123E-01    0.668E-01
RMM:   3    -0.413186450553E+03    0.36124E-02   -0.10935E-02  4364   0.544E-02    0.117E-01
RMM:   4    -0.413190994805E+03   -0.45443E-02   -0.50823E-03  5150   0.602E-02    0.284E-01
RMM:   5    -0.413186473366E+03    0.45214E-02   -0.22958E-03  4821   0.468E-02    0.357E-02
RMM:   6    -0.413186490357E+03   -0.16991E-04   -0.50315E-04  5757   0.216E-02    0.238E-02
RMM:   7    -0.413186480974E+03    0.93833E-05   -0.19703E-04  5226   0.140E-02    0.145E-02
RMM:   8    -0.413186471262E+03    0.97127E-05   -0.14778E-05  4048   0.513E-03    0.605E-03
RMM:   9    -0.413186470184E+03    0.10780E-05   -0.23955E-06  2609   0.214E-03    0.382E-03
RMM:  10    -0.413186468104E+03    0.20797E-05   -0.11602E-06  2481   0.171E-03    0.196E-03
RMM:  11    -0.413186466402E+03    0.17016E-05   -0.64432E-07  2381   0.130E-03    0.927E-04
RMM:  12    -0.413186464654E+03    0.17479E-05   -0.35384E-07  2072   0.986E-04    0.400E-04
RMM:  13    -0.413186463421E+03    0.12330E-05   -0.17620E-07  1462   0.754E-04    0.230E-04
RMM:  14    -0.413186461931E+03    0.14904E-05   -0.11029E-07  1176   0.675E-04    0.159E-04
RMM:  15    -0.413186459527E+03    0.24035E-05   -0.98683E-08  1154   0.662E-04    0.729E-05
RMM:  16    -0.413186458724E+03    0.80287E-06   -0.46854E-08   908   0.594E-04
   31 T=    65. E= -.41286660E+03 F= -.41318646E+03 E0= -.41316496E+03  EK= 0.31986E+00 SP= 0.00E+00 SK= 0.00E+00
       N       E                     dE             d eps       ncg     rms          rms(c)
RMM:   1    -0.413185340324E+03    0.11192E-02   -0.10589E+01  4291   0.836E-01    0.934E-01
RMM:   2    -0.413192020651E+03   -0.66803E-02   -0.13215E-01  4284   0.126E-01    0.663E-01
RMM:   3    -0.413189071170E+03    0.29495E-02   -0.11295E-02  4273   0.543E-02    0.120E-01
RMM:   4    -0.413189544185E+03   -0.47301E-03   -0.12496E-03  5020   0.277E-02    0.897E-02
RMM:   5    -0.413189154245E+03    0.38994E-03   -0.26343E-04  4780   0.164E-02    0.384E-02
RMM:   6    -0.413189155893E+03   -0.16475E-05   -0.27526E-04  5321   0.166E-02    0.270E-02
RMM:   7    -0.413189119443E+03    0.36449E-04   -0.16723E-04  4826   0.131E-02    0.147E-02
RMM:   8    -0.413189115367E+03    0.40757E-05   -0.16868E-05  4103   0.471E-03    0.528E-03
RMM:   9    -0.413189113760E+03    0.16070E-05   -0.26368E-06  2469   0.204E-03    0.224E-03
RMM:  10    -0.413189104988E+03    0.87726E-05   -0.95401E-07  2393   0.151E-03    0.850E-04
RMM:  11    -0.413189100447E+03    0.45410E-05   -0.29843E-07  1917   0.905E-04    0.407E-04
RMM:  12    -0.413189097203E+03    0.32437E-05   -0.17330E-07  1595   0.759E-04    0.239E-04
RMM:  13    -0.413189093454E+03    0.37493E-05   -0.11500E-07  1290   0.681E-04    0.126E-04
RMM:  14    -0.413189088425E+03    0.50284E-05   -0.84804E-08  1128   0.645E-04    0.898E-05
RMM:  15    -0.413189085207E+03    0.32186E-05   -0.49336E-08   939   0.591E-04    0.613E-05
RMM:  16    -0.413189081434E+03    0.37732E-05   -0.53429E-08  1032   0.592E-04    0.508E-05
RMM:  17    -0.413189080700E+03    0.73305E-06   -0.17131E-08   629   0.516E-04
   32 T=    66. E= -.41286695E+03 F= -.41318908E+03 E0= -.41316763E+03  EK= 0.32213E+00 SP= 0.00E+00 SK= 0.00E+00
       N       E                     dE             d eps       ncg     rms          rms(c)
RMM:   1    -0.413186334558E+03    0.27469E-02   -0.10542E+01  4283   0.838E-01    0.920E-01
RMM:   2    -0.413193971625E+03   -0.76371E-02   -0.13308E-01  4273   0.127E-01    0.659E-01
RMM:   3    -0.413191033696E+03    0.29379E-02   -0.11006E-02  4285   0.517E-02    0.121E-01
RMM:   4    -0.413192341214E+03   -0.13075E-02   -0.20030E-03  5105   0.376E-02    0.151E-01
RMM:   5    -0.413191131086E+03    0.12101E-02   -0.64197E-04  4795   0.256E-02    0.367E-02
RMM:   6    -0.413191132379E+03   -0.12930E-05   -0.30390E-04  5499   0.177E-02    0.264E-02
RMM:   7    -0.413191104789E+03    0.27590E-04   -0.18339E-04  4948   0.130E-02    0.155E-02
RMM:   8    -0.413191098437E+03    0.63524E-05   -0.16415E-05  4103   0.485E-03    0.589E-03
RMM:   9    -0.413191096904E+03    0.15331E-05   -0.26936E-06  2503   0.205E-03    0.273E-03
RMM:  10    -0.413191091144E+03    0.57606E-05   -0.86051E-07  2388   0.148E-03    0.134E-03
RMM:  11    -0.413191087110E+03    0.40340E-05   -0.40383E-07  2039   0.102E-03    0.581E-04
RMM:  12    -0.413191082784E+03    0.43258E-05   -0.24296E-07  1769   0.840E-04    0.229E-04
RMM:  13    -0.413191079575E+03    0.32088E-05   -0.11656E-07  1148   0.675E-04    0.165E-04
RMM:  14    -0.413191075845E+03    0.37302E-05   -0.81117E-08   972   0.632E-04    0.119E-04
RMM:  15    -0.413191071279E+03    0.45660E-05   -0.80286E-08  1098   0.640E-04    0.629E-05
RMM:  16    -0.413191069283E+03    0.19959E-05   -0.40754E-08   805   0.573E-04    0.581E-05
RMM:  17    -0.413191067164E+03    0.21193E-05   -0.33384E-08   793   0.558E-04    0.238E-05
RMM:  18    -0.413191066380E+03    0.78386E-06   -0.18296E-08   604   0.518E-04
   33 T=    66. E= -.41286676E+03 F= -.41319107E+03 E0= -.41316966E+03  EK= 0.32431E+00 SP= 0.00E+00 SK= 0.00E+00
       N       E                     dE             d eps       ncg     rms          rms(c)
RMM:   1    -0.413197434037E+03   -0.63669E-02   -0.10732E+01  4298   0.919E-01    0.912E-01
RMM:   2    -0.413196541075E+03    0.89296E-03   -0.15381E-01  4276   0.136E-01    0.674E-01
RMM:   3    -0.413193472639E+03    0.30684E-02   -0.10543E-02  4232   0.560E-02    0.135E-01
RMM:   4    -0.413193829247E+03   -0.35661E-03   -0.14324E-03  4958   0.287E-02    0.792E-02
RMM:   5    -0.413193543151E+03    0.28610E-03   -0.20827E-04  4718   0.146E-02    0.371E-02
RMM:   6    -0.413193544276E+03   -0.11253E-05   -0.23933E-04  5330   0.153E-02    0.251E-02
RMM:   7    -0.413193519570E+03    0.24706E-04   -0.16808E-04  4828   0.124E-02    0.153E-02
RMM:   8    -0.413193515390E+03    0.41800E-05   -0.15531E-05  3561   0.424E-03    0.452E-03
RMM:   9    -0.413193514831E+03    0.55921E-06   -0.21843E-06  2425   0.199E-03
   34 T=    67. E= -.41286674E+03 F= -.41319351E+03 E0= -.41317216E+03  EK= 0.32678E+00 SP= 0.00E+00 SK= 0.00E+00
       N       E                     dE             d eps       ncg     rms          rms(c)
RMM:   1    -0.413193534367E+03   -0.18977E-04   -0.10740E+01  4302   0.889E-01    0.938E-01
RMM:   2    -0.413199133710E+03   -0.55993E-02   -0.13829E-01  4278   0.130E-01    0.673E-01
RMM:   3    -0.413196263074E+03    0.28706E-02   -0.11359E-02  4363   0.563E-02    0.122E-01
RMM:   4    -0.413197590474E+03   -0.13274E-02   -0.21748E-03  5137   0.387E-02    0.152E-01
RMM:   5    -0.413196343092E+03    0.12474E-02   -0.67380E-04  4806   0.262E-02    0.391E-02
RMM:   6    -0.413196333875E+03    0.92164E-05   -0.29420E-04  5456   0.176E-02    0.292E-02
RMM:   7    -0.413196309283E+03    0.24592E-04   -0.19909E-04  4869   0.126E-02    0.163E-02
RMM:   8    -0.413196302741E+03    0.65413E-05   -0.16665E-05  3930   0.459E-03    0.588E-03
RMM:   9    -0.413196300940E+03    0.18008E-05   -0.29189E-06  2486   0.201E-03    0.264E-03
RMM:  10    -0.413196291989E+03    0.89519E-05   -0.10214E-06  2415   0.158E-03    0.110E-03
RMM:  11    -0.413196287036E+03    0.49525E-05   -0.40669E-07  2051   0.102E-03    0.393E-04
RMM:  12    -0.413196282451E+03    0.45851E-05   -0.22154E-07  1680   0.824E-04    0.242E-04
RMM:  13    -0.413196278560E+03    0.38908E-05   -0.11960E-07  1206   0.680E-04    0.156E-04
RMM:  14    -0.413196271297E+03    0.72628E-05   -0.12099E-07  1273   0.688E-04    0.135E-04
RMM:  15    -0.413196266211E+03    0.50868E-05   -0.83873E-08  1166   0.628E-04    0.863E-05
RMM:  16    -0.413196263558E+03    0.26530E-05   -0.46576E-08   858   0.557E-04    0.464E-05
RMM:  17    -0.413196261561E+03    0.19964E-05   -0.31438E-08   718   0.531E-04    0.277E-05
RMM:  18    -0.413196261023E+03    0.53810E-06   -0.16148E-08   577   0.509E-04
   35 T=    67. E= -.41286683E+03 F= -.41319626E+03 E0= -.41317495E+03  EK= 0.32943E+00 SP= 0.00E+00 SK= 0.00E+00
       N       E                     dE             d eps       ncg     rms          rms(c)
RMM:   1    -0.413203485151E+03   -0.72236E-02   -0.10808E+01  4302   0.947E-01    0.937E-01
RMM:   2    -0.413200920653E+03    0.25645E-02   -0.13688E-01  4251   0.132E-01    0.667E-01
RMM:   3    -0.413198353744E+03    0.25669E-02   -0.11630E-02  4468   0.586E-02    0.128E-01
RMM:   4    -0.413206975072E+03   -0.86213E-02   -0.89748E-03  5173   0.801E-02    0.392E-01
RMM:   5    -0.413198352970E+03    0.86221E-02   -0.44162E-03  4821   0.650E-02    0.403E-02
RMM:   6    -0.413198353367E+03   -0.39677E-06   -0.83086E-04  5768   0.287E-02    0.281E-02
RMM:   7    -0.413198343612E+03    0.97549E-05   -0.25939E-04  5321   0.158E-02    0.161E-02
RMM:   8    -0.413198329427E+03    0.14185E-04   -0.25567E-05  4625   0.622E-03    0.699E-03
RMM:   9    -0.413198326532E+03    0.28952E-05   -0.42473E-06  2874   0.263E-03    0.435E-03
RMM:  10    -0.413198320722E+03    0.58100E-05   -0.12256E-06  2498   0.187E-03    0.231E-03
RMM:  11    -0.413198314713E+03    0.60089E-05   -0.78577E-07  2457   0.147E-03    0.115E-03
RMM:  12    -0.413198309199E+03    0.55145E-05   -0.45021E-07  2249   0.113E-03    0.549E-04
RMM:  13    -0.413198306378E+03    0.28211E-05   -0.21908E-07  1752   0.821E-04    0.276E-04
RMM:  14    -0.413198303254E+03    0.31234E-05   -0.11676E-07  1228   0.683E-04    0.159E-04
RMM:  15    -0.413198298522E+03    0.47318E-05   -0.85354E-08  1140   0.657E-04    0.795E-05
RMM:  16    -0.413198295853E+03    0.26693E-05   -0.54769E-08   981   0.612E-04    0.641E-05
RMM:  17    -0.413198293020E+03    0.28332E-05   -0.46809E-08  1015   0.602E-04    0.446E-05
RMM:  18    -0.413198289585E+03    0.34345E-05   -0.47906E-08  1131   0.606E-04    0.278E-05
RMM:  19    -0.413198288983E+03    0.60266E-06   -0.17868E-08   723   0.527E-04
   36 T=    68. E= -.41286648E+03 F= -.41319829E+03 E0= -.41317702E+03  EK= 0.33181E+00 SP= 0.00E+00 SK= 0.00E+00
       N       E                     dE             d eps       ncg     rms          rms(c)
RMM:   1    -0.413213493474E+03   -0.15204E-01   -0.10944E+01  4304   0.105E+00    0.921E-01
RMM:   2    -0.413204849440E+03    0.86440E-02   -0.16295E-01  4250   0.145E-01    0.680E-01
RMM:   3    -0.413201488375E+03    0.33611E-02   -0.10662E-02  4622   0.576E-02    0.159E-01
RMM:   4    -0.413224942740E+03   -0.23454E-01   -0.23789E-02  5157   0.130E-01    0.640E-01
RMM:   5    -0.413201289786E+03    0.23653E-01   -0.11920E-02  4801   0.107E-01    0.453E-02
RMM:   6    -0.413201317233E+03   -0.27447E-04   -0.20073E-03  5848   0.423E-02    0.287E-02
RMM:   7    -0.413201326929E+03   -0.96965E-05   -0.28964E-04  5620   0.162E-02    0.159E-02
RMM:   8    -0.413201316327E+03    0.10602E-04   -0.56017E-05  4978   0.796E-03    0.902E-03
RMM:   9    -0.413201314952E+03    0.13746E-05   -0.14455E-05  4214   0.444E-03    0.648E-03
RMM:  10    -0.413201311437E+03    0.35152E-05   -0.18486E-06  2584   0.225E-03    0.383E-03
RMM:  11    -0.413201309124E+03    0.23135E-05   -0.10437E-06  2494   0.166E-03    0.229E-03
RMM:  12    -0.413201303901E+03    0.52222E-05   -0.14588E-06  2516   0.192E-03    0.107E-03
RMM:  13    -0.413201301604E+03    0.22979E-05   -0.50980E-07  2306   0.125E-03    0.634E-04
RMM:  14    -0.413201301290E+03    0.31353E-06   -0.21609E-07  1779   0.825E-04
   37 T=    68. E= -.41286689E+03 F= -.41320130E+03 E0= -.41318008E+03  EK= 0.33442E+00 SP= 0.00E+00 SK= 0.00E+00
       N       E                     dE             d eps       ncg     rms          rms(c)
RMM:   1    -0.413216863207E+03   -0.15562E-01   -0.11046E+01  4307   0.107E+00    0.941E-01
RMM:   2    -0.413207413964E+03    0.94492E-02   -0.16138E-01  4254   0.135E-01    0.684E-01
RMM:   3    -0.413203990075E+03    0.34239E-02   -0.11070E-02  4735   0.547E-02    0.166E-01
RMM:   4    -0.413235759777E+03   -0.31770E-01   -0.32383E-02  5152   0.151E-01    0.743E-01
RMM:   5    -0.413203618302E+03    0.32141E-01   -0.16229E-02  4800   0.124E-01    0.492E-02
RMM:   6    -0.413203675575E+03   -0.57273E-04   -0.26892E-03  5846   0.488E-02    0.311E-02
RMM:   7    -0.413203685498E+03   -0.99230E-05   -0.35484E-04  5724   0.175E-02    0.168E-02
RMM:   8    -0.413203675182E+03    0.10316E-04   -0.65305E-05  5032   0.839E-03    0.101E-02
RMM:   9    -0.413203672222E+03    0.29603E-05   -0.19346E-05  4502   0.494E-03    0.696E-03
RMM:  10    -0.413203666510E+03    0.57122E-05   -0.25279E-06  2647   0.250E-03    0.413E-03
RMM:  11    -0.413203662995E+03    0.35150E-05   -0.12108E-06  2496   0.179E-03    0.252E-03
RMM:  12    -0.413203654631E+03    0.83636E-05   -0.15960E-06  2519   0.207E-03    0.117E-03
RMM:  13    -0.413203650655E+03    0.39757E-05   -0.59874E-07  2373   0.137E-03    0.783E-04
RMM:  14    -0.413203650504E+03    0.15168E-06   -0.24242E-07  1959   0.882E-04
   38 T=    69. E= -.41286679E+03 F= -.41320365E+03 E0= -.41318247E+03  EK= 0.33686E+00 SP= 0.00E+00 SK= 0.00E+00
       N       E                     dE             d eps       ncg     rms          rms(c)
RMM:   1    -0.413204858977E+03   -0.12083E-02   -0.10913E+01  4305   0.102E+00    0.954E-01
RMM:   2    -0.413209488628E+03   -0.46297E-02   -0.14308E-01  4260   0.124E-01    0.677E-01
RMM:   3    -0.413206849981E+03    0.26386E-02   -0.12248E-02  4952   0.570E-02    0.176E-01
RMM:   4    -0.413251278910E+03   -0.44429E-01   -0.47359E-02  5132   0.181E-01    0.875E-01
RMM:   5    -0.413206035338E+03    0.45244E-01   -0.22287E-02  4788   0.147E-01    0.557E-02
RMM:   6    -0.413206146982E+03   -0.11164E-03   -0.37886E-03  5823   0.573E-02    0.339E-02
RMM:   7    -0.413206157002E+03   -0.10020E-04   -0.43243E-04  5704   0.189E-02    0.177E-02
RMM:   8    -0.413206148729E+03    0.82730E-05   -0.56413E-05  4882   0.737E-03    0.941E-03
RMM:   9    -0.413206141348E+03    0.73812E-05   -0.16208E-05  4131   0.419E-03    0.656E-03
RMM:  10    -0.413206137364E+03    0.39840E-05   -0.42873E-06  2887   0.270E-03    0.433E-03
RMM:  11    -0.413206131252E+03    0.61121E-05   -0.14696E-06  2499   0.205E-03    0.254E-03
RMM:  12    -0.413206119312E+03    0.11940E-04   -0.15794E-06  2508   0.210E-03    0.984E-04
RMM:  13    -0.413206115408E+03    0.39038E-05   -0.53157E-07  2394   0.134E-03    0.748E-04
RMM:  14    -0.413206115380E+03    0.28547E-07   -0.23536E-07  1978   0.876E-04
   39 T=    69. E= -.41286672E+03 F= -.41320612E+03 E0= -.41318497E+03  EK= 0.33940E+00 SP= 0.00E+00 SK= 0.00E+00
       N       E                     dE             d eps       ncg     rms          rms(c)
RMM:   1    -0.413230279455E+03   -0.24164E-01   -0.11148E+01  4312   0.118E+00    0.931E-01
RMM:   2    -0.413213008789E+03    0.17271E-01   -0.16951E-01  4263   0.133E-01    0.684E-01
RMM:   3    -0.413210135504E+03    0.28733E-02   -0.11170E-02  5006   0.568E-02    0.211E-01
RMM:   4    -0.413264104387E+03   -0.53969E-01   -0.58752E-02  5131   0.202E-01    0.962E-01
RMM:   5    -0.413208882851E+03    0.55222E-01   -0.27139E-02  4785   0.162E-01    0.594E-02
RMM:   6    -0.413209045317E+03   -0.16247E-03   -0.44972E-03  5820   0.627E-02    0.348E-02
RMM:   7    -0.413209062390E+03   -0.17074E-04   -0.52231E-04  5805   0.203E-02    0.203E-02
RMM:   8    -0.413209063957E+03   -0.15668E-05   -0.11169E-04  5241   0.102E-02    0.133E-02
RMM:   9    -0.413209051515E+03    0.12442E-04   -0.29556E-05  4742   0.605E-03    0.711E-03
RMM:  10    -0.413209047120E+03    0.43943E-05   -0.49177E-06  2871   0.301E-03    0.440E-03
RMM:  11    -0.413209043538E+03    0.35825E-05   -0.16821E-06  2506   0.213E-03    0.263E-03
RMM:  12    -0.413209036436E+03    0.71020E-05   -0.15065E-06  2515   0.204E-03    0.900E-04
RMM:  13    -0.413209032608E+03    0.38275E-05   -0.64081E-07  2422   0.140E-03    0.646E-04
RMM:  14    -0.413209031848E+03    0.76066E-06   -0.27798E-07  2041   0.935E-04
   40 T=    70. E= -.41286692E+03 F= -.41320903E+03 E0= -.41318793E+03  EK= 0.34211E+00 SP= 0.00E+00 SK= 0.00E+00
       N       E                     dE             d eps       ncg     rms          rms(c)
RMM:   1    -0.413227802955E+03   -0.18770E-01   -0.11223E+01  4311   0.120E+00    0.944E-01
RMM:   2    -0.413215173812E+03    0.12629E-01   -0.17421E-01  4271   0.141E-01    0.695E-01
RMM:   3    -0.413212931433E+03    0.22424E-02   -0.12030E-02  5040   0.634E-02    0.242E-01
RMM:   4    -0.413269153658E+03   -0.56222E-01   -0.64742E-02  5124   0.212E-01    0.987E-01
RMM:   5    -0.413210974126E+03    0.58180E-01   -0.28015E-02  4775   0.166E-01    0.621E-02
RMM:   6    -0.413211135592E+03   -0.16147E-03   -0.46168E-03  5803   0.639E-02    0.354E-02
RMM:   7    -0.413211152801E+03   -0.17209E-04   -0.56689E-04  5838   0.211E-02    0.224E-02
RMM:   8    -0.413211152943E+03   -0.14212E-06   -0.13137E-04  5265   0.113E-02    0.140E-02
RMM:   9    -0.413211138668E+03    0.14275E-04   -0.27699E-05  4670   0.615E-03    0.638E-03
RMM:  10    -0.413211134634E+03    0.40345E-05   -0.59588E-06  3034   0.306E-03    0.406E-03
RMM:  11    -0.413211131171E+03    0.34628E-05   -0.15266E-06  2509   0.204E-03    0.237E-03
RMM:  12    -0.413211124910E+03    0.62614E-05   -0.11638E-06  2486   0.182E-03    0.796E-04
RMM:  13    -0.413211121340E+03    0.35701E-05   -0.54604E-07  2386   0.128E-03    0.493E-04
RMM:  14    -0.413211120209E+03    0.11309E-05   -0.25805E-07  1960   0.896E-04    0.336E-04
RMM:  15    -0.413211117749E+03    0.24599E-05   -0.14201E-07  1441   0.722E-04    0.154E-04
RMM:  16    -0.413211114058E+03    0.36910E-05   -0.10188E-07  1206   0.674E-04    0.127E-04
RMM:  17    -0.413211112151E+03    0.19066E-05   -0.61344E-08  1030   0.623E-04    0.779E-05
RMM:  18    -0.413211109220E+03    0.29309E-05   -0.59148E-08  1140   0.632E-04    0.606E-05
RMM:  19    -0.413211107119E+03    0.21010E-05   -0.41520E-08  1047   0.599E-04    0.375E-05
RMM:  20    -0.413211106280E+03    0.83894E-06   -0.23524E-08   857   0.559E-04
   41 T=    70. E= -.41286662E+03 F= -.41321111E+03 E0= -.41319003E+03  EK= 0.34449E+00 SP= 0.00E+00 SK= 0.00E+00
       N       E                     dE             d eps       ncg     rms          rms(c)
RMM:   1    -0.413219061526E+03   -0.79544E-02   -0.11130E+01  4312   0.119E+00    0.968E-01
RMM:   2    -0.413217048142E+03    0.20134E-02   -0.14967E-01  4291   0.134E-01    0.687E-01
RMM:   3    -0.413217110537E+03   -0.62396E-04   -0.14896E-02  5074   0.749E-02    0.285E-01
RMM:   4    -0.413255197805E+03   -0.38087E-01   -0.53284E-02  5096   0.194E-01    0.840E-01
RMM:   5    -0.413213605192E+03    0.41593E-01   -0.18580E-02  4747   0.140E-01    0.595E-02
RMM:   6    -0.413213681497E+03   -0.76305E-04   -0.32321E-03  5765   0.540E-02    0.347E-02
RMM:   7    -0.413213685636E+03   -0.41390E-05   -0.45280E-04  5746   0.195E-02    0.220E-02
RMM:   8    -0.413213680774E+03    0.48620E-05   -0.12299E-04  5213   0.113E-02    0.126E-02
RMM:   9    -0.413213666287E+03    0.14486E-04   -0.20429E-05  4453   0.562E-03    0.530E-03
RMM:  10    -0.413213660987E+03    0.53008E-05   -0.44225E-06  2873   0.270E-03    0.342E-03
RMM:  11    -0.413213655776E+03    0.52105E-05   -0.12001E-06  2491   0.186E-03    0.186E-03
RMM:  12    -0.413213647695E+03    0.80808E-05   -0.80912E-07  2462   0.156E-03    0.682E-04
RMM:  13    -0.413213643114E+03    0.45812E-05   -0.39080E-07  2217   0.109E-03    0.346E-04
RMM:  14    -0.413213641186E+03    0.19277E-05   -0.20432E-07  1747   0.811E-04    0.233E-04
RMM:  15    -0.413213636762E+03    0.44248E-05   -0.12400E-07  1343   0.707E-04    0.117E-04
RMM:  16    -0.413213633293E+03    0.34683E-05   -0.82966E-08  1166   0.655E-04    0.101E-04
RMM:  17    -0.413213630308E+03    0.29856E-05   -0.61750E-08  1108   0.629E-04    0.676E-05
RMM:  18    -0.413213627227E+03    0.30809E-05   -0.51747E-08  1124   0.616E-04    0.443E-05
RMM:  19    -0.413213624776E+03    0.24505E-05   -0.40355E-08  1078   0.594E-04    0.314E-05
RMM:  20    -0.413213624361E+03    0.41557E-06   -0.18299E-08   756   0.542E-04
   42 T=    71. E= -.41286681E+03 F= -.41321362E+03 E0= -.41319258E+03  EK= 0.34681E+00 SP= 0.00E+00 SK= 0.00E+00
       N       E                     dE             d eps       ncg     rms          rms(c)
RMM:   1    -0.413238157587E+03   -0.24533E-01   -0.11249E+01  4312   0.134E+00    0.944E-01
RMM:   2    -0.413219328168E+03    0.18829E-01   -0.17116E-01  4295   0.149E-01    0.689E-01
RMM:   3    -0.413219977205E+03   -0.64904E-03   -0.14405E-02  5085   0.793E-02    0.323E-01
RMM:   4    -0.413257743999E+03   -0.37767E-01   -0.55932E-02  5094   0.200E-01    0.846E-01
RMM:   5    -0.413215644999E+03    0.42099E-01   -0.18643E-02  4733   0.141E-01    0.613E-02
RMM:   6    -0.413215712561E+03   -0.67562E-04   -0.32456E-03  5753   0.542E-02    0.343E-02
RMM:   7    -0.413215716627E+03   -0.40654E-05   -0.46711E-04  5785   0.194E-02    0.228E-02
RMM:   8    -0.413215711887E+03    0.47399E-05   -0.12316E-04  5194   0.113E-02    0.121E-02
RMM:   9    -0.413215699330E+03    0.12557E-04   -0.21348E-05  4486   0.571E-03    0.476E-03
RMM:  10    -0.413215696022E+03    0.33080E-05   -0.44500E-06  2853   0.265E-03    0.306E-03
RMM:  11    -0.413215692097E+03    0.39251E-05   -0.12884E-06  2500   0.187E-03    0.166E-03
RMM:  12    -0.413215686753E+03    0.53437E-05   -0.73660E-07  2449   0.147E-03    0.613E-04
RMM:  13    -0.413215683675E+03    0.30780E-05   -0.36198E-07  2096   0.103E-03    0.291E-04
RMM:  14    -0.413215681611E+03    0.20640E-05   -0.19589E-07  1587   0.794E-04    0.186E-04
RMM:  15    -0.413215677657E+03    0.39541E-05   -0.13813E-07  1318   0.719E-04    0.109E-04
RMM:  16    -0.413215675619E+03    0.20383E-05   -0.85749E-08  1138   0.660E-04    0.777E-05
RMM:  17    -0.413215673013E+03    0.26058E-05   -0.73592E-08  1211   0.651E-04    0.509E-05
RMM:  18    -0.413215670632E+03    0.23807E-05   -0.53257E-08  1100   0.617E-04    0.355E-05
RMM:  19    -0.413215669103E+03    0.15293E-05   -0.35845E-08   951   0.576E-04    0.216E-05
RMM:  20    -0.413215668658E+03    0.44523E-06   -0.19343E-08   771   0.546E-04
   43 T=    71. E= -.41286693E+03 F= -.41321567E+03 E0= -.41319466E+03  EK= 0.34874E+00 SP= 0.00E+00 SK= 0.00E+00
       N       E                     dE             d eps       ncg     rms          rms(c)
RMM:   1    -0.413232622545E+03   -0.16953E-01   -0.11285E+01  4312   0.136E+00    0.949E-01
RMM:   2    -0.413220789678E+03    0.11833E-01   -0.16702E-01  4293   0.162E-01    0.701E-01
RMM:   3    -0.413222360591E+03   -0.15709E-02   -0.16424E-02  5072   0.897E-02    0.349E-01
RMM:   4    -0.413256082452E+03   -0.33722E-01   -0.55329E-02  5074   0.200E-01    0.816E-01
RMM:   5    -0.413216829107E+03    0.39253E-01   -0.16697E-02  4714   0.136E-01    0.603E-02
RMM:   6    -0.413216873758E+03   -0.44651E-04   -0.29693E-03  5732   0.519E-02    0.338E-02
RMM:   7    -0.413216873837E+03   -0.79846E-07   -0.42265E-04  5769   0.190E-02    0.224E-02
RMM:   8    -0.413216869668E+03    0.41694E-05   -0.11395E-04  5169   0.111E-02    0.115E-02
RMM:   9    -0.413216858967E+03    0.10701E-04   -0.19733E-05  4418   0.556E-03    0.449E-03
RMM:  10    -0.413216856632E+03    0.23341E-05   -0.39385E-06  2795   0.255E-03    0.281E-03
RMM:  11    -0.413216853665E+03    0.29677E-05   -0.12834E-06  2498   0.185E-03    0.152E-03
RMM:  12    -0.413216849790E+03    0.38750E-05   -0.73305E-07  2436   0.143E-03    0.579E-04
RMM:  13    -0.413216847428E+03    0.23617E-05   -0.36297E-07  2028   0.100E-03    0.275E-04
RMM:  14    -0.413216845655E+03    0.17726E-05   -0.20649E-07  1546   0.790E-04    0.171E-04
RMM:  15    -0.413216842318E+03    0.33377E-05   -0.15844E-07  1346   0.732E-04    0.106E-04
RMM:  16    -0.413216840726E+03    0.15921E-05   -0.95673E-08  1157   0.663E-04    0.743E-05
RMM:  17    -0.413216838415E+03    0.23107E-05   -0.80892E-08  1193   0.652E-04    0.451E-05
RMM:  18    -0.413216836532E+03    0.18832E-05   -0.56476E-08  1069   0.612E-04    0.344E-05
RMM:  19    -0.413216835263E+03    0.12688E-05   -0.36335E-08   909   0.575E-04    0.197E-05
RMM:  20    -0.413216834826E+03    0.43699E-06   -0.21187E-08   765   0.550E-04
   44 T=    71. E= -.41286672E+03 F= -.41321683E+03 E0= -.41319585E+03  EK= 0.35012E+00 SP= 0.00E+00 SK= 0.00E+00
       N       E                     dE             d eps       ncg     rms          rms(c)
RMM:   1    -0.413250228904E+03   -0.33394E-01   -0.11431E+01  4311   0.151E+00    0.975E-01
RMM:   2    -0.413221493663E+03    0.28735E-01   -0.17041E-01  4328   0.170E-01    0.697E-01
RMM:   3    -0.413227588240E+03   -0.60946E-02   -0.19814E-02  5116   0.106E-01    0.442E-01
RMM:   4    -0.413242836624E+03   -0.15248E-01   -0.45117E-02  5046   0.183E-01    0.656E-01
RMM:   5    -0.413218271870E+03    0.24565E-01   -0.94069E-03  4648   0.110E-01    0.575E-02
RMM:   6    -0.413218253643E+03    0.18227E-04   -0.19100E-03  5597   0.421E-02    0.330E-02
RMM:   7    -0.413218247013E+03    0.66300E-05   -0.32004E-04  5626   0.172E-02    0.218E-02
RMM:   8    -0.413218237312E+03    0.97012E-05   -0.11450E-04  5089   0.112E-02    0.104E-02
RMM:   9    -0.413218223703E+03    0.13609E-04   -0.15897E-05  4294   0.542E-03    0.422E-03
RMM:  10    -0.413218219729E+03    0.39744E-05   -0.28813E-06  2705   0.231E-03    0.246E-03
RMM:  11    -0.413218213668E+03    0.60609E-05   -0.11552E-06  2482   0.178E-03    0.134E-03
RMM:  12    -0.413218207444E+03    0.62234E-05   -0.59987E-07  2418   0.134E-03    0.609E-04
RMM:  13    -0.413218203890E+03    0.35541E-05   -0.28354E-07  1883   0.919E-04    0.292E-04
RMM:  14    -0.413218200548E+03    0.33419E-05   -0.16098E-07  1411   0.733E-04    0.162E-04
RMM:  15    -0.413218195506E+03    0.50428E-05   -0.12551E-07  1292   0.700E-04    0.120E-04
RMM:  16    -0.413218192953E+03    0.25528E-05   -0.78040E-08  1098   0.638E-04    0.917E-05
RMM:  17    -0.413218188442E+03    0.45108E-05   -0.81418E-08  1344   0.655E-04    0.664E-05
RMM:  18    -0.413218186388E+03    0.20538E-05   -0.45431E-08  1025   0.575E-04    0.413E-05
RMM:  19    -0.413218185166E+03    0.12225E-05   -0.29383E-08   857   0.540E-04    0.221E-05
RMM:  20    -0.413218184689E+03    0.47704E-06   -0.19067E-08   746   0.522E-04
   45 T=    71. E= -.41286702E+03 F= -.41321818E+03 E0= -.41319722E+03  EK= 0.35116E+00 SP= 0.00E+00 SK= 0.00E+00
       N       E                     dE             d eps       ncg     rms          rms(c)
RMM:   1    -0.413265408104E+03   -0.47223E-01   -0.11468E+01  4311   0.165E+00    0.955E-01
RMM:   2    -0.413221495633E+03    0.43912E-01   -0.18320E-01  4348   0.184E-01    0.693E-01
RMM:   3    -0.413229859765E+03   -0.83641E-02   -0.20849E-02  5117   0.114E-01    0.495E-01
RMM:   4    -0.413239047891E+03   -0.91881E-02   -0.43593E-02  5032   0.181E-01    0.610E-01
RMM:   5    -0.413218240105E+03    0.20808E-01   -0.79074E-03  4612   0.104E-01    0.572E-02
RMM:   6    -0.413218197755E+03    0.42350E-04   -0.15626E-03  5460   0.387E-02    0.320E-02
RMM:   7    -0.413218190474E+03    0.72813E-05   -0.27241E-04  5627   0.162E-02    0.216E-02
RMM:   8    -0.413218179763E+03    0.10710E-04   -0.12079E-04  5083   0.114E-02    0.102E-02
RMM:   9    -0.413218166186E+03    0.13578E-04   -0.16613E-05  4334   0.559E-03    0.412E-03
RMM:  10    -0.413218163052E+03    0.31333E-05   -0.28880E-06  2707   0.225E-03    0.237E-03
RMM:  11    -0.413218157329E+03    0.57233E-05   -0.12613E-06  2489   0.181E-03    0.130E-03
RMM:  12    -0.413218152689E+03    0.46403E-05   -0.57514E-07  2431   0.132E-03    0.659E-04
RMM:  13    -0.413218149396E+03    0.32931E-05   -0.27318E-07  1814   0.898E-04    0.320E-04
RMM:  14    -0.413218146107E+03    0.32883E-05   -0.15681E-07  1367   0.723E-04    0.170E-04
RMM:  15    -0.413218142272E+03    0.38349E-05   -0.11445E-07  1210   0.676E-04    0.116E-04
RMM:  16    -0.413218139819E+03    0.24539E-05   -0.78037E-08  1114   0.633E-04    0.976E-05
RMM:  17    -0.413218136256E+03    0.35622E-05   -0.72469E-08  1216   0.636E-04    0.599E-05
RMM:  18    -0.413218134068E+03    0.21886E-05   -0.47424E-08  1039   0.583E-04    0.461E-05
RMM:  19    -0.413218133309E+03    0.75853E-06   -0.25633E-08   805   0.533E-04
   46 T=    72. E= -.41286690E+03 F= -.41321813E+03 E0= -.41319719E+03  EK= 0.35123E+00 SP= 0.00E+00 SK= 0.00E+00
       N       E                     dE             d eps       ncg     rms          rms(c)
RMM:   1    -0.413248581903E+03   -0.30448E-01   -0.11322E+01  4311   0.164E+00    0.942E-01
RMM:   2    -0.413221219478E+03    0.27362E-01   -0.19678E-01  4349   0.199E-01    0.707E-01
RMM:   3    -0.413229856872E+03   -0.86374E-02   -0.20862E-02  5114   0.120E-01    0.517E-01
RMM:   4    -0.413239948044E+03   -0.10091E-01   -0.46693E-02  5035   0.188E-01    0.635E-01
RMM:   5    -0.413217392236E+03    0.22556E-01   -0.88136E-03  4610   0.110E-01    0.598E-02
RMM:   6    -0.413217340462E+03    0.51773E-04   -0.16609E-03  5467   0.401E-02    0.325E-02
RMM:   7    -0.413217334152E+03    0.63106E-05   -0.27905E-04  5667   0.163E-02    0.228E-02
RMM:   8    -0.413217323449E+03    0.10703E-04   -0.12539E-04  5116   0.115E-02    0.105E-02
RMM:   9    -0.413217310883E+03    0.12566E-04   -0.19165E-05  4416   0.592E-03    0.412E-03
RMM:  10    -0.413217308777E+03    0.21060E-05   -0.32503E-06  2742   0.233E-03    0.237E-03
RMM:  11    -0.413217304901E+03    0.38758E-05   -0.15028E-06  2518   0.192E-03    0.138E-03
RMM:  12    -0.413217301987E+03    0.29136E-05   -0.61451E-07  2440   0.138E-03    0.711E-04
RMM:  13    -0.413217299444E+03    0.25432E-05   -0.31575E-07  1857   0.945E-04    0.340E-04
RMM:  14    -0.413217296979E+03    0.24648E-05   -0.18454E-07  1411   0.755E-04    0.181E-04
RMM:  15    -0.413217294355E+03    0.26243E-05   -0.14114E-07  1304   0.701E-04    0.116E-04
RMM:  16    -0.413217292459E+03    0.18960E-05   -0.93257E-08  1180   0.646E-04    0.100E-04
RMM:  17    -0.413217290025E+03    0.24342E-05   -0.83773E-08  1232   0.638E-04    0.541E-05
RMM:  18    -0.413217288225E+03    0.18001E-05   -0.54833E-08  1016   0.583E-04    0.468E-05
RMM:  19    -0.413217287802E+03    0.42281E-06   -0.25784E-08   763   0.535E-04
   47 T=    71. E= -.41286685E+03 F= -.41321729E+03 E0= -.41319635E+03  EK= 0.35043E+00 SP= 0.00E+00 SK= 0.00E+00
       N       E                     dE             d eps       ncg     rms          rms(c)
RMM:   1    -0.413245694743E+03   -0.28407E-01   -0.11223E+01  4306   0.175E+00    0.967E-01
RMM:   2    -0.413219185315E+03    0.26509E-01   -0.18070E-01  4412   0.204E-01    0.700E-01
RMM:   3    -0.413235878136E+03   -0.16693E-01   -0.28663E-02  5135   0.144E-01    0.628E-01
RMM:   4    -0.413228704865E+03    0.71733E-02   -0.41679E-02  4985   0.182E-01    0.489E-01
RMM:   5    -0.413215797788E+03    0.12907E-01   -0.48307E-03  4526   0.909E-02    0.572E-02
RMM:   6    -0.413215695691E+03    0.10210E-03   -0.74100E-04  4934   0.302E-02    0.303E-02
RMM:   7    -0.413215680876E+03    0.14816E-04   -0.16695E-04  5843   0.126E-02    0.121E-02
RMM:   8    -0.413215672959E+03    0.79163E-05   -0.41939E-05  5162   0.750E-03    0.689E-03
RMM:   9    -0.413215667392E+03    0.55669E-05   -0.65995E-06  3215   0.326E-03    0.355E-03
RMM:  10    -0.413215665070E+03    0.23222E-05   -0.22260E-06  2587   0.230E-03    0.222E-03
RMM:  11    -0.413215659056E+03    0.60138E-05   -0.12664E-06  2450   0.192E-03    0.140E-03
RMM:  12    -0.413215655601E+03    0.34554E-05   -0.47915E-07  2362   0.126E-03    0.824E-04
RMM:  13    -0.413215651494E+03    0.41069E-05   -0.24679E-07  1835   0.891E-04    0.440E-04
RMM:  14    -0.413215646440E+03    0.50543E-05   -0.19302E-07  1651   0.777E-04    0.377E-04
RMM:  15    -0.413215642905E+03    0.35349E-05   -0.97878E-08  1027   0.609E-04    0.149E-04
RMM:  16    -0.413215640265E+03    0.26398E-05   -0.72204E-08  1071   0.597E-04    0.102E-04
RMM:  17    -0.413215637641E+03    0.26242E-05   -0.56044E-08  1023   0.583E-04    0.101E-04
RMM:  18    -0.413215636231E+03    0.14094E-05   -0.33340E-08   841   0.541E-04    0.689E-05
RMM:  19    -0.413215634916E+03    0.13158E-05   -0.25955E-08   795   0.529E-04    0.380E-05
RMM:  20    -0.413215633766E+03    0.11499E-05   -0.20409E-08   729   0.516E-04    0.387E-05
RMM:  21    -0.413215633651E+03    0.11442E-06   -0.69646E-09   546   0.484E-04
   48 T=    71. E= -.41286709E+03 F= -.41321563E+03 E0= -.41319471E+03  EK= 0.34854E+00 SP= 0.00E+00 SK= 0.00E+00
       N       E                     dE             d eps       ncg     rms          rms(c)
RMM:   1    -0.413246269207E+03   -0.30635E-01   -0.11057E+01  4306   0.188E+00    0.956E-01
RMM:   2    -0.413215094862E+03    0.31174E-01   -0.18191E-01  4465   0.216E-01    0.690E-01
RMM:   3    -0.413238269651E+03   -0.23175E-01   -0.33900E-02  5152   0.160E-01    0.713E-01
RMM:   4    -0.413220737446E+03    0.17532E-01   -0.40631E-02  4965   0.182E-01    0.419E-01
RMM:   5    -0.413211842582E+03    0.88949E-02   -0.43240E-03  4581   0.882E-02    0.625E-02
RMM:   6    -0.413211677992E+03    0.16459E-03   -0.47554E-04  4714   0.288E-02    0.328E-02
RMM:   7    -0.413211686807E+03   -0.88154E-05   -0.29545E-04  5759   0.178E-02    0.238E-02
RMM:   8    -0.413211651751E+03    0.35056E-04   -0.10313E-04  5023   0.116E-02    0.896E-03
RMM:   9    -0.413211644891E+03    0.68598E-05   -0.18100E-05  4702   0.550E-03    0.476E-03
RMM:  10    -0.413211640758E+03    0.41333E-05   -0.22572E-06  2617   0.238E-03    0.254E-03
RMM:  11    -0.413211634796E+03    0.59617E-05   -0.13817E-06  2499   0.191E-03    0.176E-03
RMM:  12    -0.413211631182E+03    0.36147E-05   -0.42538E-07  2385   0.122E-03    0.914E-04
RMM:  13    -0.413211626461E+03    0.47207E-05   -0.27652E-07  1976   0.892E-04    0.459E-04
RMM:  14    -0.413211621303E+03    0.51581E-05   -0.21880E-07  1745   0.788E-04    0.377E-04
RMM:  15    -0.413211616956E+03    0.43471E-05   -0.12495E-07  1166   0.642E-04    0.149E-04
RMM:  16    -0.413211614709E+03    0.22473E-05   -0.73128E-08  1060   0.599E-04    0.939E-05
RMM:  17    -0.413211611468E+03    0.32410E-05   -0.78979E-08  1239   0.628E-04    0.851E-05
RMM:  18    -0.413211610525E+03    0.94279E-06   -0.37038E-08   931   0.549E-04
   49 T=    70. E= -.41286679E+03 F= -.41321161E+03 E0= -.41319070E+03  EK= 0.34482E+00 SP= 0.00E+00 SK= 0.00E+00
       N       E                     dE             d eps       ncg     rms          rms(c)
RMM:   1    -0.413238023638E+03   -0.26412E-01   -0.10866E+01  4305   0.196E+00    0.930E-01
RMM:   2    -0.413210582459E+03    0.27441E-01   -0.18090E-01  4493   0.223E-01    0.694E-01
RMM:   3    -0.413234367106E+03   -0.23785E-01   -0.34663E-02  5155   0.164E-01    0.729E-01
RMM:   4    -0.413215826973E+03    0.18540E-01   -0.42000E-02  4958   0.187E-01    0.420E-01
RMM:   5    -0.413206732327E+03    0.90946E-02   -0.46278E-03  4621   0.914E-02    0.655E-02
RMM:   6    -0.413206533158E+03    0.19917E-03   -0.49384E-04  4691   0.301E-02    0.332E-02
RMM:   7    -0.413206542347E+03   -0.91888E-05   -0.30198E-04  5760   0.181E-02    0.243E-02
RMM:   8    -0.413206507678E+03    0.34669E-04   -0.10045E-04  5037   0.114E-02    0.954E-03
RMM:   9    -0.413206502228E+03    0.54503E-05   -0.20807E-05  4928   0.576E-03    0.486E-03
RMM:  10    -0.413206498885E+03    0.33426E-05   -0.27126E-06  2665   0.251E-03    0.266E-03
RMM:  11    -0.413206494637E+03    0.42484E-05   -0.14486E-06  2505   0.198E-03    0.187E-03
[...]
RMM:   7    -0.410724321919E+03    0.18967E+00   -0.56884E-02  5635   0.295E-01    0.273E+00
RMM:   8    -0.410793270306E+03   -0.68948E-01   -0.95482E-02  4738   0.300E-01    0.246E+00
RMM:   9    -0.410727896730E+03    0.65374E-01   -0.17352E-02  5206   0.207E-01    0.168E+00
RMM:  10    -0.410690326408E+03    0.37570E-01   -0.10479E-02  5192   0.940E-02    0.591E-01
RMM:  11    -0.410692023290E+03   -0.16969E-02   -0.45452E-03  5424   0.547E-02    0.329E-01
RMM:  12    -0.410692372565E+03   -0.34927E-03   -0.13992E-03  4750   0.418E-02    0.953E-02
RMM:  13    -0.410693258240E+03   -0.88568E-03   -0.68133E-04  4684   0.379E-02    0.240E-01
RMM:  14    -0.410692814668E+03    0.44357E-03   -0.40351E-04  5210   0.241E-02    0.303E-02
RMM:  15    -0.410692803071E+03    0.11597E-04   -0.18982E-04  4435   0.161E-02    0.215E-02
RMM:  16    -0.410692846751E+03   -0.43680E-04   -0.14108E-04  5080   0.105E-02    0.862E-03
RMM:  17    -0.410692867958E+03   -0.21207E-04   -0.49078E-05  3511   0.417E-03    0.684E-03
RMM:  18    -0.410692880316E+03   -0.12357E-04   -0.55581E-06  2807   0.279E-03    0.244E-03
RMM:  19    -0.410692887186E+03   -0.68703E-05   -0.38414E-06  2695   0.191E-03    0.655E-03
RMM:  20    -0.410692890192E+03   -0.30064E-05   -0.17681E-06  2299   0.143E-03    0.613E-04
RMM:  21    -0.410692891954E+03   -0.17615E-05   -0.10985E-06  1985   0.122E-03    0.384E-04
RMM:  22    -0.410692893793E+03   -0.18386E-05   -0.76546E-07  1939   0.103E-03    0.326E-03
RMM:  23    -0.410692894537E+03   -0.74443E-06   -0.52837E-07  1664   0.911E-04
  143 T=   559. E= -.40794800E+03 F= -.41069289E+03 E0= -.41066848E+03  EK= 0.27449E+01 SP= 0.00E+00 SK= 0.00E+00
       N       E                     dE             d eps       ncg     rms          rms(c)
RMM:   1    -0.411336985996E+03   -0.64409E+00   -0.47812E+01  4299   0.106E+01    0.521E+00
RMM:   2    -0.415044902414E+03   -0.37079E+01   -0.77197E+00  4990   0.284E+00    0.762E+00
RMM:   3    -0.414745353789E+03    0.29955E+00   -0.58410E+00  5141   0.242E+00    0.809E+00
RMM:   4    -0.411526475748E+03    0.32189E+01   -0.11775E+00  4582   0.134E+00    0.461E+00
RMM:   5    -0.411001680931E+03    0.52479E+00   -0.38053E-01  5535   0.584E-01    0.336E+00
RMM:   6    -0.411034592975E+03   -0.32912E-01   -0.19562E-01  4935   0.425E-01    0.468E+00
RMM:   7    -0.410746395247E+03    0.28820E+00   -0.71299E-02  5334   0.336E-01    0.198E+00
RMM:   8    -0.410824754329E+03   -0.78359E-01   -0.83291E-02  4705   0.289E-01    0.220E+00
RMM:   9    -0.410762895814E+03    0.61859E-01   -0.13066E-02  5129   0.176E-01    0.139E+00
RMM:  10    -0.410738307704E+03    0.24588E-01   -0.90267E-03  4889   0.699E-02    0.656E-01
RMM:  11    -0.410739199543E+03   -0.89184E-03   -0.39541E-03  5270   0.483E-02    0.483E-01
RMM:  12    -0.410737118834E+03    0.20807E-02   -0.14039E-03  4808   0.398E-02    0.586E-02
RMM:  13    -0.410738216637E+03   -0.10978E-02   -0.61499E-04  4571   0.386E-02    0.160E-01
RMM:  14    -0.410738041748E+03    0.17489E-03   -0.52359E-04  5293   0.212E-02    0.547E-02
RMM:  15    -0.410738034688E+03    0.70598E-05   -0.18665E-04  5221   0.136E-02    0.124E-02
RMM:  16    -0.410738059302E+03   -0.24614E-04   -0.73891E-05  4718   0.863E-03    0.118E-02
RMM:  17    -0.410738079734E+03   -0.20432E-04   -0.19449E-05  3207   0.481E-03    0.432E-03
RMM:  18    -0.410738095689E+03   -0.15954E-04   -0.91554E-06  2911   0.338E-03    0.613E-03
RMM:  19    -0.410738101204E+03   -0.55151E-05   -0.62327E-06  2801   0.201E-03    0.641E-03
RMM:  20    -0.410738104919E+03   -0.37151E-05   -0.13362E-06  2459   0.136E-03    0.118E-03
RMM:  21    -0.410738107278E+03   -0.23591E-05   -0.88780E-07  1818   0.109E-03    0.105E-03
RMM:  22    -0.410738110477E+03   -0.31993E-05   -0.70819E-07  1983   0.104E-03    0.177E-03
RMM:  23    -0.410738111990E+03   -0.15126E-05   -0.39157E-07  1584   0.838E-04    0.197E-04
RMM:  24    -0.410738112969E+03   -0.97912E-06   -0.22799E-07  1262   0.704E-04
  144 T=   570. E= -.40793863E+03 F= -.41073811E+03 E0= -.41071304E+03  EK= 0.27995E+01 SP= 0.00E+00 SK= 0.00E+00
       N       E                     dE             d eps       ncg     rms          rms(c)
RMM:   1    -0.411608002100E+03   -0.86989E+00   -0.53533E+01  4310   0.109E+01    0.538E+00
RMM:   2    -0.414665153965E+03   -0.30572E+01   -0.78712E+00  4918   0.295E+00    0.751E+00
RMM:   3    -0.414637822632E+03    0.27331E-01   -0.55983E+00  5139   0.238E+00    0.807E+00
RMM:   4    -0.411439114765E+03    0.31987E+01   -0.11618E+00  4594   0.133E+00    0.457E+00
RMM:   5    -0.410800229102E+03    0.63889E+00   -0.50194E-01  5388   0.664E-01    0.231E+00
RMM:   6    -0.411404786413E+03   -0.60456E+00   -0.29168E-01  4992   0.559E-01    0.531E+00
RMM:   7    -0.410749556883E+03    0.65523E+00   -0.10975E-01  4608   0.426E-01    0.201E+00
RMM:   8    -0.410804571033E+03   -0.55014E-01   -0.10514E-01  4552   0.316E-01    0.188E+00
RMM:   9    -0.410759677898E+03    0.44893E-01   -0.13913E-02  5445   0.171E-01    0.117E+00
RMM:  10    -0.410740012393E+03    0.19666E-01   -0.80006E-03  4682   0.687E-02    0.655E-01
RMM:  11    -0.410739988867E+03    0.23527E-04   -0.31679E-03  5280   0.517E-02    0.567E-01
RMM:  12    -0.410734952894E+03    0.50360E-02   -0.20046E-03  4634   0.427E-02    0.877E-02
RMM:  13    -0.410736179234E+03   -0.12263E-02   -0.92776E-04  4863   0.434E-02    0.174E-01
RMM:  14    -0.410735868511E+03    0.31072E-03   -0.69844E-04  5289   0.210E-02    0.840E-02
RMM:  15    -0.410735816256E+03    0.52255E-04   -0.22446E-04  5693   0.173E-02    0.425E-02
RMM:  16    -0.410735858397E+03   -0.42141E-04   -0.13159E-04  4862   0.106E-02    0.496E-02
RMM:  17    -0.410735855159E+03    0.32378E-05   -0.36215E-05  3543   0.930E-03    0.181E-02
RMM:  18    -0.410735865836E+03   -0.10677E-04   -0.23477E-05  3264   0.392E-03    0.195E-03
RMM:  19    -0.410735871720E+03   -0.58841E-05   -0.10526E-05  2865   0.281E-03    0.143E-03
RMM:  20    -0.410735875714E+03   -0.39938E-05   -0.22630E-06  2596   0.161E-03    0.266E-03
RMM:  21    -0.410735877603E+03   -0.18886E-05   -0.97312E-07  2077   0.114E-03    0.770E-04
RMM:  22    -0.410735880783E+03   -0.31803E-05   -0.72276E-07  2151   0.114E-03    0.135E-03
RMM:  23    -0.410735882197E+03   -0.14145E-05   -0.39683E-07  1604   0.863E-04    0.530E-04
RMM:  24    -0.410735884151E+03   -0.19538E-05   -0.31644E-07  1481   0.797E-04    0.130E-04
RMM:  25    -0.410735885237E+03   -0.10856E-05   -0.18196E-07  1304   0.701E-04    0.157E-04
RMM:  26    -0.410735886370E+03   -0.11330E-05   -0.13549E-07  1286   0.660E-04    0.165E-04
RMM:  27    -0.410735887606E+03   -0.12362E-05   -0.10416E-07  1259   0.626E-04    0.454E-05
RMM:  28    -0.410735888652E+03   -0.10458E-05   -0.74505E-08  1120   0.581E-04    0.707E-05
RMM:  29    -0.410735889098E+03   -0.44639E-06   -0.51599E-08   987   0.547E-04
  145 T=   561. E= -.40797855E+03 F= -.41073589E+03 E0= -.41071110E+03  EK= 0.27573E+01 SP= 0.00E+00 SK= 0.00E+00
       N       E                     dE             d eps       ncg     rms          rms(c)
RMM:   1    -0.411127019590E+03   -0.39113E+00   -0.51698E+01  4302   0.106E+01    0.544E+00
RMM:   2    -0.413723113661E+03   -0.25961E+01   -0.75479E+00  4799   0.294E+00    0.722E+00
RMM:   3    -0.414186140800E+03   -0.46303E+00   -0.50878E+00  5154   0.225E+00    0.806E+00
RMM:   4    -0.411036747706E+03    0.31494E+01   -0.11422E+00  4598   0.130E+00    0.457E+00
RMM:   5    -0.410421872219E+03    0.61488E+00   -0.59221E-01  5322   0.725E-01    0.165E+00
RMM:   6    -0.411047468878E+03   -0.62560E+00   -0.33924E-01  5016   0.623E-01    0.511E+00
RMM:   7    -0.410405465096E+03    0.64200E+00   -0.18273E-01  4426   0.514E-01    0.505E-01
RMM:   8    -0.410445663265E+03   -0.40198E-01   -0.48188E-02  4808   0.271E-01    0.933E-01
RMM:   9    -0.410437373754E+03    0.82895E-02   -0.99794E-03  4825   0.118E-01    0.690E-01
RMM:  10    -0.410427756192E+03    0.96176E-02   -0.52628E-03  4675   0.705E-02    0.322E-01
RMM:  11    -0.410428432483E+03   -0.67629E-03   -0.21088E-03  5470   0.431E-02    0.328E-01
RMM:  12    -0.410426441056E+03    0.19914E-02   -0.11473E-03  4574   0.363E-02    0.125E-01
RMM:  13    -0.410426504085E+03   -0.63029E-04   -0.52210E-04  5047   0.266E-02    0.134E-01
RMM:  14    -0.410426235611E+03    0.26847E-03   -0.45424E-04  5549   0.191E-02    0.387E-02
RMM:  15    -0.410426255620E+03   -0.20009E-04   -0.19613E-04  5311   0.140E-02    0.158E-02
RMM:  16    -0.410426299526E+03   -0.43906E-04   -0.63603E-05  4553   0.981E-03    0.192E-02
RMM:  17    -0.410426314935E+03   -0.15409E-04   -0.26277E-05  3773   0.497E-03    0.390E-03
RMM:  18    -0.410426326086E+03   -0.11151E-04   -0.92910E-06  2940   0.290E-03    0.133E-03
RMM:  19    -0.410426330635E+03   -0.45497E-05   -0.25136E-06  2616   0.151E-03    0.986E-04
RMM:  20    -0.410426336447E+03   -0.58119E-05   -0.75414E-07  2296   0.125E-03    0.430E-04
RMM:  21    -0.410426340407E+03   -0.39603E-05   -0.55469E-07  1752   0.980E-04    0.663E-04
RMM:  22    -0.410426344198E+03   -0.37908E-05   -0.43933E-07  1829   0.924E-04    0.253E-04
RMM:  23    -0.410426347400E+03   -0.32020E-05   -0.31362E-07  1657   0.807E-04    0.169E-04
RMM:  24    -0.410426350585E+03   -0.31848E-05   -0.22669E-07  1395   0.723E-04    0.105E-04
RMM:  25    -0.410426352803E+03   -0.22177E-05   -0.14667E-07  1409   0.668E-04    0.724E-05
RMM:  26    -0.410426353731E+03   -0.92786E-06   -0.86228E-08  1139   0.582E-04
  146 T=   512. E= -.40790982E+03 F= -.41042635E+03 E0= -.41040209E+03  EK= 0.25165E+01 SP= 0.00E+00 SK= 0.00E+00
       N       E                     dE             d eps       ncg     rms          rms(c)
RMM:   1    -0.410799611985E+03   -0.37326E+00   -0.43687E+01  4284   0.971E+00    0.554E+00
RMM:   2    -0.413512859461E+03   -0.27132E+01   -0.74377E+00  4738   0.297E+00    0.696E+00
RMM:   3    -0.414133594462E+03   -0.62074E+00   -0.50247E+00  5164   0.222E+00    0.787E+00
RMM:   4    -0.411014872580E+03    0.31187E+01   -0.11382E+00  4585   0.129E+00    0.421E+00
RMM:   5    -0.410526350151E+03    0.48852E+00   -0.69308E-01  5169   0.799E-01    0.171E+00
RMM:   6    -0.410821560465E+03   -0.29521E+00   -0.32512E-01  5259   0.598E-01    0.388E+00
RMM:   7    -0.410527734876E+03    0.29383E+00   -0.18332E-01  4436   0.489E-01    0.682E-01
RMM:   8    -0.410538751481E+03   -0.11017E-01   -0.32378E-02  5026   0.252E-01    0.509E-01
RMM:   9    -0.410537536236E+03    0.12152E-02   -0.71655E-03  4875   0.979E-02    0.465E-01
RMM:  10    -0.410532343969E+03    0.51923E-02   -0.42840E-03  4803   0.776E-02    0.215E-01
RMM:  11    -0.410532791466E+03   -0.44750E-03   -0.16739E-03  5606   0.443E-02    0.241E-01
RMM:  12    -0.410531571750E+03    0.12197E-02   -0.10986E-03  4517   0.367E-02    0.974E-02
RMM:  13    -0.410531568531E+03    0.32189E-05   -0.56065E-04  5139   0.222E-02    0.749E-02
RMM:  14    -0.410531565015E+03    0.35153E-05   -0.22045E-04  5781   0.152E-02    0.472E-02
RMM:  15    -0.410531582692E+03   -0.17677E-04   -0.11385E-04  4613   0.104E-02    0.926E-03
RMM:  16    -0.410531631659E+03   -0.48967E-04   -0.54331E-05  4180   0.760E-03    0.106E-02
RMM:  17    -0.410531655653E+03   -0.23994E-04   -0.11576E-05  3165   0.368E-03    0.298E-03
RMM:  18    -0.410531673307E+03   -0.17654E-04   -0.30393E-06  2707   0.218E-03    0.110E-03
RMM:  19    -0.410531679390E+03   -0.60825E-05   -0.15403E-06  2525   0.135E-03    0.144E-03
RMM:  20    -0.410531689647E+03   -0.10258E-04   -0.76245E-07  2215   0.120E-03    0.664E-04
RMM:  21    -0.410531697030E+03   -0.73824E-05   -0.57686E-07  1866   0.998E-04    0.228E-04
RMM:  22    -0.410531705731E+03   -0.87011E-05   -0.61187E-07  2092   0.103E-03    0.402E-04
RMM:  23    -0.410531709402E+03   -0.36707E-05   -0.26952E-07  1410   0.743E-04    0.165E-04
RMM:  24    -0.410531713038E+03   -0.36361E-05   -0.19336E-07  1483   0.731E-04    0.120E-04
RMM:  25    -0.410531714978E+03   -0.19405E-05   -0.12178E-07  1446   0.653E-04    0.631E-05
RMM:  26    -0.410531715576E+03   -0.59752E-06   -0.72501E-08  1137   0.559E-04
  147 T=   507. E= -.40803903E+03 F= -.41053172E+03 E0= -.41050776E+03  EK= 0.24927E+01 SP= 0.00E+00 SK= 0.00E+00
       N       E                     dE             d eps       ncg     rms          rms(c)
RMM:   1    -0.410004121670E+03    0.52759E+00   -0.44173E+01  4281   0.962E+00    0.545E+00
RMM:   2    -0.412146764651E+03   -0.21426E+01   -0.73779E+00  4672   0.312E+00    0.646E+00
RMM:   3    -0.413116981007E+03   -0.97022E+00   -0.44093E+00  5246   0.208E+00    0.762E+00
RMM:   4    -0.410268403303E+03    0.28486E+01   -0.11159E+00  4684   0.126E+00    0.408E+00
RMM:   5    -0.409884490556E+03    0.38391E+00   -0.77017E-01  5251   0.869E-01    0.175E+00
RMM:   6    -0.410344736067E+03   -0.46025E+00   -0.56606E-01  5006   0.804E-01    0.421E+00
RMM:   7    -0.409871640149E+03    0.47310E+00   -0.21748E-01  4402   0.582E-01    0.744E-01
RMM:   8    -0.409884829240E+03   -0.13189E-01   -0.61764E-02  4723   0.308E-01    0.409E-01
RMM:   9    -0.409884793642E+03    0.35598E-04   -0.98127E-03  4652   0.140E-01    0.366E-01
RMM:  10    -0.409880871326E+03    0.39223E-02   -0.43256E-03  4763   0.801E-02    0.164E-01
RMM:  11    -0.409881020541E+03   -0.14922E-03   -0.17266E-03  5718   0.395E-02    0.147E-01
RMM:  12    -0.409880684057E+03    0.33648E-03   -0.58746E-04  4716   0.282E-02    0.868E-02
RMM:  13    -0.409880639770E+03    0.44287E-04   -0.34417E-04  4964   0.180E-02    0.473E-02
RMM:  14    -0.409880673458E+03   -0.33688E-04   -0.23634E-04  5758   0.147E-02    0.107E-02
RMM:  15    -0.409880730659E+03   -0.57200E-04   -0.74793E-05  4457   0.785E-03    0.695E-03
RMM:  16    -0.409880781819E+03   -0.51160E-04   -0.11107E-05  3447   0.500E-03    0.286E-03
RMM:  17    -0.409880805631E+03   -0.23813E-04   -0.49708E-06  2952   0.272E-03    0.171E-03
RMM:  18    -0.409880825544E+03   -0.19913E-04   -0.16586E-06  2626   0.192E-03    0.898E-04
RMM:  19    -0.409880848052E+03   -0.22507E-04   -0.16613E-06  2634   0.169E-03    0.748E-04
RMM:  20    -0.409880863033E+03   -0.14981E-04   -0.10806E-06  2243   0.124E-03    0.534E-04
RMM:  21    -0.409880881538E+03   -0.18505E-04   -0.13738E-06  2430   0.131E-03    0.361E-04
RMM:  22    -0.409880892408E+03   -0.10870E-04   -0.81166E-07  1756   0.100E-03    0.192E-04
RMM:  23    -0.409880897686E+03   -0.52783E-05   -0.37952E-07  1576   0.815E-04    0.188E-04
RMM:  24    -0.409880900375E+03   -0.26884E-05   -0.20133E-07  1510   0.704E-04    0.900E-05
RMM:  25    -0.409880901463E+03   -0.10884E-05   -0.10817E-07  1220   0.598E-04    0.748E-05
RMM:  26    -0.409880901912E+03   -0.44888E-06   -0.62394E-08  1053   0.550E-04
  148 T=   404. E= -.40789539E+03 F= -.40988090E+03 E0= -.40985721E+03  EK= 0.19855E+01 SP= 0.00E+00 SK= 0.00E+00
       N       E                     dE             d eps       ncg     rms          rms(c)
RMM:   1    -0.410155381068E+03   -0.27448E+00   -0.18103E+01  4274   0.685E+00    0.434E+00
RMM:   2    -0.412599409747E+03   -0.24440E+01   -0.59127E+00  4645   0.268E+00    0.528E+00
RMM:   3    -0.413370530220E+03   -0.77112E+00   -0.36133E+00  5283   0.186E+00    0.646E+00
RMM:   4    -0.411050904833E+03    0.23196E+01   -0.87846E-01  4620   0.111E+00    0.283E+00
RMM:   5    -0.410864569212E+03    0.18634E+00   -0.33740E-01  5566   0.555E-01    0.160E+00
RMM:   6    -0.410804617096E+03    0.59952E-01   -0.31039E-01  5029   0.475E-01    0.807E-01
RMM:   7    -0.410802259743E+03    0.23574E-02   -0.66751E-02  5311   0.279E-01    0.525E-01
RMM:   8    -0.410797551995E+03    0.47077E-02   -0.13106E-02  4707   0.151E-01    0.132E-01
RMM:   9    -0.410798246555E+03   -0.69456E-03   -0.36869E-03  5284   0.732E-02    0.129E-01
RMM:  10    -0.410798054745E+03    0.19181E-03   -0.81532E-04  5488   0.341E-02    0.921E-02
RMM:  11    -0.410797884984E+03    0.16976E-03   -0.49207E-04  4698   0.253E-02    0.325E-02
RMM:  12    -0.410797951243E+03   -0.66260E-04   -0.35490E-04  5230   0.159E-02    0.188E-02
RMM:  13    -0.410798006704E+03   -0.55460E-04   -0.56742E-05  4886   0.860E-03    0.775E-03
RMM:  14    -0.410798077088E+03   -0.70384E-04   -0.13491E-05  3462   0.518E-03    0.373E-03
RMM:  15    -0.410798140924E+03   -0.63836E-04   -0.81999E-06  3152   0.406E-03    0.275E-03
RMM:  16    -0.410798221505E+03   -0.80581E-04   -0.83029E-06  3036   0.441E-03    0.208E-03
RMM:  17    -0.410798296462E+03   -0.74957E-04   -0.10783E-05  3065   0.431E-03    0.207E-03
RMM:  18    -0.410798350552E+03   -0.54089E-04   -0.96770E-06  3045   0.330E-03    0.140E-03
RMM:  19    -0.410798390628E+03   -0.40077E-04   -0.78950E-06  3004   0.273E-03    0.546E-04
RMM:  20    -0.410798401697E+03   -0.11069E-04   -0.19925E-06  2144   0.136E-03    0.335E-04
RMM:  21    -0.410798412124E+03   -0.10427E-04   -0.67014E-07  2007   0.106E-03    0.230E-04
RMM:  22    -0.410798418280E+03   -0.61555E-05   -0.33428E-07  1736   0.844E-04    0.149E-04
RMM:  23    -0.410798421855E+03   -0.35748E-05   -0.19944E-07  1555   0.731E-04    0.149E-04
RMM:  24    -0.410798425011E+03   -0.31561E-05   -0.16599E-07  1603   0.714E-04    0.793E-05
RMM:  25    -0.410798425712E+03   -0.70092E-06   -0.72793E-08  1115   0.543E-04
  149 T=   563. E= -.40803249E+03 F= -.41079843E+03 E0= -.41077481E+03  EK= 0.27659E+01 SP= 0.00E+00 SK= 0.00E+00
       N       E                     dE             d eps       ncg     rms          rms(c)
RMM:   1    -0.413170000672E+03   -0.23716E+01   -0.66946E+01  4324   0.135E+01    0.516E+00
RMM:   2    -0.414607258406E+03   -0.14373E+01   -0.80185E+00  4934   0.347E+00    0.611E+00
RMM:   3    -0.414150069310E+03    0.45719E+00   -0.38754E+00  5339   0.208E+00    0.586E+00
RMM:   4    -0.412492276511E+03    0.16578E+01   -0.83361E-01  4669   0.115E+00    0.267E+00
RMM:   5    -0.412367420954E+03    0.12486E+00   -0.52930E-01  4900   0.794E-01    0.148E+00
RMM:   6    -0.412459664719E+03   -0.92244E-01   -0.53988E-01  5376   0.723E-01    0.156E+00
RMM:   7    -0.412395177997E+03    0.64487E-01   -0.90792E-02  5076   0.375E-01    0.987E-01
RMM:   8    -0.412365467494E+03    0.29711E-01   -0.35710E-02  4565   0.236E-01    0.410E-01
RMM:   9    -0.412363391559E+03    0.20759E-02   -0.27970E-02  5552   0.165E-01    0.101E-01
RMM:  10    -0.412363946909E+03   -0.55535E-03   -0.32900E-03  5610   0.687E-02    0.568E-02
RMM:  11    -0.412364026047E+03   -0.79139E-04   -0.87385E-04  5739   0.344E-02    0.338E-02
RMM:  12    -0.412364049710E+03   -0.23663E-04   -0.20793E-04  5493   0.175E-02    0.174E-02
RMM:  13    -0.412364114995E+03   -0.65285E-04   -0.98747E-05  5813   0.118E-02    0.144E-02
RMM:  14    -0.412364182859E+03   -0.67864E-04   -0.23259E-05  4372   0.720E-03    0.506E-03
RMM:  15    -0.412364242464E+03   -0.59605E-04   -0.10975E-05  3601   0.460E-03    0.313E-03
RMM:  16    -0.412364328289E+03   -0.85825E-04   -0.74273E-06  3064   0.459E-03    0.211E-03
RMM:  17    -0.412364426137E+03   -0.97849E-04   -0.12789E-05  3218   0.524E-03    0.166E-03
RMM:  18    -0.412364515728E+03   -0.89591E-04   -0.18340E-05  3283   0.502E-03    0.135E-03
RMM:  19    -0.412364551871E+03   -0.36143E-04   -0.83225E-06  3088   0.273E-03    0.104E-03
RMM:  20    -0.412364577880E+03   -0.26009E-04   -0.39416E-06  2858   0.207E-03    0.612E-04
RMM:  21    -0.412364588476E+03   -0.10596E-04   -0.10527E-06  1979   0.118E-03    0.318E-04
RMM:  22    -0.412364596000E+03   -0.75245E-05   -0.48004E-07  2006   0.987E-04    0.193E-04
RMM:  23    -0.412364601308E+03   -0.53077E-05   -0.30669E-07  1771   0.833E-04    0.200E-04
RMM:  24    -0.412364604605E+03   -0.32972E-05   -0.20400E-07  1552   0.723E-04    0.915E-05
RMM:  25    -0.412364606169E+03   -0.15639E-05   -0.12300E-07  1383   0.628E-04    0.635E-05
RMM:  26    -0.412364606820E+03   -0.65119E-06   -0.66869E-08  1094   0.539E-04
  150 T=   875. E= -.40806902E+03 F= -.41236461E+03 E0= -.41234042E+03  EK= 0.42956E+01 SP= 0.00E+00 SK= 0.00E+00
