       N       E                     dE             d eps       ncg     rms          rms(c)
RMM:   1     0.220162475326E+04    0.22016E+04   -0.52442E+04  2132   0.654E+02
RMM:   2     0.705788594333E+03   -0.14958E+04   -0.16263E+04  2132   0.177E+02
RMM:   3     0.137817711014E+03   -0.56797E+03   -0.65742E+03  2132   0.117E+02
RMM:   4    -0.159387344923E+03   -0.29721E+03   -0.27849E+03  2132   0.936E+01
RMM:   5    -0.287538992722E+03   -0.12815E+03   -0.11440E+03  2132   0.595E+01
RMM:   6    -0.349889213409E+03   -0.62350E+02   -0.55109E+02  2132   0.423E+01
RMM:   7    -0.382674383850E+03   -0.32785E+02   -0.30358E+02  2132   0.293E+01
RMM:   8    -0.404197921375E+03   -0.21524E+02   -0.18426E+02  2132   0.233E+01
RMM:   9    -0.436004328841E+03   -0.31806E+02   -0.30680E+02  6106   0.173E+01
RMM:  10    -0.441296095330E+03   -0.52918E+01   -0.62820E+01  6398   0.539E+00
RMM:  11    -0.442519848665E+03   -0.12238E+01   -0.11288E+01  6203   0.173E+00
RMM:  12    -0.442885305585E+03   -0.36546E+00   -0.25794E+00  6364   0.595E-01    0.134E+02
RMM:  13    -0.425620661668E+03    0.17265E+02   -0.81224E+01  4673   0.119E+01    0.712E+01
RMM:  14    -0.499489855333E+03   -0.73869E+02   -0.54208E+02  5416   0.233E+01    0.306E+01
RMM:  15    -0.413640921000E+03    0.85849E+02   -0.19318E+02  5043   0.162E+01    0.575E+00
RMM:  16    -0.414073478863E+03   -0.43256E+00   -0.39196E+01  6070   0.601E+00    0.428E+00
RMM:  17    -0.413243924827E+03    0.82955E+00   -0.22527E+00  5333   0.177E+00    0.251E+00
RMM:  18    -0.413157795120E+03    0.86130E-01   -0.10268E+00  5910   0.105E+00    0.154E+00
RMM:  19    -0.413168166527E+03   -0.10371E-01   -0.29833E-01  5788   0.568E-01    0.858E-01
RMM:  20    -0.413180269503E+03   -0.12103E-01   -0.15898E-01  5181   0.461E-01    0.496E-01
RMM:  21    -0.413167397400E+03    0.12872E-01   -0.33030E-02  5016   0.216E-01    0.239E-01
RMM:  22    -0.413166341748E+03    0.10557E-02   -0.12348E-02  6147   0.883E-02    0.159E-01
RMM:  23    -0.413164298839E+03    0.20429E-02   -0.57494E-03  5751   0.707E-02    0.787E-02
RMM:  24    -0.413162852516E+03    0.14463E-02   -0.24008E-03  5801   0.461E-02    0.341E-02
RMM:  25    -0.413162693744E+03    0.15877E-03   -0.77096E-04  5709   0.224E-02    0.267E-02
RMM:  26    -0.413162893031E+03   -0.19929E-03   -0.43080E-04  5643   0.217E-02    0.240E-02
RMM:  27    -0.413163331139E+03   -0.43811E-03   -0.18741E-04  4521   0.185E-02    0.131E-02
RMM:  28    -0.413163832971E+03   -0.50183E-03   -0.15640E-04  4749   0.188E-02    0.910E-03
RMM:  29    -0.413164189062E+03   -0.35609E-03   -0.11845E-04  4406   0.148E-02    0.322E-03
RMM:  30    -0.413164366361E+03   -0.17730E-03   -0.74832E-05  3968   0.887E-03    0.234E-03
RMM:  31    -0.413164439387E+03   -0.73026E-04   -0.38334E-05  3095   0.498E-03    0.191E-03
RMM:  32    -0.413164458973E+03   -0.19586E-04   -0.15762E-05  2901   0.259E-03    0.895E-04
RMM:  33    -0.413164463215E+03   -0.42413E-05   -0.77125E-06  2693   0.165E-03    0.545E-04
RMM:  34    -0.413164464788E+03   -0.15734E-05   -0.30124E-06  2340   0.128E-03    0.595E-04
RMM:  35    -0.413164464182E+03    0.60575E-06   -0.19981E-06  1622   0.939E-04
    1 T=    61. E= -.41286665E+03 F= -.41316446E+03 E0= -.41314197E+03  EK= 0.29781E+00 SP= 0.00E+00 SK= 0.00E+00
       N       E                     dE             d eps       ncg     rms          rms(c)
RMM:   1    -0.413164958373E+03   -0.49359E-03   -0.84984E+00  3993   0.594E-01    0.888E-01
RMM:   2    -0.413169016800E+03   -0.40584E-02   -0.10468E-01  3994   0.873E-02    0.654E-01
RMM:   3    -0.413164879831E+03    0.41370E-02   -0.21054E-02  4920   0.563E-02    0.126E-01
RMM:   4    -0.413193356057E+03   -0.28476E-01   -0.31883E-02  5193   0.148E-01    0.707E-01
RMM:   5    -0.413163943865E+03    0.29412E-01   -0.14041E-02  4830   0.119E-01    0.499E-02
RMM:   6    -0.413164150593E+03   -0.20673E-03   -0.26147E-03  5781   0.496E-02    0.347E-02
RMM:   7    -0.413164156140E+03   -0.55470E-05   -0.46162E-04  5680   0.200E-02    0.224E-02
RMM:   8    -0.413164151475E+03    0.46649E-05   -0.66380E-05  5201   0.889E-03    0.105E-02
RMM:   9    -0.413164152785E+03   -0.13094E-05   -0.13483E-05  3855   0.396E-03    0.762E-03
RMM:  10    -0.413164157629E+03   -0.48440E-05   -0.25385E-06  2624   0.235E-03    0.459E-03
RMM:  11    -0.413164161439E+03   -0.38106E-05   -0.14086E-06  2534   0.176E-03    0.266E-03
RMM:  12    -0.413164168399E+03   -0.69598E-05   -0.20417E-06  2593   0.204E-03    0.116E-03
RMM:  13    -0.413164171647E+03   -0.32483E-05   -0.82414E-07  2440   0.141E-03    0.902E-04
RMM:  14    -0.413164171494E+03    0.15316E-06   -0.37987E-07  2004   0.916E-04
    2 T=    61. E= -.41286638E+03 F= -.41316417E+03 E0= -.41314167E+03  EK= 0.29780E+00 SP= 0.00E+00 SK= 0.00E+00
       N       E                     dE             d eps       ncg     rms          rms(c)
RMM:   1    -0.413165890493E+03   -0.17188E-02   -0.84860E+00  4188   0.599E-01    0.905E-01
RMM:   2    -0.413169220040E+03   -0.33295E-02   -0.10392E-01  4081   0.886E-02    0.650E-01
RMM:   3    -0.413165220391E+03    0.39996E-02   -0.19553E-02  4822   0.520E-02    0.106E-01
RMM:   4    -0.413189762210E+03   -0.24542E-01   -0.25874E-02  5160   0.135E-01    0.657E-01
RMM:   5    -0.413164593226E+03    0.25169E-01   -0.12016E-02  4825   0.109E-01    0.485E-02
RMM:   6    -0.413164768415E+03   -0.17519E-03   -0.22365E-03  5767   0.459E-02    0.347E-02
RMM:   7    -0.413164755885E+03    0.12530E-04   -0.41578E-04  5593   0.197E-02    0.216E-02
RMM:   8    -0.413164744775E+03    0.11110E-04   -0.54986E-05  5044   0.853E-03    0.101E-02
RMM:   9    -0.413164743142E+03    0.16334E-05   -0.11324E-05  3673   0.373E-03    0.755E-03
RMM:  10    -0.413164743279E+03   -0.13719E-06   -0.21218E-06  2577   0.236E-03
    3 T=    61. E= -.41286669E+03 F= -.41316474E+03 E0= -.41314225E+03  EK= 0.29805E+00 SP= 0.00E+00 SK= 0.00E+00
       N       E                     dE             d eps       ncg     rms          rms(c)
RMM:   1    -0.413165345005E+03   -0.60186E-03   -0.84226E+00  4221   0.601E-01    0.891E-01
RMM:   2    -0.413168647544E+03   -0.33025E-02   -0.10350E-01  4246   0.873E-02    0.645E-01
RMM:   3    -0.413170865521E+03   -0.22180E-02   -0.23695E-02  5162   0.879E-02    0.341E-01
RMM:   4    -0.413186911212E+03   -0.16046E-01   -0.37938E-02  5104   0.168E-01    0.619E-01
RMM:   5    -0.413164483088E+03    0.22428E-01   -0.84015E-03  4689   0.101E-01    0.591E-02
RMM:   6    -0.413164493773E+03   -0.10685E-04   -0.16725E-03  5422   0.417E-02    0.323E-02
RMM:   7    -0.413164510702E+03   -0.16929E-04   -0.33818E-04  5960   0.170E-02    0.193E-02
RMM:   8    -0.413164505742E+03    0.49603E-05   -0.58154E-05  5147   0.891E-03    0.784E-03
RMM:   9    -0.413164504140E+03    0.16027E-05   -0.73278E-06  3291   0.347E-03    0.402E-03
RMM:  10    -0.413164505206E+03   -0.10661E-05   -0.16753E-06  2548   0.213E-03    0.257E-03
RMM:  11    -0.413164506662E+03   -0.14560E-05   -0.12974E-06  2535   0.177E-03    0.143E-03
RMM:  12    -0.413164507449E+03   -0.78748E-06   -0.76463E-07  2484   0.139E-03
    4 T=    61. E= -.41286647E+03 F= -.41316451E+03 E0= -.41314202E+03  EK= 0.29803E+00 SP= 0.00E+00 SK= 0.00E+00
       N       E                     dE             d eps       ncg     rms          rms(c)
RMM:   1    -0.413165334573E+03   -0.82791E-03   -0.84883E+00  4234   0.607E-01    0.885E-01
RMM:   2    -0.413169075326E+03   -0.37408E-02   -0.10487E-01  4055   0.850E-02    0.653E-01
RMM:   3    -0.413165524715E+03    0.35506E-02   -0.21138E-02  4987   0.533E-02    0.137E-01
RMM:   4    -0.413196462353E+03   -0.30938E-01   -0.34255E-02  5144   0.155E-01    0.738E-01
RMM:   5    -0.413164443135E+03    0.32019E-01   -0.14946E-02  4802   0.123E-01    0.511E-02
RMM:   6    -0.413164649826E+03   -0.20669E-03   -0.26971E-03  5739   0.509E-02    0.348E-02
RMM:   7    -0.413164652977E+03   -0.31508E-05   -0.46765E-04  5712   0.202E-02    0.223E-02
RMM:   8    -0.413164647934E+03    0.50425E-05   -0.64892E-05  5167   0.891E-03    0.103E-02
RMM:   9    -0.413164648293E+03   -0.35866E-06   -0.12404E-05  3831   0.398E-03    0.738E-03
RMM:  10    -0.413164652346E+03   -0.40531E-05   -0.21486E-06  2587   0.233E-03    0.446E-03
RMM:  11    -0.413164655720E+03   -0.33737E-05   -0.12348E-06  2529   0.176E-03    0.247E-03
RMM:  12    -0.413164661259E+03   -0.55395E-05   -0.19366E-06  2609   0.200E-03    0.110E-03
RMM:  13    -0.413164663377E+03   -0.21172E-05   -0.65456E-07  2426   0.135E-03    0.824E-04
RMM:  14    -0.413164663280E+03    0.96217E-07   -0.25574E-07  1939   0.875E-04
    5 T=    61. E= -.41286651E+03 F= -.41316466E+03 E0= -.41314219E+03  EK= 0.29816E+00 SP= 0.00E+00 SK= 0.00E+00
       N       E                     dE             d eps       ncg     rms          rms(c)
RMM:   1    -0.413166172046E+03   -0.15087E-02   -0.84905E+00  4246   0.611E-01    0.902E-01
RMM:   2    -0.413169334857E+03   -0.31628E-02   -0.10432E-01  4013   0.838E-02    0.652E-01
RMM:   3    -0.413165652348E+03    0.36825E-02   -0.19827E-02  4902   0.485E-02    0.108E-01
RMM:   4    -0.413190833413E+03   -0.25181E-01   -0.26710E-02  5144   0.137E-01    0.666E-01
RMM:   5    -0.413164966707E+03    0.25867E-01   -0.12277E-02  4807   0.110E-01    0.489E-02
RMM:   6    -0.413165155859E+03   -0.18915E-03   -0.23336E-03  5749   0.464E-02    0.347E-02
RMM:   7    -0.413165148957E+03    0.69021E-05   -0.42356E-04  5599   0.197E-02    0.219E-02
RMM:   8    -0.413165139142E+03    0.98148E-05   -0.56814E-05  5025   0.853E-03    0.103E-02
RMM:   9    -0.413165137427E+03    0.17146E-05   -0.11194E-05  3679   0.376E-03    0.772E-03
RMM:  10    -0.413165137654E+03   -0.22640E-06   -0.20475E-06  2568   0.234E-03
    6 T=    61. E= -.41286671E+03 F= -.41316514E+03 E0= -.41314267E+03  EK= 0.29843E+00 SP= 0.00E+00 SK= 0.00E+00
       N       E                     dE             d eps       ncg     rms          rms(c)
RMM:   1    -0.413167354899E+03   -0.22175E-02   -0.84572E+00  4258   0.635E-01    0.897E-01
RMM:   2    -0.413169144805E+03   -0.17899E-02   -0.10486E-01  4275   0.852E-02    0.646E-01
RMM:   3    -0.413171562150E+03   -0.24173E-02   -0.23794E-02  5145   0.873E-02    0.349E-01
RMM:   4    -0.413186551883E+03   -0.14990E-01   -0.37630E-02  5081   0.167E-01    0.608E-01
RMM:   5    -0.413164877725E+03    0.21674E-01   -0.79695E-03  4673   0.993E-02    0.590E-02
RMM:   6    -0.413164883407E+03   -0.56818E-05   -0.16379E-03  5401   0.409E-02    0.327E-02
RMM:   7    -0.413164900376E+03   -0.16969E-04   -0.32906E-04  5932   0.168E-02    0.193E-02
RMM:   8    -0.413164894989E+03    0.53867E-05   -0.56810E-05  5113   0.885E-03    0.777E-03
RMM:   9    -0.413164892043E+03    0.29457E-05   -0.69028E-06  3242   0.342E-03    0.402E-03
RMM:  10    -0.413164891952E+03    0.91582E-07   -0.15997E-06  2536   0.211E-03
    7 T=    61. E= -.41286639E+03 F= -.41316489E+03 E0= -.41314244E+03  EK= 0.29850E+00 SP= 0.00E+00 SK= 0.00E+00
       N       E                     dE             d eps       ncg     rms          rms(c)
RMM:   1    -0.413166191337E+03   -0.12993E-02   -0.84733E+00  4269   0.619E-01    0.884E-01
RMM:   2    -0.413170221009E+03   -0.40297E-02   -0.10442E-01  4112   0.860E-02    0.650E-01
RMM:   3    -0.413166484384E+03    0.37366E-02   -0.20926E-02  4951   0.568E-02    0.142E-01
RMM:   4    -0.413198650451E+03   -0.32166E-01   -0.35941E-02  5131   0.159E-01    0.753E-01
RMM:   5    -0.413165296140E+03    0.33354E-01   -0.15598E-02  4799   0.125E-01    0.520E-02
RMM:   6    -0.413165502399E+03   -0.20626E-03   -0.27661E-03  5728   0.518E-02    0.352E-02
RMM:   7    -0.413165505059E+03   -0.26601E-05   -0.47699E-04  5721   0.201E-02    0.223E-02
RMM:   8    -0.413165501696E+03    0.33624E-05   -0.65467E-05  5205   0.890E-03    0.101E-02
RMM:   9    -0.413165501156E+03    0.54065E-06   -0.12560E-05  3858   0.396E-03    0.717E-03
RMM:  10    -0.413165503823E+03   -0.26669E-05   -0.21264E-06  2582   0.229E-03    0.433E-03
RMM:  11    -0.413165505953E+03   -0.21301E-05   -0.11313E-06  2520   0.170E-03    0.246E-03
RMM:  12    -0.413165509505E+03   -0.35520E-05   -0.18535E-06  2594   0.197E-03    0.109E-03
RMM:  13    -0.413165510967E+03   -0.14618E-05   -0.71385E-07  2426   0.136E-03    0.895E-04
RMM:  14    -0.413165510721E+03    0.24539E-06   -0.25601E-07  1937   0.878E-04
    8 T=    61. E= -.41286665E+03 F= -.41316551E+03 E0= -.41314308E+03  EK= 0.29886E+00 SP= 0.00E+00 SK= 0.00E+00
       N       E                     dE             d eps       ncg     rms          rms(c)
RMM:   1    -0.413166698846E+03   -0.11879E-02   -0.85066E+00  4282   0.625E-01    0.898E-01
RMM:   2    -0.413170312443E+03   -0.36136E-02   -0.10434E-01  4163   0.873E-02    0.654E-01
RMM:   3    -0.413166265822E+03    0.40466E-02   -0.20291E-02  4871   0.533E-02    0.115E-01
RMM:   4    -0.413193263998E+03   -0.26998E-01   -0.28846E-02  5130   0.142E-01    0.689E-01
RMM:   5    -0.413165484651E+03    0.27779E-01   -0.13201E-02  4802   0.114E-01    0.492E-02
RMM:   6    -0.413165676597E+03   -0.19195E-03   -0.24392E-03  5759   0.475E-02    0.343E-02
RMM:   7    -0.413165669630E+03    0.69672E-05   -0.42186E-04  5619   0.196E-02    0.218E-02
RMM:   8    -0.413165659461E+03    0.10169E-04   -0.60703E-05  5049   0.874E-03    0.104E-02
RMM:   9    -0.413165657617E+03    0.18443E-05   -0.11852E-05  3788   0.390E-03    0.771E-03
RMM:  10    -0.413165658067E+03   -0.44969E-06   -0.20622E-06  2569   0.234E-03
    9 T=    61. E= -.41286655E+03 F= -.41316566E+03 E0= -.41314325E+03  EK= 0.29911E+00 SP= 0.00E+00 SK= 0.00E+00
       N       E                     dE             d eps       ncg     rms          rms(c)
RMM:   1    -0.413166894887E+03   -0.12373E-02   -0.84760E+00  4289   0.632E-01    0.903E-01
RMM:   2    -0.413170148919E+03   -0.32540E-02   -0.10400E-01  4303   0.890E-02    0.648E-01
RMM:   3    -0.413172682624E+03   -0.25337E-02   -0.24175E-02  5134   0.900E-02    0.356E-01
RMM:   4    -0.413186604967E+03   -0.13922E-01   -0.37146E-02  5075   0.166E-01    0.597E-01
RMM:   5    -0.413165713262E+03    0.20892E-01   -0.75844E-03  4659   0.972E-02    0.585E-02
RMM:   6    -0.413165720773E+03   -0.75112E-05   -0.15873E-03  5396   0.399E-02    0.329E-02
RMM:   7    -0.413165726799E+03   -0.60263E-05   -0.32033E-04  5909   0.166E-02    0.192E-02
RMM:   8    -0.413165718951E+03    0.78479E-05   -0.55143E-05  5083   0.884E-03    0.771E-03
RMM:   9    -0.413165714800E+03    0.41517E-05   -0.68733E-06  3221   0.343E-03    0.399E-03
RMM:  10    -0.413165713536E+03    0.12632E-05   -0.16039E-06  2532   0.211E-03    0.249E-03
RMM:  11    -0.413165711550E+03    0.19868E-05   -0.11568E-06  2511   0.172E-03    0.136E-03
RMM:  12    -0.413165709645E+03    0.19049E-05   -0.73372E-07  2468   0.137E-03    0.575E-04
RMM:  13    -0.413165708471E+03    0.11733E-05   -0.37431E-07  2104   0.998E-04    0.333E-04
RMM:  14    -0.413165707317E+03    0.11543E-05   -0.22746E-07  1623   0.794E-04    0.221E-04
RMM:  15    -0.413165705264E+03    0.20528E-05   -0.24932E-07  1572   0.774E-04    0.185E-04
RMM:  16    -0.413165703326E+03    0.19380E-05   -0.18586E-07  1364   0.696E-04    0.152E-04
RMM:  17    -0.413165701596E+03    0.17302E-05   -0.14312E-07  1297   0.652E-04    0.770E-05
RMM:  18    -0.413165700295E+03    0.13008E-05   -0.89861E-08  1042   0.589E-04    0.483E-05
RMM:  19    -0.413165699708E+03    0.58726E-06   -0.43482E-08   834   0.543E-04
   10 T=    61. E= -.41286637E+03 F= -.41316570E+03 E0= -.41314331E+03  EK= 0.29933E+00 SP= 0.00E+00 SK= 0.00E+00
       N       E                     dE             d eps       ncg     rms          rms(c)
RMM:   1    -0.413169354848E+03   -0.36546E-02   -0.84860E+00  4292   0.653E-01    0.884E-01
RMM:   2    -0.413170908316E+03   -0.15535E-02   -0.10433E-01  4208   0.878E-02    0.648E-01
RMM:   3    -0.413167448587E+03    0.34597E-02   -0.20614E-02  4928   0.568E-02    0.140E-01
RMM:   4    -0.413199584853E+03   -0.32136E-01   -0.35898E-02  5126   0.158E-01    0.752E-01
RMM:   5    -0.413166287855E+03    0.33297E-01   -0.15694E-02  4791   0.125E-01    0.519E-02
RMM:   6    -0.413166500476E+03   -0.21262E-03   -0.27822E-03  5718   0.515E-02    0.356E-02
RMM:   7    -0.413166497754E+03    0.27222E-05   -0.47407E-04  5626   0.203E-02    0.224E-02
RMM:   8    -0.413166491355E+03    0.63992E-05   -0.66158E-05  5182   0.915E-03    0.102E-02
RMM:   9    -0.413166489574E+03    0.17810E-05   -0.13220E-05  3909   0.406E-03    0.730E-03
RMM:  10    -0.413166490940E+03   -0.13660E-05   -0.21168E-06  2574   0.231E-03    0.444E-03
RMM:  11    -0.413166492127E+03   -0.11870E-05   -0.10882E-06  2501   0.168E-03    0.252E-03
RMM:  12    -0.413166494055E+03   -0.19278E-05   -0.16306E-06  2552   0.193E-03    0.109E-03
RMM:  13    -0.413166494768E+03   -0.71371E-06   -0.64390E-07  2387   0.135E-03
   11 T=    61. E= -.41286670E+03 F= -.41316649E+03 E0= -.41314413E+03  EK= 0.29980E+00 SP= 0.00E+00 SK= 0.00E+00
       N       E                     dE             d eps       ncg     rms          rms(c)
RMM:   1    -0.413167309761E+03   -0.81571E-03   -0.85289E+00  4289   0.636E-01    0.895E-01
RMM:   2    -0.413170867577E+03   -0.35578E-02   -0.10508E-01  4212   0.878E-02    0.655E-01
RMM:   3    -0.413167088172E+03    0.37794E-02   -0.20714E-02  4834   0.542E-02    0.118E-01
RMM:   4    -0.413194347027E+03   -0.27259E-01   -0.29309E-02  5122   0.143E-01    0.693E-01
RMM:   5    -0.413166252148E+03    0.28095E-01   -0.13339E-02  4798   0.115E-01    0.491E-02
RMM:   6    -0.413166447067E+03   -0.19492E-03   -0.24787E-03  5768   0.477E-02    0.335E-02
RMM:   7    -0.413166449229E+03   -0.21613E-05   -0.41192E-04  5644   0.196E-02    0.216E-02
RMM:   8    -0.413166438958E+03    0.10271E-04   -0.63545E-05  5018   0.885E-03    0.106E-02
RMM:   9    -0.413166436604E+03    0.23535E-05   -0.12578E-05  3863   0.400E-03    0.785E-03
RMM:  10    -0.413166437159E+03   -0.55480E-06   -0.20715E-06  2572   0.235E-03
   12 T=    61. E= -.41286639E+03 F= -.41316644E+03 E0= -.41314411E+03  EK= 0.30005E+00 SP= 0.00E+00 SK= 0.00E+00
       N       E                     dE             d eps       ncg     rms          rms(c)
RMM:   1    -0.413168291781E+03   -0.18552E-02   -0.85119E+00  4307   0.642E-01    0.908E-01
RMM:   2    -0.413171089019E+03   -0.27972E-02   -0.10460E-01  4305   0.855E-02    0.651E-01
RMM:   3    -0.413174260561E+03   -0.31715E-02   -0.24447E-02  5142   0.890E-02    0.362E-01
RMM:   4    -0.413187729526E+03   -0.13469E-01   -0.37444E-02  5071   0.166E-01    0.594E-01
RMM:   5    -0.413167059476E+03    0.20670E-01   -0.74713E-03  4651   0.968E-02    0.583E-02
RMM:   6    -0.413167062159E+03   -0.26828E-05   -0.15695E-03  5387   0.396E-02    0.330E-02
RMM:   7    -0.413167072833E+03   -0.10674E-04   -0.31358E-04  5871   0.167E-02    0.191E-02
RMM:   8    -0.413167064590E+03    0.82431E-05   -0.55391E-05  5099   0.875E-03    0.769E-03
RMM:   9    -0.413167059754E+03    0.48360E-05   -0.66884E-06  3202   0.338E-03    0.398E-03
RMM:  10    -0.413167057843E+03    0.19106E-05   -0.15210E-06  2515   0.208E-03    0.250E-03
RMM:  11    -0.413167054865E+03    0.29789E-05   -0.11464E-06  2508   0.171E-03    0.138E-03
RMM:  12    -0.413167052254E+03    0.26101E-05   -0.67845E-07  2455   0.135E-03    0.588E-04
RMM:  13    -0.413167050549E+03    0.17059E-05   -0.35605E-07  2089   0.989E-04    0.342E-04
RMM:  14    -0.413167048938E+03    0.16102E-05   -0.20941E-07  1591   0.780E-04    0.227E-04
RMM:  15    -0.413167046053E+03    0.28857E-05   -0.22300E-07  1522   0.758E-04    0.183E-04
RMM:  16    -0.413167043584E+03    0.24687E-05   -0.15941E-07  1303   0.680E-04    0.148E-04
RMM:  17    -0.413167041362E+03    0.22218E-05   -0.12486E-07  1257   0.649E-04    0.778E-05
RMM:  18    -0.413167040040E+03    0.13225E-05   -0.71407E-08  1004   0.581E-04    0.446E-05
RMM:  19    -0.413167039025E+03    0.10145E-05   -0.42917E-08   856   0.553E-04    0.401E-05
RMM:  20    -0.413167038864E+03    0.16077E-06   -0.17876E-08   695   0.524E-04
   13 T=    61. E= -.41286649E+03 F= -.41316704E+03 E0= -.41314474E+03  EK= 0.30055E+00 SP= 0.00E+00 SK= 0.00E+00
       N       E                     dE             d eps       ncg     rms          rms(c)
RMM:   1    -0.413168537335E+03   -0.14983E-02   -0.84698E+00  4292   0.647E-01    0.887E-01
RMM:   2    -0.413171980653E+03   -0.34433E-02   -0.10446E-01  4227   0.836E-02    0.647E-01
RMM:   3    -0.413168661750E+03    0.33189E-02   -0.20219E-02  4988   0.530E-02    0.142E-01
RMM:   4    -0.413201615665E+03   -0.32954E-01   -0.37085E-02  5126   0.160E-01    0.761E-01
RMM:   5    -0.413167487130E+03    0.34129E-01   -0.16093E-02  4789   0.126E-01    0.524E-02
RMM:   6    -0.413167691621E+03   -0.20449E-03   -0.28105E-03  5734   0.520E-02    0.360E-02
RMM:   7    -0.413167687092E+03    0.45289E-05   -0.47823E-04  5624   0.204E-02    0.226E-02
RMM:   8    -0.413167678436E+03    0.86557E-05   -0.68161E-05  5205   0.919E-03    0.104E-02
RMM:   9    -0.413167675203E+03    0.32335E-05   -0.13175E-05  3915   0.409E-03    0.728E-03
RMM:  10    -0.413167675019E+03    0.18378E-06   -0.21341E-06  2572   0.230E-03
   14 T=    61. E= -.41286660E+03 F= -.41316768E+03 E0= -.41314541E+03  EK= 0.30108E+00 SP= 0.00E+00 SK= 0.00E+00
       N       E                     dE             d eps       ncg     rms          rms(c)
RMM:   1    -0.413168527682E+03   -0.85248E-03   -0.85586E+00  4302   0.650E-01    0.893E-01
RMM:   2    -0.413172472820E+03   -0.39451E-02   -0.10556E-01  4319   0.859E-02    0.657E-01
RMM:   3    -0.413175641384E+03   -0.31686E-02   -0.26384E-02  5128   0.940E-02    0.378E-01
RMM:   4    -0.413189228150E+03   -0.13587E-01   -0.39524E-02  5068   0.171E-01    0.606E-01
RMM:   5    -0.413167687194E+03    0.21541E-01   -0.78449E-03  4643   0.993E-02    0.574E-02
RMM:   6    -0.413167698050E+03   -0.10856E-04   -0.15922E-03  5391   0.397E-02    0.315E-02
RMM:   7    -0.413167715868E+03   -0.17817E-04   -0.31453E-04  5908   0.164E-02    0.188E-02
RMM:   8    -0.413167714001E+03    0.18666E-05   -0.56434E-05  5106   0.871E-03    0.753E-03
RMM:   9    -0.413167712283E+03    0.17182E-05   -0.65760E-06  3186   0.339E-03    0.387E-03
RMM:  10    -0.413167713363E+03   -0.10804E-05   -0.14818E-06  2510   0.204E-03    0.243E-03
RMM:  11    -0.413167714687E+03   -0.13242E-05   -0.11711E-06  2503   0.170E-03    0.134E-03
RMM:  12    -0.413167715172E+03   -0.48459E-06   -0.66425E-07  2453   0.133E-03
   15 T=    61. E= -.41286626E+03 F= -.41316772E+03 E0= -.41314548E+03  EK= 0.30146E+00 SP= 0.00E+00 SK= 0.00E+00
       N       E                     dE             d eps       ncg     rms          rms(c)
RMM:   1    -0.413171681399E+03   -0.39667E-02   -0.85693E+00  4294   0.677E-01    0.909E-01
RMM:   2    -0.413173353659E+03   -0.16723E-02   -0.11059E-01  4249   0.919E-02    0.654E-01
RMM:   3    -0.413169621415E+03    0.37322E-02   -0.19290E-02  4920   0.554E-02    0.135E-01
RMM:   4    -0.413203485961E+03   -0.33865E-01   -0.37266E-02  5120   0.161E-01    0.769E-01
RMM:   5    -0.413168579135E+03    0.34907E-01   -0.16464E-02  4786   0.127E-01    0.531E-02
RMM:   6    -0.413168799846E+03   -0.22071E-03   -0.30108E-03  5750   0.530E-02    0.371E-02
RMM:   7    -0.413168789418E+03    0.10428E-04   -0.50142E-04  5685   0.209E-02    0.237E-02
RMM:   8    -0.413168774599E+03    0.14819E-04   -0.72109E-05  5174   0.945E-03    0.112E-02
RMM:   9    -0.413168768703E+03    0.58959E-05   -0.14008E-05  4006   0.425E-03    0.799E-03
RMM:  10    -0.413168764791E+03    0.39126E-05   -0.23065E-06  2593   0.241E-03    0.480E-03
RMM:  11    -0.413168762193E+03    0.25980E-05   -0.12371E-06  2512   0.178E-03    0.278E-03
RMM:  12    -0.413168757074E+03    0.51188E-05   -0.19539E-06  2583   0.211E-03    0.119E-03
RMM:  13    -0.413168754081E+03    0.29925E-05   -0.72247E-07  2425   0.145E-03    0.978E-04
RMM:  14    -0.413168754217E+03   -0.13582E-06   -0.28288E-07  2021   0.931E-04
   16 T=    62. E= -.41286659E+03 F= -.41316875E+03 E0= -.41314656E+03  EK= 0.30217E+00 SP= 0.00E+00 SK= 0.00E+00
       N       E                     dE             d eps       ncg     rms          rms(c)
RMM:   1    -0.413170040681E+03   -0.12866E-02   -0.84973E+00  4294   0.661E-01    0.892E-01
RMM:   2    -0.413173778394E+03   -0.37377E-02   -0.10474E-01  4256   0.920E-02    0.648E-01
RMM:   3    -0.413169900555E+03    0.38778E-02   -0.19730E-02  4846   0.554E-02    0.121E-01
RMM:   4    -0.413199213036E+03   -0.29312E-01   -0.31685E-02  5117   0.148E-01    0.717E-01
RMM:   5    -0.413169033139E+03    0.30180E-01   -0.14338E-02  4790   0.118E-01    0.504E-02
RMM:   6    -0.413169233578E+03   -0.20044E-03   -0.26543E-03  5776   0.490E-02    0.349E-02
RMM:   7    -0.413169227304E+03    0.62742E-05   -0.43310E-04  5615   0.200E-02    0.222E-02
RMM:   8    -0.413169212586E+03    0.14718E-04   -0.67263E-05  5059   0.914E-03    0.109E-02
RMM:   9    -0.413169207644E+03    0.49422E-05   -0.12958E-05  3928   0.412E-03    0.799E-03
RMM:  10    -0.413169204955E+03    0.26888E-05   -0.21508E-06  2574   0.238E-03    0.479E-03
RMM:  11    -0.413169202993E+03    0.19625E-05   -0.13252E-06  2519   0.185E-03    0.263E-03
RMM:  12    -0.413169199707E+03    0.32857E-05   -0.17463E-06  2553   0.203E-03    0.111E-03
RMM:  13    -0.413169197927E+03    0.17803E-05   -0.59046E-07  2385   0.135E-03    0.811E-04
RMM:  14    -0.413169197869E+03    0.57633E-07   -0.25839E-07  1963   0.884E-04
   17 T=    62. E= -.41286652E+03 F= -.41316920E+03 E0= -.41314704E+03  EK= 0.30268E+00 SP= 0.00E+00 SK= 0.00E+00
       N       E                     dE             d eps       ncg     rms          rms(c)
RMM:   1    -0.413170510340E+03   -0.13124E-02   -0.85872E+00  4296   0.662E-01    0.892E-01
RMM:   2    -0.413174359520E+03   -0.38492E-02   -0.10630E-01  4254   0.924E-02    0.658E-01
RMM:   3    -0.413170567780E+03    0.37917E-02   -0.21243E-02  4872   0.569E-02    0.130E-01
RMM:   4    -0.413200563197E+03   -0.29995E-01   -0.32854E-02  5118   0.151E-01    0.726E-01
RMM:   5    -0.413169568197E+03    0.30995E-01   -0.14775E-02  4787   0.120E-01    0.502E-02
RMM:   6    -0.413169769485E+03   -0.20129E-03   -0.26504E-03  5755   0.497E-02    0.343E-02
RMM:   7    -0.413169765075E+03    0.44106E-05   -0.44126E-04  5616   0.202E-02    0.220E-02
RMM:   8    -0.413169754907E+03    0.10168E-04   -0.66447E-05  5083   0.924E-03    0.105E-02
RMM:   9    -0.413169752144E+03    0.27631E-05   -0.13196E-05  3891   0.414E-03    0.762E-03
RMM:  10    -0.413169752314E+03   -0.16953E-06   -0.21185E-06  2577   0.237E-03
   18 T=    62. E= -.41286647E+03 F= -.41316975E+03 E0= -.41314763E+03  EK= 0.30328E+00 SP= 0.00E+00 SK= 0.00E+00
       N       E                     dE             d eps       ncg     rms          rms(c)
RMM:   1    -0.413172228037E+03   -0.24759E-02   -0.85959E+00  4301   0.673E-01    0.910E-01
RMM:   2    -0.413175159425E+03   -0.29314E-02   -0.10636E-01  4317   0.903E-02    0.656E-01
RMM:   3    -0.413178110255E+03   -0.29508E-02   -0.24774E-02  5126   0.903E-02    0.362E-01
RMM:   4    -0.413192655583E+03   -0.14545E-01   -0.38784E-02  5062   0.169E-01    0.608E-01
RMM:   5    -0.413170901961E+03    0.21754E-01   -0.79043E-03  4651   0.990E-02    0.579E-02
RMM:   6    -0.413170917249E+03   -0.15287E-04   -0.16572E-03  5426   0.401E-02    0.330E-02
RMM:   7    -0.413170922424E+03   -0.51756E-05   -0.32205E-04  5865   0.169E-02    0.194E-02
RMM:   8    -0.413170913530E+03    0.88945E-05   -0.56111E-05  5090   0.881E-03    0.778E-03
RMM:   9    -0.413170907770E+03    0.57595E-05   -0.70006E-06  3220   0.345E-03    0.405E-03
RMM:  10    -0.413170905365E+03    0.24050E-05   -0.15789E-06  2520   0.210E-03    0.256E-03
RMM:  11    -0.413170901897E+03    0.34679E-05   -0.10746E-06  2490   0.169E-03    0.137E-03
RMM:  12    -0.413170898461E+03    0.34361E-05   -0.67279E-07  2448   0.135E-03    0.553E-04
RMM:  13    -0.413170896417E+03    0.20440E-05   -0.34078E-07  2088   0.982E-04    0.329E-04
RMM:  14    -0.413170894580E+03    0.18368E-05   -0.19234E-07  1573   0.771E-04    0.221E-04
RMM:  15    -0.413170890891E+03    0.36893E-05   -0.19098E-07  1454   0.744E-04    0.179E-04
RMM:  16    -0.413170888185E+03    0.27061E-05   -0.11976E-07  1199   0.658E-04    0.148E-04
RMM:  17    -0.413170885291E+03    0.28941E-05   -0.10639E-07  1188   0.643E-04    0.743E-05
RMM:  18    -0.413170883367E+03    0.19241E-05   -0.66016E-08  1012   0.595E-04    0.468E-05
RMM:  19    -0.413170882251E+03    0.11159E-05   -0.36835E-08   845   0.561E-04    0.365E-05
RMM:  20    -0.413170881958E+03    0.29271E-06   -0.17286E-08   720   0.539E-04
   19 T=    62. E= -.41286673E+03 F= -.41317088E+03 E0= -.41314880E+03  EK= 0.30415E+00 SP= 0.00E+00 SK= 0.00E+00
       N       E                     dE             d eps       ncg     rms          rms(c)
RMM:   1    -0.413175243841E+03   -0.43616E-02   -0.85810E+00  4298   0.703E-01    0.899E-01
RMM:   2    -0.413175384158E+03   -0.14032E-03   -0.11394E-01  4256   0.869E-02    0.651E-01
RMM:   3    -0.413172174176E+03    0.32100E-02   -0.18752E-02  4993   0.512E-02    0.138E-01
RMM:   4    -0.413207395561E+03   -0.35221E-01   -0.39198E-02  5127   0.165E-01    0.784E-01
RMM:   5    -0.413171102820E+03    0.36293E-01   -0.17308E-02  4787   0.130E-01    0.537E-02
RMM:   6    -0.413171313531E+03   -0.21071E-03   -0.30292E-03  5743   0.534E-02    0.371E-02
RMM:   7    -0.413171306680E+03    0.68511E-05   -0.50413E-04  5634   0.212E-02    0.235E-02
RMM:   8    -0.413171294988E+03    0.11692E-04   -0.76246E-05  5217   0.979E-03    0.111E-02
RMM:   9    -0.413171289074E+03    0.59135E-05   -0.14966E-05  4082   0.438E-03    0.770E-03
RMM:  10    -0.413171285698E+03    0.33768E-05   -0.23066E-06  2587   0.239E-03    0.471E-03
RMM:  11    -0.413171283575E+03    0.21228E-05   -0.11321E-06  2506   0.172E-03    0.276E-03
RMM:  12    -0.413171279382E+03    0.41929E-05   -0.17764E-06  2561   0.206E-03    0.119E-03
RMM:  13    -0.413171276847E+03    0.25346E-05   -0.71104E-07  2408   0.143E-03    0.975E-04
RMM:  14    -0.413171276884E+03   -0.36729E-07   -0.28234E-07  2026   0.933E-04
   20 T=    62. E= -.41286644E+03 F= -.41317128E+03 E0= -.41314924E+03  EK= 0.30484E+00 SP= 0.00E+00 SK= 0.00E+00
       N       E                     dE             d eps       ncg     rms          rms(c)
RMM:   1    -0.413173122465E+03   -0.18456E-02   -0.86201E+00  4293   0.674E-01    0.892E-01
RMM:   2    -0.413176995654E+03   -0.38732E-02   -0.10694E-01  4256   0.863E-02    0.658E-01
RMM:   3    -0.413173098962E+03    0.38967E-02   -0.21072E-02  4900   0.525E-02    0.122E-01
RMM:   4    -0.413201399194E+03   -0.28300E-01   -0.30694E-02  5119   0.146E-01    0.705E-01
RMM:   5    -0.413172227428E+03    0.29172E-01   -0.13957E-02  4789   0.117E-01    0.493E-02
RMM:   6    -0.413172405724E+03   -0.17830E-03   -0.25012E-03  5800   0.477E-02    0.329E-02
RMM:   7    -0.413172407094E+03   -0.13699E-05   -0.38960E-04  5618   0.193E-02    0.208E-02
RMM:   8    -0.413172398869E+03    0.82249E-05   -0.68483E-05  5031   0.916E-03    0.107E-02
RMM:   9    -0.413172395484E+03    0.33850E-05   -0.13333E-05  3960   0.422E-03    0.780E-03
RMM:  10    -0.413172395090E+03    0.39352E-06   -0.20294E-06  2563   0.234E-03
   21 T=    62. E= -.41286656E+03 F= -.41317240E+03 E0= -.41315041E+03  EK= 0.30583E+00 SP= 0.00E+00 SK= 0.00E+00
       N       E                     dE             d eps       ncg     rms          rms(c)
RMM:   1    -0.413174826101E+03   -0.24306E-02   -0.86588E+00  4300   0.688E-01    0.909E-01
RMM:   2    -0.413178135095E+03   -0.33090E-02   -0.10700E-01  4349   0.878E-02    0.660E-01
RMM:   3    -0.413180472984E+03   -0.23379E-02   -0.24945E-02  5123   0.898E-02    0.355E-01
RMM:   4    -0.413196612157E+03   -0.16139E-01   -0.39998E-02  5069   0.171E-01    0.627E-01
RMM:   5    -0.413173479673E+03    0.23132E-01   -0.85034E-03  4657   0.102E-01    0.573E-02
RMM:   6    -0.413173514519E+03   -0.34847E-04   -0.17709E-03  5462   0.413E-02    0.329E-02
RMM:   7    -0.413173519442E+03   -0.49224E-05   -0.33558E-04  5843   0.171E-02    0.197E-02
RMM:   8    -0.413173513428E+03    0.60138E-05   -0.58007E-05  5081   0.890E-03    0.795E-03
RMM:   9    -0.413173508077E+03    0.53516E-05   -0.73154E-06  3252   0.348E-03    0.418E-03
RMM:  10    -0.413173505706E+03    0.23709E-05   -0.16465E-06  2525   0.211E-03    0.263E-03
RMM:  11    -0.413173502541E+03    0.31648E-05   -0.10355E-06  2487   0.166E-03    0.136E-03
RMM:  12    -0.413173499103E+03    0.34380E-05   -0.68305E-07  2447   0.135E-03    0.525E-04
RMM:  13    -0.413173497127E+03    0.19758E-05   -0.33929E-07  2081   0.981E-04    0.322E-04
RMM:  14    -0.413173495426E+03    0.17010E-05   -0.18743E-07  1583   0.766E-04    0.217E-04
RMM:  15    -0.413173491963E+03    0.34630E-05   -0.16730E-07  1416   0.729E-04    0.173E-04
RMM:  16    -0.413173489176E+03    0.27870E-05   -0.11120E-07  1171   0.655E-04    0.158E-04
RMM:  17    -0.413173486575E+03    0.26013E-05   -0.85083E-08  1100   0.625E-04    0.775E-05
RMM:  18    -0.413173484058E+03    0.25167E-05   -0.69534E-08  1070   0.605E-04    0.364E-05
RMM:  19    -0.413173482963E+03    0.10947E-05   -0.32375E-08   832   0.558E-04    0.283E-05
RMM:  20    -0.413173482525E+03    0.43842E-06   -0.17207E-08   723   0.541E-04
   22 T=    62. E= -.41286660E+03 F= -.41317348E+03 E0= -.41315154E+03  EK= 0.30688E+00 SP= 0.00E+00 SK= 0.00E+00
       N       E                     dE             d eps       ncg     rms          rms(c)
RMM:   1    -0.413175458951E+03   -0.19760E-02   -0.86381E+00  4295   0.693E-01    0.910E-01
RMM:   2    -0.413178755628E+03   -0.32967E-02   -0.10677E-01  4285   0.914E-02    0.654E-01
RMM:   3    -0.413175044328E+03    0.37113E-02   -0.19726E-02  4927   0.550E-02    0.135E-01
RMM:   4    -0.413208218326E+03   -0.33174E-01   -0.36606E-02  5118   0.159E-01    0.761E-01
RMM:   5    -0.413174018994E+03    0.34199E-01   -0.16301E-02  4785   0.126E-01    0.526E-02
RMM:   6    -0.413174219486E+03   -0.20049E-03   -0.28870E-03  5768   0.521E-02    0.368E-02
RMM:   7    -0.413174206891E+03    0.12595E-04   -0.47824E-04  5618   0.209E-02    0.232E-02
RMM:   8    -0.413174193542E+03    0.13350E-04   -0.74734E-05  5172   0.967E-03    0.113E-02
RMM:   9    -0.413174186764E+03    0.67777E-05   -0.14116E-05  4038   0.433E-03    0.791E-03
RMM:  10    -0.413174182181E+03    0.45827E-05   -0.23117E-06  2593   0.243E-03    0.475E-03
RMM:  11    -0.413174179118E+03    0.30635E-05   -0.11991E-06  2508   0.177E-03    0.275E-03
RMM:  12    -0.413174173204E+03    0.59141E-05   -0.18649E-06  2567   0.210E-03    0.122E-03
RMM:  13    -0.413174169909E+03    0.32948E-05   -0.67988E-07  2408   0.142E-03    0.943E-04
RMM:  14    -0.413174169906E+03    0.29613E-08   -0.27895E-07  2030   0.922E-04
   23 T=    63. E= -.41286637E+03 F= -.41317417E+03 E0= -.41315227E+03  EK= 0.30780E+00 SP= 0.00E+00 SK= 0.00E+00
       N       E                     dE             d eps       ncg     rms          rms(c)
RMM:   1    -0.413176543284E+03   -0.23734E-02   -0.86661E+00  4293   0.693E-01    0.894E-01
RMM:   2    -0.413180684605E+03   -0.41413E-02   -0.10769E-01  4276   0.914E-02    0.658E-01
RMM:   3    -0.413176240321E+03    0.44443E-02   -0.20658E-02  4809   0.536E-02    0.106E-01
RMM:   4    -0.413199866455E+03   -0.23626E-01   -0.24832E-02  5120   0.132E-01    0.645E-01
RMM:   5    -0.413175608182E+03    0.24258E-01   -0.11793E-02  4797   0.106E-01    0.472E-02
RMM:   6    -0.413175750026E+03   -0.14184E-03   -0.21016E-03  5823   0.433E-02    0.302E-02
RMM:   7    -0.413175750011E+03    0.14952E-07   -0.27620E-04  5649   0.167E-02    0.168E-02
RMM:   8    -0.413175744122E+03    0.58882E-05   -0.56477E-05  4984   0.795E-03    0.104E-02
RMM:   9    -0.413175739203E+03    0.49191E-05   -0.11236E-05  3846   0.391E-03    0.761E-03
RMM:  10    -0.413175737560E+03    0.16432E-05   -0.18824E-06  2554   0.230E-03    0.447E-03
RMM:  11    -0.413175736101E+03    0.14589E-05   -0.15102E-06  2524   0.196E-03    0.233E-03
RMM:  12    -0.413175733815E+03    0.22862E-05   -0.14255E-06  2508   0.188E-03    0.104E-03
RMM:  13    -0.413175732835E+03    0.98006E-06   -0.48432E-07  2306   0.123E-03
   24 T=    63. E= -.41286674E+03 F= -.41317573E+03 E0= -.41315389E+03  EK= 0.30899E+00 SP= 0.00E+00 SK= 0.00E+00
       N       E                     dE             d eps       ncg     rms          rms(c)
RMM:   1    -0.413177785054E+03   -0.20512E-02   -0.87367E+00  4299   0.697E-01    0.908E-01
RMM:   2    -0.413181542294E+03   -0.37572E-02   -0.10846E-01  4279   0.918E-02    0.664E-01
RMM:   3    -0.413177276959E+03    0.42653E-02   -0.20677E-02  4805   0.554E-02    0.109E-01
RMM:   4    -0.413202574651E+03   -0.25298E-01   -0.26564E-02  5119   0.137E-01    0.667E-01
RMM:   5    -0.413176606290E+03    0.25968E-01   -0.12522E-02  4798   0.110E-01    0.481E-02
RMM:   6    -0.413176757236E+03   -0.15095E-03   -0.22411E-03  5819   0.450E-02    0.315E-02
RMM:   7    -0.413176753803E+03    0.34327E-05   -0.32556E-04  5643   0.180E-02    0.188E-02
RMM:   8    -0.413176743313E+03    0.10490E-04   -0.64154E-05  4990   0.866E-03    0.106E-02
RMM:   9    -0.413176737825E+03    0.54878E-05   -0.12279E-05  3967   0.410E-03    0.781E-03
RMM:  10    -0.413176735114E+03    0.27111E-05   -0.19461E-06  2556   0.233E-03    0.461E-03
RMM:  11    -0.413176732795E+03    0.23193E-05   -0.14259E-06  2522   0.191E-03    0.248E-03
RMM:  12    -0.413176729172E+03    0.36225E-05   -0.15517E-06  2535   0.193E-03    0.108E-03
RMM:  13    -0.413176727405E+03    0.17670E-05   -0.50917E-07  2325   0.127E-03    0.675E-04
RMM:  14    -0.413176726971E+03    0.43423E-06   -0.23462E-07  1869   0.849E-04
   25 T=    63. E= -.41286663E+03 F= -.41317673E+03 E0= -.41315493E+03  EK= 0.31010E+00 SP= 0.00E+00 SK= 0.00E+00
       N       E                     dE             d eps       ncg     rms          rms(c)
RMM:   1    -0.413179459088E+03   -0.27317E-02   -0.87346E+00  4298   0.710E-01    0.918E-01
RMM:   2    -0.413182493329E+03   -0.30342E-02   -0.10853E-01  4279   0.948E-02    0.659E-01
RMM:   3    -0.413178736380E+03    0.37569E-02   -0.19679E-02  4859   0.560E-02    0.120E-01
RMM:   4    -0.413208929032E+03   -0.30193E-01   -0.32309E-02  5117   0.150E-01    0.726E-01
RMM:   5    -0.413177956308E+03    0.30973E-01   -0.14965E-02  4795   0.120E-01    0.515E-02
RMM:   6    -0.413178124909E+03   -0.16860E-03   -0.26869E-03  5799   0.498E-02    0.360E-02
RMM:   7    -0.413178108580E+03    0.16329E-04   -0.44714E-04  5598   0.205E-02    0.225E-02
RMM:   8    -0.413178092631E+03    0.15949E-04   -0.70656E-05  5082   0.951E-03    0.112E-02
RMM:   9    -0.413178085502E+03    0.71285E-05   -0.13747E-05  3986   0.425E-03    0.805E-03
RMM:  10    -0.413178079649E+03    0.58537E-05   -0.22364E-06  2577   0.241E-03    0.479E-03
RMM:  11    -0.413178075513E+03    0.41353E-05   -0.12229E-06  2509   0.180E-03    0.279E-03
RMM:  12    -0.413178067646E+03    0.78676E-05   -0.19036E-06  2579   0.211E-03    0.124E-03
RMM:  13    -0.413178062860E+03    0.47854E-05   -0.65437E-07  2398   0.141E-03    0.961E-04
RMM:  14    -0.413178063096E+03   -0.23631E-06   -0.27259E-07  2024   0.914E-04
   26 T=    63. E= -.41286659E+03 F= -.41317806E+03 E0= -.41315631E+03  EK= 0.31147E+00 SP= 0.00E+00 SK= 0.00E+00
       N       E                     dE             d eps       ncg     rms          rms(c)
RMM:   1    -0.413181470115E+03   -0.34073E-02   -0.87382E+00  4298   0.721E-01    0.899E-01
RMM:   2    -0.413184368217E+03   -0.28981E-02   -0.10954E-01  4281   0.943E-02    0.659E-01
RMM:   3    -0.413180476615E+03    0.38916E-02   -0.20272E-02  4862   0.543E-02    0.109E-01
RMM:   4    -0.413206452323E+03   -0.25976E-01   -0.27397E-02  5130   0.138E-01    0.675E-01
RMM:   5    -0.413179817307E+03    0.26635E-01   -0.12977E-02  4797   0.112E-01    0.485E-02
RMM:   6    -0.413179954170E+03   -0.13686E-03   -0.22908E-03  5821   0.456E-02    0.315E-02
RMM:   7    -0.413179953751E+03    0.41923E-06   -0.32108E-04  5658   0.179E-02    0.183E-02
RMM:   8    -0.413179945785E+03    0.79659E-05   -0.64828E-05  5001   0.856E-03    0.109E-02
RMM:   9    -0.413179939884E+03    0.59013E-05   -0.12671E-05  4002   0.415E-03    0.788E-03
RMM:  10    -0.413179936887E+03    0.29970E-05   -0.19837E-06  2566   0.235E-03    0.465E-03
RMM:  11    -0.413179934337E+03    0.25496E-05   -0.13883E-06  2517   0.189E-03    0.257E-03
RMM:  12    -0.413179930101E+03    0.42358E-05   -0.16590E-06  2545   0.199E-03    0.112E-03
RMM:  13    -0.413179928040E+03    0.20612E-05   -0.52081E-07  2343   0.129E-03    0.704E-04
RMM:  14    -0.413179927735E+03    0.30549E-06   -0.23668E-07  1861   0.856E-04
   27 T=    64. E= -.41286681E+03 F= -.41317993E+03 E0= -.41315823E+03  EK= 0.31312E+00 SP= 0.00E+00 SK= 0.00E+00
       N       E                     dE             d eps       ncg     rms          rms(c)
RMM:   1    -0.413181944687E+03   -0.20166E-02   -0.88421E+00  4295   0.713E-01    0.909E-01
RMM:   2    -0.413185614713E+03   -0.36700E-02   -0.11056E-01  4281   0.964E-02    0.669E-01
RMM:   3    -0.413181490089E+03    0.41246E-02   -0.21254E-02  4784   0.559E-02    0.106E-01
RMM:   4    -0.413205187927E+03   -0.23698E-01   -0.24747E-02  5129   0.132E-01    0.646E-01
RMM:   5    -0.413180878545E+03    0.24309E-01   -0.11895E-02  4800   0.107E-01    0.476E-02
RMM:   6    -0.413181008655E+03   -0.13011E-03   -0.21354E-03  5823   0.439E-02    0.315E-02
RMM:   7    -0.413181006487E+03    0.21680E-05   -0.31621E-04  5632   0.178E-02    0.186E-02
RMM:   8    -0.413180998140E+03    0.83475E-05   -0.60891E-05  4979   0.844E-03    0.106E-02
RMM:   9    -0.413180993115E+03    0.50249E-05   -0.11401E-05  3846   0.399E-03    0.766E-03
RMM:  10    -0.413180990941E+03    0.21737E-05   -0.19333E-06  2554   0.232E-03    0.446E-03
RMM:  11    -0.413180989020E+03    0.19214E-05   -0.14251E-06  2524   0.190E-03    0.236E-03
RMM:  12    -0.413180985993E+03    0.30270E-05   -0.14738E-06  2520   0.189E-03    0.104E-03
RMM:  13    -0.413180984422E+03    0.15703E-05   -0.49619E-07  2320   0.124E-03    0.661E-04
RMM:  14    -0.413180984033E+03    0.38933E-06   -0.22821E-07  1833   0.838E-04
   28 T=    64. E= -.41286646E+03 F= -.41318098E+03 E0= -.41315934E+03  EK= 0.31452E+00 SP= 0.00E+00 SK= 0.00E+00
       N       E                     dE             d eps       ncg     rms          rms(c)
RMM:   1    -0.413185420528E+03   -0.44361E-02   -0.88672E+00  4293   0.752E-01    0.927E-01
RMM:   2    -0.413187577257E+03   -0.21567E-02   -0.11184E-01  4277   0.100E-01    0.666E-01
RMM:   3    -0.413183276123E+03    0.43011E-02   -0.19743E-02  4680   0.511E-02    0.861E-02
RMM:   4    -0.413198893117E+03   -0.15617E-01   -0.15905E-02  5139   0.106E-01    0.526E-01
RMM:   5    -0.413182979667E+03    0.15913E-01   -0.79662E-03  4823   0.864E-02    0.455E-02
RMM:   6    -0.413183054547E+03   -0.74880E-04   -0.14540E-03  5835   0.355E-02    0.282E-02
RMM:   7    -0.413183048350E+03    0.61971E-05   -0.17323E-04  5492   0.142E-02    0.135E-02
RMM:   8    -0.413183039294E+03    0.90560E-05   -0.24565E-05  4464   0.538E-03    0.831E-03
RMM:   9    -0.413183036918E+03    0.23760E-05   -0.73571E-06  3393   0.313E-03    0.654E-03
RMM:  10    -0.413183031753E+03    0.51649E-05   -0.14624E-06  2522   0.212E-03    0.371E-03
RMM:  11    -0.413183026021E+03    0.57321E-05   -0.15402E-06  2534   0.194E-03    0.197E-03
RMM:  12    -0.413183019753E+03    0.62685E-05   -0.10318E-06  2474   0.165E-03    0.104E-03
RMM:  13    -0.413183017738E+03    0.20143E-05   -0.37125E-07  2214   0.108E-03    0.581E-04
RMM:  14    -0.413183016599E+03    0.11391E-05   -0.17055E-07  1619   0.758E-04    0.453E-04
RMM:  15    -0.413183011375E+03    0.52247E-05   -0.22104E-07  2170   0.841E-04    0.509E-04
RMM:  16    -0.413183008628E+03    0.27462E-05   -0.77930E-08  1187   0.613E-04    0.364E-04
RMM:  17    -0.413183005904E+03    0.27247E-05   -0.41488E-08   875   0.552E-04    0.275E-04
RMM:  18    -0.413183002088E+03    0.38160E-05   -0.62593E-08  1085   0.605E-04    0.668E-05
RMM:  19    -0.413182999988E+03    0.20997E-05   -0.32585E-08   916   0.568E-04    0.115E-04
RMM:  20    -0.413182999758E+03    0.22951E-06   -0.11741E-08   697   0.530E-04
   29 T=    64. E= -.41286671E+03 F= -.41318300E+03 E0= -.41316140E+03  EK= 0.31629E+00 SP= 0.00E+00 SK= 0.00E+00
       N       E                     dE             d eps       ncg     rms          rms(c)
RMM:   1    -0.413190793520E+03   -0.77935E-02   -0.88859E+00  4291   0.783E-01    0.907E-01
RMM:   2    -0.413189834961E+03    0.95856E-03   -0.12172E-01  4268   0.110E-01    0.664E-01
RMM:   3    -0.413184979600E+03    0.48554E-02   -0.18784E-02  4552   0.552E-02    0.800E-02
RMM:   4    -0.413196909536E+03   -0.11930E-01   -0.12055E-02  5135   0.921E-02    0.461E-01
RMM:   5    -0.413184786957E+03    0.12123E-01   -0.61279E-03  4820   0.757E-02    0.436E-02
RMM:   6    -0.413184847950E+03   -0.60993E-04   -0.11620E-03  5827   0.315E-02    0.273E-02
RMM:   7    -0.413184851274E+03   -0.33244E-05   -0.21968E-04  5436   0.155E-02    0.171E-02
RMM:   8    -0.413184835715E+03    0.15559E-04   -0.30902E-05  4680   0.656E-03    0.832E-03
RMM:   9    -0.413184834034E+03    0.16811E-05   -0.59607E-06  3094   0.304E-03    0.607E-03
RMM:  10    -0.413184830965E+03    0.30687E-05   -0.16112E-06  2505   0.214E-03    0.329E-03
RMM:  11    -0.413184828139E+03    0.28267E-05   -0.10916E-06  2495   0.171E-03    0.171E-03
RMM:  12    -0.413184825012E+03    0.31263E-05   -0.72949E-07  2432   0.140E-03    0.932E-04
RMM:  13    -0.413184823493E+03    0.15196E-05   -0.31729E-07  2082   0.976E-04    0.405E-04
RMM:  14    -0.413184822131E+03    0.13617E-05   -0.16764E-07  1541   0.745E-04    0.259E-04
RMM:  15    -0.413184819540E+03    0.25907E-05   -0.11760E-07  1371   0.693E-04    0.129E-04
RMM:  16    -0.413184817120E+03    0.24201E-05   -0.70815E-08  1052   0.632E-04    0.107E-04
RMM:  17    -0.413184815422E+03    0.16983E-05   -0.42781E-08   891   0.590E-04    0.693E-05
RMM:  18    -0.413184811942E+03    0.34803E-05   -0.61065E-08  1045   0.617E-04    0.287E-05
RMM:  19    -0.413184811231E+03    0.71032E-06   -0.21800E-08   771   0.559E-04
   30 T=    65. E= -.41286667E+03 F= -.41318481E+03 E0= -.41316326E+03  EK= 0.31814E+00 SP= 0.00E+00 SK= 0.00E+00
       N       E                     dE             d eps       ncg     rms          rms(c)
RMM:   1    -0.413187369608E+03   -0.25577E-02   -0.89657E+00  4293   0.745E-01    0.912E-01
RMM:   2    -0.413191973207E+03   -0.46036E-02   -0.11325E-01  4274   0.111E-01    0.674E-01
RMM:   3    -0.413186803230E+03    0.51700E-02   -0.21669E-02  4567   0.629E-02    0.847E-02
RMM:   4    -0.413200297981E+03   -0.13495E-01   -0.13625E-02  5138   0.988E-02    0.491E-01
RMM:   5    -0.413186470843E+03    0.13827E-01   -0.68651E-03  4811   0.804E-02    0.437E-02
RMM:   6    -0.413186543991E+03   -0.73148E-04   -0.12960E-03  5836   0.334E-02    0.274E-02
RMM:   7    -0.413186550610E+03   -0.66191E-05   -0.21254E-04  5473   0.152E-02    0.164E-02
RMM:   8    -0.413186537619E+03    0.12991E-04   -0.33045E-05  4727   0.655E-03    0.851E-03
RMM:   9    -0.413186536913E+03    0.70558E-06   -0.66376E-06  3189   0.318E-03
   31 T=    65. E= -.41286646E+03 F= -.41318654E+03 E0= -.41316504E+03  EK= 0.32008E+00 SP= 0.00E+00 SK= 0.00E+00
       N       E                     dE             d eps       ncg     rms          rms(c)
RMM:   1    -0.413195602386E+03   -0.90648E-02   -0.90512E+00  4294   0.836E-01    0.933E-01
RMM:   2    -0.413194227815E+03    0.13746E-02   -0.11834E-01  4306   0.121E-01    0.674E-01
RMM:   3    -0.413192859927E+03    0.13679E-02   -0.22334E-02  5018   0.890E-02    0.264E-01
RMM:   4    -0.413224333999E+03   -0.31474E-01   -0.46133E-02  5083   0.182E-01    0.770E-01
RMM:   5    -0.413189006232E+03    0.35328E-01   -0.14953E-02  4737   0.126E-01    0.580E-02
RMM:   6    -0.413189160378E+03   -0.15415E-03   -0.29780E-03  5734   0.526E-02    0.369E-02
RMM:   7    -0.413189163269E+03   -0.28912E-05   -0.49312E-04  5697   0.205E-02    0.241E-02
RMM:   8    -0.413189154590E+03    0.86790E-05   -0.88978E-05  5186   0.106E-02    0.112E-02
RMM:   9    -0.413189145407E+03    0.91839E-05   -0.13415E-05  3938   0.458E-03    0.611E-03
RMM:  10    -0.413189139809E+03    0.55974E-05   -0.29052E-06  2677   0.256E-03    0.392E-03
RMM:  11    -0.413189135009E+03    0.48002E-05   -0.11654E-06  2498   0.181E-03    0.213E-03
RMM:  12    -0.413189127028E+03    0.79805E-05   -0.11730E-06  2489   0.176E-03    0.791E-04
RMM:  13    -0.413189123024E+03    0.40043E-05   -0.55989E-07  2368   0.126E-03    0.513E-04
RMM:  14    -0.413189121523E+03    0.15011E-05   -0.27755E-07  1977   0.899E-04    0.390E-04
RMM:  15    -0.413189118693E+03    0.28305E-05   -0.15164E-07  1475   0.728E-04    0.186E-04
RMM:  16    -0.413189113060E+03    0.56326E-05   -0.14224E-07  1525   0.720E-04    0.264E-04
RMM:  17    -0.413189109405E+03    0.36548E-05   -0.78421E-08  1055   0.617E-04    0.202E-04
RMM:  18    -0.413189105065E+03    0.43405E-05   -0.73959E-08  1125   0.620E-04    0.933E-05
RMM:  19    -0.413189103177E+03    0.18880E-05   -0.48331E-08  1012   0.583E-04    0.400E-05
RMM:  20    -0.413189102352E+03    0.82519E-06   -0.25782E-08   828   0.552E-04
   32 T=    66. E= -.41286670E+03 F= -.41318910E+03 E0= -.41316765E+03  EK= 0.32240E+00 SP= 0.00E+00 SK= 0.00E+00
       N       E                     dE             d eps       ncg     rms          rms(c)
RMM:   1    -0.413203556955E+03   -0.14454E-01   -0.91002E+00  4298   0.875E-01    0.920E-01
RMM:   2    -0.413195764474E+03    0.77925E-02   -0.12734E-01  4276   0.122E-01    0.670E-01
RMM:   3    -0.413191098346E+03    0.46661E-02   -0.18800E-02  4385   0.646E-02    0.737E-02
RMM:   4    -0.413195172895E+03   -0.40745E-02   -0.43239E-03  5155   0.552E-02    0.272E-01
RMM:   5    -0.413191065995E+03    0.41069E-02   -0.21318E-03  4827   0.451E-02    0.423E-02
RMM:   6    -0.413191106124E+03   -0.40129E-04   -0.70056E-04  5666   0.247E-02    0.311E-02
RMM:   7    -0.413191075497E+03    0.30627E-04   -0.24834E-04  5141   0.163E-02    0.184E-02
RMM:   8    -0.413191064427E+03    0.11070E-04   -0.23978E-05  4495   0.583E-03    0.739E-03
RMM:   9    -0.413191062378E+03    0.20492E-05   -0.29041E-06  2642   0.229E-03    0.478E-03
RMM:  10    -0.413191058161E+03    0.42173E-05   -0.11471E-06  2484   0.176E-03    0.260E-03
RMM:  11    -0.413191054123E+03    0.40372E-05   -0.81532E-07  2430   0.142E-03    0.114E-03
RMM:  12    -0.413191050474E+03    0.36493E-05   -0.44127E-07  2231   0.109E-03    0.513E-04
RMM:  13    -0.413191047789E+03    0.26855E-05   -0.24423E-07  1812   0.836E-04    0.279E-04
RMM:  14    -0.413191044869E+03    0.29197E-05   -0.12266E-07  1225   0.679E-04    0.187E-04
RMM:  15    -0.413191041132E+03    0.37368E-05   -0.83616E-08  1071   0.637E-04    0.902E-05
RMM:  16    -0.413191038286E+03    0.28463E-05   -0.61182E-08  1031   0.618E-04    0.714E-05
RMM:  17    -0.413191035163E+03    0.31226E-05   -0.54817E-08  1073   0.607E-04    0.467E-05
RMM:  18    -0.413191032837E+03    0.23264E-05   -0.37653E-08   951   0.576E-04    0.343E-05
RMM:  19    -0.413191032115E+03    0.72229E-06   -0.15871E-08   692   0.532E-04
   33 T=    66. E= -.41286646E+03 F= -.41319103E+03 E0= -.41316963E+03  EK= 0.32457E+00 SP= 0.00E+00 SK= 0.00E+00
       N       E                     dE             d eps       ncg     rms          rms(c)
RMM:   1    -0.413194504863E+03   -0.34720E-02   -0.91104E+00  4303   0.787E-01    0.918E-01
RMM:   2    -0.413198258902E+03   -0.37540E-02   -0.11742E-01  4278   0.123E-01    0.679E-01
RMM:   3    -0.413193590756E+03    0.46681E-02   -0.21785E-02  4402   0.720E-02    0.693E-02
RMM:   4    -0.413199322186E+03   -0.57314E-02   -0.58314E-03  5146   0.650E-02    0.324E-01
RMM:   5    -0.413193437155E+03    0.58850E-02   -0.30025E-03  4825   0.532E-02    0.417E-02
RMM:   6    -0.413193485897E+03   -0.48742E-04   -0.80566E-04  5721   0.261E-02    0.294E-02
RMM:   7    -0.413193471776E+03    0.14122E-04   -0.25293E-04  5229   0.163E-02    0.188E-02
RMM:   8    -0.413193458879E+03    0.12897E-04   -0.22197E-05  4339   0.591E-03    0.779E-03
RMM:   9    -0.413193457734E+03    0.11455E-05   -0.31820E-06  2710   0.240E-03    0.512E-03
RMM:  10    -0.413193456100E+03    0.16336E-05   -0.14850E-06  2500   0.195E-03    0.266E-03
RMM:  11    -0.413193454641E+03    0.14589E-05   -0.92310E-07  2452   0.156E-03    0.128E-03
RMM:  12    -0.413193452921E+03    0.17202E-05   -0.51706E-07  2264   0.119E-03    0.582E-04
RMM:  13    -0.413193451633E+03    0.12879E-05   -0.27407E-07  1898   0.885E-04    0.303E-04
RMM:  14    -0.413193449882E+03    0.17506E-05   -0.14370E-07  1356   0.711E-04    0.210E-04
RMM:  15    -0.413193447348E+03    0.25337E-05   -0.97738E-08  1124   0.655E-04    0.105E-04
RMM:  16    -0.413193445534E+03    0.18140E-05   -0.61018E-08   968   0.614E-04    0.690E-05
RMM:  17    -0.413193442808E+03    0.27265E-05   -0.59946E-08  1031   0.615E-04    0.448E-05
RMM:  18    -0.413193441022E+03    0.17858E-05   -0.39482E-08   946   0.583E-04    0.380E-05
RMM:  19    -0.413193440339E+03    0.68275E-06   -0.14981E-08   681   0.541E-04
   34 T=    67. E= -.41286651E+03 F= -.41319344E+03 E0= -.41317209E+03  EK= 0.32693E+00 SP= 0.00E+00 SK= 0.00E+00
       N       E                     dE             d eps       ncg     rms          rms(c)
RMM:   1    -0.413201275571E+03   -0.78345E-02   -0.92081E+00  4303   0.854E-01    0.938E-01
RMM:   2    -0.413200709406E+03    0.56616E-03   -0.12489E-01  4271   0.130E-01    0.682E-01
RMM:   3    -0.413196187469E+03    0.45219E-02   -0.20129E-02  4267   0.745E-02    0.633E-02
RMM:   4    -0.413196264208E+03   -0.76739E-04   -0.42933E-04  5072   0.139E-02    0.525E-02
RMM:   5    -0.413196281988E+03   -0.17780E-04   -0.21051E-04  4943   0.136E-02    0.575E-02
RMM:   6    -0.413196233031E+03    0.48957E-04   -0.45078E-04  5236   0.206E-02    0.320E-02
RMM:   7    -0.413196178262E+03    0.54769E-04   -0.18830E-04  4810   0.151E-02    0.154E-02
RMM:   8    -0.413196175525E+03    0.27366E-05   -0.30537E-05  4641   0.550E-03    0.546E-03
RMM:   9    -0.413196174499E+03    0.10258E-05   -0.41843E-06  2498   0.215E-03    0.191E-03
RMM:  10    -0.413196168760E+03    0.57396E-05   -0.96121E-07  2346   0.154E-03    0.864E-04
RMM:  11    -0.413196165724E+03    0.30363E-05   -0.26434E-07  1827   0.873E-04    0.512E-04
RMM:  12    -0.413196161792E+03    0.39320E-05   -0.14803E-07  1273   0.721E-04    0.382E-04
RMM:  13    -0.413196157918E+03    0.38736E-05   -0.13058E-07  1340   0.689E-04    0.263E-04
RMM:  14    -0.413196152445E+03    0.54730E-05   -0.12496E-07  1214   0.678E-04    0.203E-04
RMM:  15    -0.413196150228E+03    0.22168E-05   -0.39264E-08   711   0.573E-04    0.158E-04
RMM:  16    -0.413196146435E+03    0.37931E-05   -0.42650E-08   834   0.589E-04    0.890E-05
RMM:  17    -0.413196144937E+03    0.14980E-05   -0.20129E-08   646   0.543E-04    0.556E-05
RMM:  18    -0.413196144263E+03    0.67379E-06   -0.10563E-08   542   0.526E-04
   35 T=    67. E= -.41286671E+03 F= -.41319614E+03 E0= -.41317484E+03  EK= 0.32943E+00 SP= 0.00E+00 SK= 0.00E+00
       N       E                     dE             d eps       ncg     rms          rms(c)
RMM:   1    -0.413205002872E+03   -0.88579E-02   -0.92279E+00  4301   0.899E-01    0.937E-01
RMM:   2    -0.413202719998E+03    0.22829E-02   -0.12381E-01  4264   0.134E-01    0.677E-01
RMM:   3    -0.413198355704E+03    0.43643E-02   -0.19906E-02  4366   0.731E-02    0.700E-02
RMM:   4    -0.413201030239E+03   -0.26745E-02   -0.29147E-03  5175   0.459E-02    0.223E-01
RMM:   5    -0.413198342684E+03    0.26876E-02   -0.14676E-03  4826   0.376E-02    0.431E-02
RMM:   6    -0.413198377708E+03   -0.35025E-04   -0.61623E-04  5514   0.245E-02    0.334E-02
RMM:   7    -0.413198338721E+03    0.38987E-04   -0.25347E-04  5009   0.168E-02    0.188E-02
RMM:   8    -0.413198330307E+03    0.84148E-05   -0.31883E-05  4823   0.608E-03    0.741E-03
RMM:   9    -0.413198328371E+03    0.19354E-05   -0.38845E-06  2650   0.239E-03    0.390E-03
RMM:  10    -0.413198323296E+03    0.50752E-05   -0.10803E-06  2483   0.176E-03    0.218E-03
RMM:  11    -0.413198318467E+03    0.48290E-05   -0.64433E-07  2381   0.126E-03    0.884E-04
RMM:  12    -0.413198313879E+03    0.45883E-05   -0.33842E-07  2020   0.964E-04    0.355E-04
RMM:  13    -0.413198309682E+03    0.41967E-05   -0.18811E-07  1550   0.779E-04    0.253E-04
RMM:  14    -0.413198306303E+03    0.33794E-05   -0.92362E-08  1077   0.657E-04    0.184E-04
RMM:  15    -0.413198300909E+03    0.53932E-05   -0.83074E-08  1121   0.652E-04    0.830E-05
RMM:  16    -0.413198297226E+03    0.36837E-05   -0.61100E-08  1078   0.616E-04    0.904E-05
RMM:  17    -0.413198294637E+03    0.25891E-05   -0.35195E-08   871   0.571E-04    0.406E-05
RMM:  18    -0.413198292184E+03    0.24527E-05   -0.29092E-08   845   0.560E-04    0.326E-05
RMM:  19    -0.413198291714E+03    0.46944E-06   -0.11503E-08   581   0.516E-04
   36 T=    68. E= -.41286653E+03 F= -.41319829E+03 E0= -.41317703E+03  EK= 0.33176E+00 SP= 0.00E+00 SK= 0.00E+00
       N       E                     dE             d eps       ncg     rms          rms(c)
RMM:   1    -0.413204265770E+03   -0.59736E-02   -0.92787E+00  4304   0.876E-01    0.926E-01
RMM:   2    -0.413206292235E+03   -0.20265E-02   -0.12216E-01  4253   0.131E-01    0.684E-01
RMM:   3    -0.413201350687E+03    0.49415E-02   -0.21444E-02  4469   0.727E-02    0.749E-02
RMM:   4    -0.413211456501E+03   -0.10106E-01   -0.10186E-02  5154   0.853E-02    0.428E-01
RMM:   5    -0.413201170300E+03    0.10286E-01   -0.52117E-03  4821   0.707E-02    0.443E-02
RMM:   6    -0.413201193736E+03   -0.23436E-04   -0.11314E-03  5733   0.323E-02    0.313E-02
RMM:   7    -0.413201193021E+03    0.71434E-06   -0.31779E-04  5311   0.179E-02    0.202E-02
RMM:   8    -0.413201177445E+03    0.15577E-04   -0.34885E-05  4875   0.710E-03    0.916E-03
RMM:   9    -0.413201176284E+03    0.11607E-05   -0.59233E-06  2989   0.300E-03    0.569E-03
RMM:  10    -0.413201174262E+03    0.20215E-05   -0.17133E-06  2536   0.220E-03    0.299E-03
RMM:  11    -0.413201171913E+03    0.23496E-05   -0.11431E-06  2492   0.174E-03    0.150E-03
RMM:  12    -0.413201169283E+03    0.26293E-05   -0.68797E-07  2408   0.136E-03    0.761E-04
RMM:  13    -0.413201167631E+03    0.16523E-05   -0.33593E-07  2018   0.972E-04    0.369E-04
RMM:  14    -0.413201165886E+03    0.17455E-05   -0.17512E-07  1535   0.752E-04    0.229E-04
RMM:  15    -0.413201163081E+03    0.28052E-05   -0.10832E-07  1220   0.673E-04    0.125E-04
RMM:  16    -0.413201160593E+03    0.24877E-05   -0.72226E-08  1038   0.632E-04    0.818E-05
RMM:  17    -0.413201158793E+03    0.17997E-05   -0.42568E-08   889   0.596E-04    0.497E-05
RMM:  18    -0.413201155437E+03    0.33565E-05   -0.55610E-08  1101   0.617E-04    0.316E-05
RMM:  19    -0.413201154506E+03    0.93067E-06   -0.20275E-08   748   0.550E-04
   37 T=    68. E= -.41286680E+03 F= -.41320115E+03 E0= -.41317993E+03  EK= 0.33435E+00 SP= 0.00E+00 SK= 0.00E+00
       N       E                     dE             d eps       ncg     rms          rms(c)
RMM:   1    -0.413213322928E+03   -0.12167E-01   -0.94408E+00  4309   0.953E-01    0.944E-01
RMM:   2    -0.413209007585E+03    0.43153E-02   -0.12620E-01  4252   0.128E-01    0.690E-01
RMM:   3    -0.413204248495E+03    0.47591E-02   -0.21097E-02  4745   0.682E-02    0.111E-01
RMM:   4    -0.413233437163E+03   -0.29189E-01   -0.30331E-02  5133   0.146E-01    0.715E-01
RMM:   5    -0.413203676536E+03    0.29761E-01   -0.14816E-02  4803   0.119E-01    0.513E-02
RMM:   6    -0.413203730003E+03   -0.53467E-04   -0.25129E-03  5826   0.478E-02    0.334E-02
RMM:   7    -0.413203743343E+03   -0.13340E-04   -0.35149E-04  5623   0.183E-02    0.185E-02
RMM:   8    -0.413203733613E+03    0.97302E-05   -0.57287E-05  4997   0.805E-03    0.105E-02
RMM:   9    -0.413203732667E+03    0.94588E-06   -0.17630E-05  4392   0.467E-03    0.774E-03
RMM:  10    -0.413203728056E+03    0.46113E-05   -0.24451E-06  2633   0.262E-03    0.426E-03
RMM:  11    -0.413203725665E+03    0.23911E-05   -0.12674E-06  2516   0.181E-03    0.261E-03
RMM:  12    -0.413203719745E+03    0.59193E-05   -0.17915E-06  2538   0.215E-03    0.133E-03
RMM:  13    -0.413203716848E+03    0.28970E-05   -0.65654E-07  2392   0.142E-03    0.838E-04
RMM:  14    -0.413203716303E+03    0.54552E-06   -0.26321E-07  2023   0.915E-04
   38 T=    69. E= -.41286676E+03 F= -.41320372E+03 E0= -.41318254E+03  EK= 0.33696E+00 SP= 0.00E+00 SK= 0.00E+00
       N       E                     dE             d eps       ncg     rms          rms(c)
RMM:   1    -0.413215670181E+03   -0.11953E-01   -0.94604E+00  4308   0.101E+00    0.954E-01
RMM:   2    -0.413211556446E+03    0.41137E-02   -0.13062E-01  4254   0.127E-01    0.687E-01
RMM:   3    -0.413206992361E+03    0.45641E-02   -0.19887E-02  4880   0.632E-02    0.133E-01
RMM:   4    -0.413243883984E+03   -0.36892E-01   -0.39320E-02  5133   0.166E-01    0.801E-01
RMM:   5    -0.413206215532E+03    0.37668E-01   -0.18594E-02  4793   0.134E-01    0.552E-02
RMM:   6    -0.413206302751E+03   -0.87219E-04   -0.31726E-03  5815   0.533E-02    0.358E-02
RMM:   7    -0.413206314115E+03   -0.11365E-04   -0.40910E-04  5634   0.193E-02    0.191E-02
RMM:   8    -0.413206303386E+03    0.10730E-04   -0.53908E-05  4901   0.770E-03    0.102E-02
RMM:   9    -0.413206302016E+03    0.13697E-05   -0.21372E-05  4544   0.480E-03    0.829E-03
RMM:  10    -0.413206294093E+03    0.79225E-05   -0.35691E-06  2797   0.288E-03    0.453E-03
RMM:  11    -0.413206289648E+03    0.44456E-05   -0.15676E-06  2503   0.204E-03    0.275E-03
RMM:  12    -0.413206279201E+03    0.10446E-04   -0.20104E-06  2556   0.227E-03    0.129E-03
RMM:  13    -0.413206274828E+03    0.43736E-05   -0.68122E-07  2430   0.149E-03    0.846E-04
RMM:  14    -0.413206274375E+03    0.45236E-06   -0.28131E-07  2094   0.946E-04
   39 T=    69. E= -.41286660E+03 F= -.41320627E+03 E0= -.41318513E+03  EK= 0.33968E+00 SP= 0.00E+00 SK= 0.00E+00
       N       E                     dE             d eps       ncg     rms          rms(c)
RMM:   1    -0.413219607114E+03   -0.13332E-01   -0.95167E+00  4310   0.103E+00    0.936E-01
RMM:   2    -0.413215061345E+03    0.45458E-02   -0.13157E-01  4253   0.126E-01    0.689E-01
RMM:   3    -0.413210552505E+03    0.45088E-02   -0.20866E-02  4943   0.675E-02    0.153E-01
RMM:   4    -0.413252683558E+03   -0.42131E-01   -0.46814E-02  5129   0.181E-01    0.856E-01
RMM:   5    -0.413209312985E+03    0.43371E-01   -0.20992E-02  4794   0.143E-01    0.568E-02
RMM:   6    -0.413209429387E+03   -0.11640E-03   -0.35586E-03  5816   0.563E-02    0.357E-02
RMM:   7    -0.413209444260E+03   -0.14873E-04   -0.42842E-04  5660   0.195E-02    0.188E-02
RMM:   8    -0.413209439234E+03    0.50257E-05   -0.55228E-05  4864   0.745E-03    0.990E-03
RMM:   9    -0.413209434697E+03    0.45369E-05   -0.16553E-05  4202   0.427E-03    0.693E-03
RMM:  10    -0.413209432038E+03    0.26593E-05   -0.46833E-06  2963   0.283E-03    0.438E-03
RMM:  11    -0.413209428401E+03    0.36377E-05   -0.14364E-06  2493   0.203E-03    0.264E-03
RMM:  12    -0.413209420620E+03    0.77808E-05   -0.17200E-06  2523   0.210E-03    0.105E-03
RMM:  13    -0.413209417433E+03    0.31870E-05   -0.58981E-07  2418   0.138E-03    0.807E-04
RMM:  14    -0.413209417149E+03    0.28332E-06   -0.25536E-07  2051   0.901E-04
   40 T=    70. E= -.41286681E+03 F= -.41320942E+03 E0= -.41318831E+03  EK= 0.34261E+00 SP= 0.00E+00 SK= 0.00E+00
       N       E                     dE             d eps       ncg     rms          rms(c)
RMM:   1    -0.413216478639E+03   -0.70612E-02   -0.95998E+00  4308   0.103E+00    0.949E-01
RMM:   2    -0.413217400419E+03   -0.92178E-03   -0.13222E-01  4261   0.132E-01    0.700E-01
RMM:   3    -0.413213143025E+03    0.42574E-02   -0.21892E-02  4977   0.702E-02    0.173E-01
RMM:   4    -0.413258120824E+03   -0.44978E-01   -0.51670E-02  5127   0.190E-01    0.885E-01
RMM:   5    -0.413211499200E+03    0.46622E-01   -0.22229E-02  4789   0.147E-01    0.585E-02
RMM:   6    -0.413211630804E+03   -0.13160E-03   -0.37857E-03  5814   0.580E-02    0.361E-02
RMM:   7    -0.413211644916E+03   -0.14112E-04   -0.46516E-04  5717   0.201E-02    0.199E-02
RMM:   8    -0.413211645755E+03   -0.83956E-06   -0.87722E-05  5186   0.928E-03    0.124E-02
RMM:   9    -0.413211637193E+03    0.85621E-05   -0.23807E-05  4584   0.535E-03    0.753E-03
RMM:  10    -0.413211633746E+03    0.34477E-05   -0.39170E-06  2758   0.293E-03    0.450E-03
RMM:  11    -0.413211630962E+03    0.27833E-05   -0.14581E-06  2502   0.202E-03    0.274E-03
RMM:  12    -0.413211624526E+03    0.64362E-05   -0.16486E-06  2526   0.207E-03    0.113E-03
RMM:  13    -0.413211620323E+03    0.42035E-05   -0.70968E-07  2434   0.145E-03    0.781E-04
RMM:  14    -0.413211619649E+03    0.67331E-06   -0.29541E-07  2100   0.959E-04
   41 T=    70. E= -.41286643E+03 F= -.41321162E+03 E0= -.41319055E+03  EK= 0.34519E+00 SP= 0.00E+00 SK= 0.00E+00
       N       E                     dE             d eps       ncg     rms          rms(c)
RMM:   1    -0.413239451094E+03   -0.27831E-01   -0.98245E+00  4311   0.121E+00    0.968E-01
RMM:   2    -0.413219698162E+03    0.19753E-01   -0.14855E-01  4285   0.134E-01    0.698E-01
RMM:   3    -0.413216761635E+03    0.29365E-02   -0.20090E-02  5058   0.731E-02    0.231E-01
RMM:   4    -0.413262904017E+03   -0.46142E-01   -0.57772E-02  5113   0.202E-01    0.904E-01
RMM:   5    -0.413214204484E+03    0.48700E-01   -0.22498E-02  4771   0.150E-01    0.627E-02
RMM:   6    -0.413214329336E+03   -0.12485E-03   -0.39220E-03  5792   0.592E-02    0.384E-02
RMM:   7    -0.413214341307E+03   -0.11971E-04   -0.52741E-04  5723   0.213E-02    0.233E-02
RMM:   8    -0.413214339800E+03    0.15066E-05   -0.13315E-04  5246   0.117E-02    0.146E-02
RMM:   9    -0.413214324280E+03    0.15520E-04   -0.24838E-05  4600   0.602E-03    0.684E-03
RMM:  10    -0.413214318272E+03    0.60083E-05   -0.54413E-06  3015   0.304E-03    0.422E-03
RMM:  11    -0.413214313597E+03    0.46755E-05   -0.13486E-06  2502   0.199E-03    0.247E-03
RMM:  12    -0.413214304230E+03    0.93667E-05   -0.12399E-06  2482   0.188E-03    0.980E-04
RMM:  13    -0.413214298110E+03    0.61195E-05   -0.58541E-07  2393   0.134E-03    0.597E-04
RMM:  14    -0.413214297005E+03    0.11059E-05   -0.27971E-07  2036   0.928E-04    0.403E-04
RMM:  15    -0.413214294556E+03    0.24490E-05   -0.14524E-07  1516   0.728E-04    0.252E-04
RMM:  16    -0.413214286663E+03    0.78923E-05   -0.13929E-07  1617   0.745E-04    0.308E-04
RMM:  17    -0.413214284954E+03    0.17097E-05   -0.55718E-08   972   0.591E-04    0.202E-04
RMM:  18    -0.413214279079E+03    0.58747E-05   -0.70664E-08  1315   0.639E-04    0.152E-04
RMM:  19    -0.413214277223E+03    0.18557E-05   -0.34302E-08   925   0.558E-04    0.626E-05
RMM:  20    -0.413214275532E+03    0.16906E-05   -0.33478E-08  1011   0.572E-04    0.852E-05
RMM:  21    -0.413214275413E+03    0.11977E-06   -0.13191E-08   691   0.521E-04
   42 T=    71. E= -.41286657E+03 F= -.41321428E+03 E0= -.41319324E+03  EK= 0.34771E+00 SP= 0.00E+00 SK= 0.00E+00
       N       E                     dE             d eps       ncg     rms          rms(c)
RMM:   1    -0.413234553696E+03   -0.20278E-01   -0.97461E+00  4312   0.122E+00    0.947E-01
RMM:   2    -0.413221941017E+03    0.12613E-01   -0.14770E-01  4304   0.142E-01    0.696E-01
RMM:   3    -0.413220360896E+03    0.15801E-02   -0.21470E-02  5072   0.831E-02    0.279E-01
RMM:   4    -0.413259992249E+03   -0.39631E-01   -0.56679E-02  5096   0.201E-01    0.856E-01
RMM:   5    -0.413216366978E+03    0.43625E-01   -0.19035E-02  4749   0.141E-01    0.621E-02
RMM:   6    -0.413216462801E+03   -0.95823E-04   -0.34883E-03  5770   0.557E-02    0.376E-02
RMM:   7    -0.413216468279E+03   -0.54777E-05   -0.52376E-04  5709   0.210E-02    0.243E-02
RMM:   8    -0.413216465458E+03    0.28210E-05   -0.12869E-04  5213   0.118E-02    0.134E-02
RMM:   9    -0.413216453680E+03    0.11778E-04   -0.19980E-05  4420   0.566E-03    0.594E-03
RMM:  10    -0.413216450197E+03    0.34836E-05   -0.46231E-06  2897   0.279E-03    0.372E-03
RMM:  11    -0.413216447163E+03    0.30336E-05   -0.12726E-06  2499   0.190E-03    0.208E-03
RMM:  12    -0.413216441470E+03    0.56933E-05   -0.10457E-06  2478   0.170E-03    0.828E-04
RMM:  13    -0.413216437663E+03    0.38063E-05   -0.50481E-07  2340   0.122E-03    0.456E-04
RMM:  14    -0.413216436550E+03    0.11133E-05   -0.24844E-07  1909   0.874E-04    0.311E-04
RMM:  15    -0.413216434119E+03    0.24309E-05   -0.13799E-07  1434   0.716E-04    0.156E-04
RMM:  16    -0.413216429946E+03    0.41737E-05   -0.10037E-07  1214   0.674E-04    0.142E-04
RMM:  17    -0.413216427880E+03    0.20653E-05   -0.58312E-08  1009   0.620E-04    0.787E-05
RMM:  18    -0.413216424911E+03    0.29696E-05   -0.53295E-08  1089   0.623E-04    0.641E-05
RMM:  19    -0.413216422486E+03    0.24243E-05   -0.43144E-08  1097   0.603E-04    0.345E-05
RMM:  20    -0.413216421714E+03    0.77264E-06   -0.22336E-08   827   0.551E-04
   43 T=    71. E= -.41286660E+03 F= -.41321642E+03 E0= -.41319541E+03  EK= 0.34982E+00 SP= 0.00E+00 SK= 0.00E+00
       N       E                     dE             d eps       ncg     rms          rms(c)
RMM:   1    -0.413232945923E+03   -0.16523E-01   -0.98423E+00  4314   0.125E+00    0.950E-01
RMM:   2    -0.413223591361E+03    0.93546E-02   -0.15397E-01  4309   0.153E-01    0.709E-01
RMM:   3    -0.413222732538E+03    0.85882E-03   -0.22781E-02  5063   0.908E-02    0.312E-01
RMM:   4    -0.413260716943E+03   -0.37984E-01   -0.58541E-02  5094   0.205E-01    0.850E-01
RMM:   5    -0.413217653719E+03    0.43063E-01   -0.18244E-02  4727   0.140E-01    0.626E-02
RMM:   6    -0.413217734013E+03   -0.80294E-04   -0.34001E-03  5750   0.550E-02    0.367E-02
RMM:   7    -0.413217733717E+03    0.29622E-06   -0.50637E-04  5734   0.208E-02    0.242E-02
RMM:   8    -0.413217730654E+03    0.30631E-05   -0.12639E-04  5193   0.118E-02    0.129E-02
RMM:   9    -0.413217720523E+03    0.10130E-04   -0.19700E-05  4419   0.565E-03    0.542E-03
RMM:  10    -0.413217718265E+03    0.22581E-05   -0.44794E-06  2859   0.272E-03    0.342E-03
RMM:  11    -0.413217715982E+03    0.22834E-05   -0.12787E-06  2497   0.188E-03    0.186E-03
RMM:  12    -0.413217711954E+03    0.40276E-05   -0.94708E-07  2474   0.160E-03    0.731E-04
RMM:  13    -0.413217709137E+03    0.28167E-05   -0.46910E-07  2256   0.115E-03    0.373E-04
RMM:  14    -0.413217707801E+03    0.13368E-05   -0.23792E-07  1817   0.845E-04    0.251E-04
RMM:  15    -0.413217704903E+03    0.28972E-05   -0.15346E-07  1406   0.726E-04    0.127E-04
RMM:  16    -0.413217702342E+03    0.25611E-05   -0.99181E-08  1171   0.665E-04    0.101E-04
RMM:  17    -0.413217700360E+03    0.19825E-05   -0.70372E-08  1132   0.637E-04    0.745E-05
RMM:  18    -0.413217697922E+03    0.24378E-05   -0.61263E-08  1184   0.627E-04    0.445E-05
RMM:  19    -0.413217695981E+03    0.19409E-05   -0.39548E-08  1005   0.580E-04    0.311E-05
RMM:  20    -0.413217695155E+03    0.82554E-06   -0.20924E-08   797   0.546E-04
   44 T=    72. E= -.41286635E+03 F= -.41321770E+03 E0= -.41319671E+03  EK= 0.35135E+00 SP= 0.00E+00 SK= 0.00E+00
       N       E                     dE             d eps       ncg     rms          rms(c)
RMM:   1    -0.413246477391E+03   -0.28781E-01   -0.99483E+00  4311   0.139E+00    0.974E-01
RMM:   2    -0.413224532052E+03    0.21945E-01   -0.15748E-01  4313   0.162E-01    0.706E-01
RMM:   3    -0.413226756645E+03   -0.22246E-02   -0.23952E-02  5094   0.102E-01    0.385E-01
RMM:   4    -0.413250734487E+03   -0.23978E-01   -0.50880E-02  5064   0.194E-01    0.732E-01
RMM:   5    -0.413219182911E+03    0.31552E-01   -0.12317E-02  4690   0.121E-01    0.613E-02
RMM:   6    -0.413219199193E+03   -0.16282E-04   -0.24844E-03  5676   0.476E-02    0.367E-02
RMM:   7    -0.413219193240E+03    0.59532E-05   -0.42121E-04  5637   0.198E-02    0.239E-02
RMM:   8    -0.413219184543E+03    0.86975E-05   -0.11881E-04  5119   0.118E-02    0.118E-02
RMM:   9    -0.413219172076E+03    0.12466E-04   -0.16071E-05  4292   0.549E-03    0.487E-03
RMM:  10    -0.413219167849E+03    0.42274E-05   -0.35300E-06  2776   0.250E-03    0.294E-03
RMM:  11    -0.413219162910E+03    0.49389E-05   -0.11825E-06  2490   0.181E-03    0.158E-03
RMM:  12    -0.413219156165E+03    0.67451E-05   -0.73777E-07  2439   0.145E-03    0.638E-04
RMM:  13    -0.413219152243E+03    0.39217E-05   -0.35709E-07  2076   0.102E-03    0.308E-04
RMM:  14    -0.413219149602E+03    0.26414E-05   -0.19832E-07  1643   0.795E-04    0.202E-04
RMM:  15    -0.413219143979E+03    0.56224E-05   -0.14120E-07  1351   0.726E-04    0.138E-04
RMM:  16    -0.413219141582E+03    0.23974E-05   -0.83610E-08  1138   0.653E-04    0.892E-05
RMM:  17    -0.413219137866E+03    0.37156E-05   -0.72678E-08  1225   0.648E-04    0.531E-05
RMM:  18    -0.413219134991E+03    0.28753E-05   -0.55420E-08  1159   0.611E-04    0.402E-05
RMM:  19    -0.413219132953E+03    0.20381E-05   -0.37785E-08  1013   0.570E-04    0.226E-05
RMM:  20    -0.413219132426E+03    0.52702E-06   -0.18340E-08   735   0.529E-04
   45 T=    72. E= -.41286663E+03 F= -.41321913E+03 E0= -.41319817E+03  EK= 0.35251E+00 SP= 0.00E+00 SK= 0.00E+00
       N       E                     dE             d eps       ncg     rms          rms(c)
RMM:   1    -0.413243097870E+03   -0.23965E-01   -0.98382E+00  4311   0.145E+00    0.957E-01
RMM:   2    -0.413224462427E+03    0.18635E-01   -0.15315E-01  4328   0.172E-01    0.700E-01
RMM:   3    -0.413229553942E+03   -0.50915E-02   -0.26348E-02  5103   0.115E-01    0.444E-01
RMM:   4    -0.413244008063E+03   -0.14454E-01   -0.47195E-02  5046   0.189E-01    0.652E-01
RMM:   5    -0.413219137364E+03    0.24871E-01   -0.88352E-03  4640   0.108E-01    0.590E-02
RMM:   6    -0.413219121078E+03    0.16287E-04   -0.19355E-03  5569   0.422E-02    0.345E-02
RMM:   7    -0.413219114035E+03    0.70429E-05   -0.35401E-04  5564   0.184E-02    0.226E-02
RMM:   8    -0.413219102872E+03    0.11163E-04   -0.11911E-04  5070   0.118E-02    0.108E-02
RMM:   9    -0.413219091033E+03    0.11839E-04   -0.14299E-05  4199   0.532E-03    0.456E-03
RMM:  10    -0.413219087339E+03    0.36943E-05   -0.28590E-06  2707   0.233E-03    0.266E-03
RMM:  11    -0.413219082461E+03    0.48779E-05   -0.11304E-06  2486   0.174E-03    0.139E-03
RMM:  12    -0.413219076607E+03    0.58536E-05   -0.66458E-07  2408   0.136E-03    0.630E-04
RMM:  13    -0.413219073174E+03    0.34332E-05   -0.31444E-07  1940   0.960E-04    0.302E-04
RMM:  14    -0.413219070306E+03    0.28677E-05   -0.17649E-07  1478   0.755E-04    0.179E-04
RMM:  15    -0.413219065093E+03    0.52134E-05   -0.13818E-07  1316   0.717E-04    0.130E-04
RMM:  16    -0.413219062865E+03    0.22277E-05   -0.82287E-08  1118   0.648E-04    0.829E-05
RMM:  17    -0.413219058453E+03    0.44119E-05   -0.84414E-08  1342   0.661E-04    0.600E-05
RMM:  18    -0.413219056491E+03    0.19626E-05   -0.47429E-08  1021   0.577E-04    0.349E-05
RMM:  19    -0.413219054788E+03    0.17027E-05   -0.35091E-08   931   0.557E-04    0.193E-05
RMM:  20    -0.413219054446E+03    0.34168E-06   -0.20738E-08   754   0.525E-04
   46 T=    72. E= -.41286640E+03 F= -.41321905E+03 E0= -.41319811E+03  EK= 0.35266E+00 SP= 0.00E+00 SK= 0.00E+00
       N       E                     dE             d eps       ncg     rms          rms(c)
RMM:   1    -0.413233344079E+03   -0.14289E-01   -0.97945E+00  4310   0.146E+00    0.948E-01
RMM:   2    -0.413224047092E+03    0.92970E-02   -0.15146E-01  4339   0.178E-01    0.709E-01
RMM:   3    -0.413231128868E+03   -0.70818E-02   -0.29285E-02  5092   0.126E-01    0.483E-01
RMM:   4    -0.413242004789E+03   -0.10876E-01   -0.48464E-02  5038   0.193E-01    0.633E-01
RMM:   5    -0.413218440947E+03    0.23564E-01   -0.79569E-03  4611   0.105E-01    0.582E-02
RMM:   6    -0.413218407471E+03    0.33476E-04   -0.17596E-03  5532   0.403E-02    0.323E-02
RMM:   7    -0.413218402527E+03    0.49433E-05   -0.31591E-04  5566   0.176E-02    0.217E-02
RMM:   8    -0.413218392146E+03    0.10381E-04   -0.12140E-04  5078   0.118E-02    0.103E-02
RMM:   9    -0.413218381629E+03    0.10517E-04   -0.13820E-05  4133   0.529E-03    0.434E-03
RMM:  10    -0.413218379264E+03    0.23651E-05   -0.28805E-06  2698   0.229E-03    0.251E-03
RMM:  11    -0.413218375874E+03    0.33896E-05   -0.11652E-06  2492   0.174E-03    0.129E-03
RMM:  12    -0.413218372072E+03    0.38026E-05   -0.65986E-07  2389   0.134E-03    0.641E-04
RMM:  13    -0.413218369513E+03    0.25583E-05   -0.31933E-07  1870   0.945E-04    0.305E-04
RMM:  14    -0.413218367139E+03    0.23744E-05   -0.18468E-07  1419   0.752E-04    0.172E-04
RMM:  15    -0.413218363569E+03    0.35701E-05   -0.15249E-07  1340   0.721E-04    0.120E-04
RMM:  16    -0.413218361675E+03    0.18938E-05   -0.93718E-08  1182   0.651E-04    0.854E-05
RMM:  17    -0.413218357958E+03    0.37166E-05   -0.10124E-07  1394   0.674E-04    0.602E-05
RMM:  18    -0.413218356566E+03    0.13919E-05   -0.48736E-08   990   0.569E-04    0.343E-05
RMM:  19    -0.413218355412E+03    0.11540E-05   -0.32960E-08   883   0.541E-04    0.195E-05
RMM:  20    -0.413218354906E+03    0.50674E-06   -0.21030E-08   763   0.521E-04
   47 T=    72. E= -.41286649E+03 F= -.41321835E+03 E0= -.41319743E+03  EK= 0.35186E+00 SP= 0.00E+00 SK= 0.00E+00
       N       E                     dE             d eps       ncg     rms          rms(c)
RMM:   1    -0.413243528047E+03   -0.25173E-01   -0.98347E+00  4307   0.163E+00    0.964E-01
RMM:   2    -0.413222172294E+03    0.21356E-01   -0.16453E-01  4399   0.194E-01    0.708E-01
RMM:   3    -0.413234870166E+03   -0.12698E-01   -0.31654E-02  5127   0.141E-01    0.583E-01
RMM:   4    -0.413232993213E+03    0.18770E-02   -0.45036E-02  5001   0.189E-01    0.532E-01
RMM:   5    -0.413216709410E+03    0.16284E-01   -0.51925E-03  4561   0.933E-02    0.581E-02
RMM:   6    -0.413216628883E+03    0.80526E-04   -0.10450E-03  5186   0.333E-02    0.313E-02
RMM:   7    -0.413216622650E+03    0.62333E-05   -0.21617E-04  5512   0.148E-02    0.184E-02
RMM:   8    -0.413216619029E+03    0.36214E-05   -0.13198E-04  5168   0.119E-02    0.117E-02
RMM:   9    -0.413216603613E+03    0.15416E-04   -0.17685E-05  4394   0.583E-03    0.440E-03
RMM:  10    -0.413216600535E+03    0.30780E-05   -0.32771E-06  2740   0.239E-03    0.241E-03
RMM:  11    -0.413216594648E+03    0.58874E-05   -0.13421E-06  2466   0.188E-03    0.125E-03
RMM:  12    -0.413216590344E+03    0.43033E-05   -0.59699E-07  2357   0.133E-03    0.729E-04
RMM:  13    -0.413216586289E+03    0.40551E-05   -0.29050E-07  1793   0.939E-04    0.362E-04
RMM:  14    -0.413216582147E+03    0.41423E-05   -0.16072E-07  1395   0.737E-04    0.199E-04
RMM:  15    -0.413216578071E+03    0.40761E-05   -0.11415E-07  1223   0.682E-04    0.131E-04
RMM:  16    -0.413216575505E+03    0.25661E-05   -0.77793E-08  1136   0.630E-04    0.109E-04
RMM:  17    -0.413216571757E+03    0.37472E-05   -0.73192E-08  1204   0.620E-04    0.583E-05
RMM:  18    -0.413216569495E+03    0.22623E-05   -0.42909E-08   936   0.556E-04    0.492E-05
RMM:  19    -0.413216568687E+03    0.80790E-06   -0.21464E-08   681   0.512E-04
   48 T=    71. E= -.41286672E+03 F= -.41321657E+03 E0= -.41319565E+03  EK= 0.34985E+00 SP= 0.00E+00 SK= 0.00E+00
       N       E                     dE             d eps       ncg     rms          rms(c)
RMM:   1    -0.413249301529E+03   -0.32732E-01   -0.97616E+00  4305   0.177E+00    0.954E-01
RMM:   2    -0.413218047185E+03    0.31254E-01   -0.17279E-01  4454   0.206E-01    0.698E-01
RMM:   3    -0.413236844898E+03   -0.18798E-01   -0.34966E-02  5139   0.155E-01    0.671E-01
RMM:   4    -0.413224165408E+03    0.12679E-01   -0.43004E-02  4971   0.187E-01    0.453E-01
RMM:   5    -0.413212850353E+03    0.11315E-01   -0.41688E-03  4537   0.880E-02    0.604E-02
[...]
RMM:   1    -0.413954265014E+03   -0.14066E+00   -0.26427E+01  4289   0.901E+00    0.215E+00
RMM:   2    -0.413757749197E+03    0.19652E+00   -0.93453E-01  5377   0.122E+00    0.218E+00
RMM:   3    -0.413797370717E+03   -0.39622E-01   -0.22154E-01  5661   0.516E-01    0.212E+00
RMM:   4    -0.413725519694E+03    0.71851E-01   -0.11037E-01  5185   0.390E-01    0.129E+00
RMM:   5    -0.413723265458E+03    0.22542E-02   -0.11176E-01  4570   0.452E-01    0.460E-01
RMM:   6    -0.413712782226E+03    0.10483E-01   -0.40260E-02  4727   0.254E-01    0.214E-01
RMM:   7    -0.413710661236E+03    0.21210E-02   -0.49132E-03  4831   0.106E-01    0.109E-01
RMM:   8    -0.413710444992E+03    0.21624E-03   -0.96395E-04  4705   0.441E-02    0.640E-02
RMM:   9    -0.413710394357E+03    0.50635E-04   -0.69178E-04  4536   0.349E-02    0.202E-02
RMM:  10    -0.413710410381E+03   -0.16024E-04   -0.21823E-04  5945   0.166E-02    0.145E-02
RMM:  11    -0.413710412412E+03   -0.20314E-05   -0.45426E-05  5152   0.778E-03    0.802E-03
RMM:  12    -0.413710416975E+03   -0.45629E-05   -0.12910E-05  4161   0.474E-03    0.423E-03
RMM:  13    -0.413710421905E+03   -0.49293E-05   -0.36925E-06  2864   0.278E-03    0.260E-03
RMM:  14    -0.413710424186E+03   -0.22813E-05   -0.13690E-06  2577   0.182E-03    0.112E-03
RMM:  15    -0.413710425196E+03   -0.10103E-05   -0.74457E-07  2365   0.131E-03    0.551E-04
RMM:  16    -0.413710426445E+03   -0.12485E-05   -0.55532E-07  2035   0.107E-03    0.279E-04
RMM:  17    -0.413710427093E+03   -0.64872E-06   -0.33713E-07  1694   0.879E-04
  140 T=   195. E= -.41275101E+03 F= -.41371043E+03 E0= -.41368632E+03  EK= 0.95941E+00 SP= 0.00E+00 SK= 0.00E+00
       N       E                     dE             d eps       ncg     rms          rms(c)
RMM:   1    -0.413874267821E+03   -0.16384E+00   -0.22130E+01  4289   0.836E+00    0.118E+00
RMM:   2    -0.413705156943E+03    0.16911E+00   -0.63779E-01  5418   0.965E-01    0.117E+00
RMM:   3    -0.413729224190E+03   -0.24067E-01   -0.12347E-01  5804   0.380E-01    0.123E+00
RMM:   4    -0.413693120504E+03    0.36104E-01   -0.39453E-02  5114   0.238E-01    0.725E-01
RMM:   5    -0.413691617135E+03    0.15034E-02   -0.49371E-02  4466   0.302E-01    0.301E-01
RMM:   6    -0.413688731326E+03    0.28858E-02   -0.18844E-02  4850   0.174E-01    0.163E-01
RMM:   7    -0.413687609328E+03    0.11220E-02   -0.30829E-03  5113   0.779E-02    0.995E-02
RMM:   8    -0.413687383688E+03    0.22564E-03   -0.74882E-04  4635   0.373E-02    0.553E-02
RMM:   9    -0.413687349663E+03    0.34025E-04   -0.61963E-04  4533   0.324E-02    0.174E-02
RMM:  10    -0.413687361589E+03   -0.11926E-04   -0.12471E-04  5824   0.126E-02    0.129E-02
RMM:  11    -0.413687363694E+03   -0.21052E-05   -0.28240E-05  4755   0.670E-03    0.600E-03
RMM:  12    -0.413687369307E+03   -0.56130E-05   -0.68359E-06  3263   0.368E-03    0.367E-03
RMM:  13    -0.413687373451E+03   -0.41438E-05   -0.19936E-06  2656   0.230E-03    0.187E-03
RMM:  14    -0.413687375997E+03   -0.25460E-05   -0.11774E-06  2529   0.168E-03    0.789E-04
RMM:  15    -0.413687377911E+03   -0.19138E-05   -0.65975E-07  2195   0.122E-03    0.510E-04
RMM:  16    -0.413687379686E+03   -0.17753E-05   -0.51731E-07  2119   0.106E-03    0.229E-04
RMM:  17    -0.413687380761E+03   -0.10751E-05   -0.31553E-07  1680   0.850E-04    0.155E-04
RMM:  18    -0.413687382034E+03   -0.12726E-05   -0.30303E-07  1627   0.820E-04    0.101E-04
RMM:  19    -0.413687382583E+03   -0.54881E-06   -0.16840E-07  1316   0.689E-04
  141 T=   191. E= -.41274859E+03 F= -.41368738E+03 E0= -.41366398E+03  EK= 0.93880E+00 SP= 0.00E+00 SK= 0.00E+00
       N       E                     dE             d eps       ncg     rms          rms(c)
RMM:   1    -0.413973839026E+03   -0.28646E+00   -0.24144E+01  4295   0.887E+00    0.147E+00
RMM:   2    -0.413801333626E+03    0.17251E+00   -0.64130E-01  5448   0.937E-01    0.115E+00
RMM:   3    -0.413901568259E+03   -0.10023E+00   -0.21634E-01  5616   0.483E-01    0.166E+00
RMM:   4    -0.413789837317E+03    0.11173E+00   -0.10159E-01  5011   0.383E-01    0.541E-01
RMM:   5    -0.413787322823E+03    0.25145E-02   -0.61661E-02  5057   0.308E-01    0.279E-01
RMM:   6    -0.413784959740E+03    0.23631E-02   -0.14443E-02  5230   0.150E-01    0.156E-01
RMM:   7    -0.413784168698E+03    0.79104E-03   -0.25585E-03  4983   0.673E-02    0.868E-02
RMM:   8    -0.413784082889E+03    0.85809E-04   -0.15776E-03  5507   0.481E-02    0.521E-02
RMM:   9    -0.413784060060E+03    0.22829E-04   -0.43136E-04  5318   0.252E-02    0.325E-02
RMM:  10    -0.413784047119E+03    0.12940E-04   -0.18224E-04  5633   0.160E-02    0.127E-02
RMM:  11    -0.413784053027E+03   -0.59073E-05   -0.43059E-05  5461   0.738E-03    0.861E-03
RMM:  12    -0.413784056677E+03   -0.36502E-05   -0.11488E-05  4102   0.460E-03    0.346E-03
RMM:  13    -0.413784059358E+03   -0.26815E-05   -0.24402E-06  2702   0.237E-03    0.174E-03
RMM:  14    -0.413784062430E+03   -0.30716E-05   -0.12545E-06  2539   0.179E-03    0.900E-04
RMM:  15    -0.413784064632E+03   -0.22021E-05   -0.73608E-07  2422   0.134E-03    0.513E-04
RMM:  16    -0.413784066142E+03   -0.15099E-05   -0.45215E-07  2004   0.101E-03    0.296E-04
RMM:  17    -0.413784067322E+03   -0.11802E-05   -0.34221E-07  1762   0.882E-04    0.193E-04
RMM:  18    -0.413784068510E+03   -0.11882E-05   -0.37146E-07  1816   0.864E-04    0.136E-04
RMM:  19    -0.413784068934E+03   -0.42370E-06   -0.16526E-07  1287   0.654E-04
  142 T=   206. E= -.41277044E+03 F= -.41378407E+03 E0= -.41376174E+03  EK= 0.10136E+01 SP= 0.00E+00 SK= 0.00E+00
       N       E                     dE             d eps       ncg     rms          rms(c)
RMM:   1    -0.413861737506E+03   -0.77669E-01   -0.23961E+01  4295   0.901E+00    0.137E+00
RMM:   2    -0.413712964237E+03    0.14877E+00   -0.62023E-01  5430   0.925E-01    0.111E+00
RMM:   3    -0.413784817595E+03   -0.71853E-01   -0.17835E-01  5664   0.440E-01    0.149E+00
RMM:   4    -0.413702775159E+03    0.82042E-01   -0.80309E-02  5036   0.339E-01    0.536E-01
RMM:   5    -0.413702203737E+03    0.57142E-03   -0.56968E-02  5042   0.298E-01    0.290E-01
RMM:   6    -0.413699501117E+03    0.27026E-02   -0.15372E-02  5158   0.156E-01    0.163E-01
RMM:   7    -0.413698689292E+03    0.81183E-03   -0.24478E-03  5039   0.674E-02    0.911E-02
RMM:   8    -0.413698605694E+03    0.83598E-04   -0.14432E-03  5502   0.459E-02    0.460E-02
RMM:   9    -0.413698590741E+03    0.14952E-04   -0.46440E-04  5282   0.258E-02    0.303E-02
RMM:  10    -0.413698585033E+03    0.57089E-05   -0.15651E-04  5586   0.151E-02    0.136E-02
RMM:  11    -0.413698591816E+03   -0.67833E-05   -0.44149E-05  5444   0.769E-03    0.936E-03
RMM:  12    -0.413698596541E+03   -0.47256E-05   -0.15091E-05  4330   0.517E-03    0.348E-03
RMM:  13    -0.413698599495E+03   -0.29536E-05   -0.30597E-06  2778   0.253E-03    0.171E-03
RMM:  14    -0.413698602429E+03   -0.29337E-05   -0.14035E-06  2559   0.187E-03    0.100E-03
RMM:  15    -0.413698604296E+03   -0.18672E-05   -0.78001E-07  2411   0.139E-03    0.599E-04
RMM:  16    -0.413698605363E+03   -0.10671E-05   -0.51201E-07  2047   0.104E-03    0.318E-04
RMM:  17    -0.413698605887E+03   -0.52431E-06   -0.51657E-07  2036   0.101E-03
  143 T=   191. E= -.41275836E+03 F= -.41369861E+03 E0= -.41367739E+03  EK= 0.94024E+00 SP= 0.00E+00 SK= 0.00E+00
       N       E                     dE             d eps       ncg     rms          rms(c)
RMM:   1    -0.413636475920E+03    0.62129E-01   -0.19345E+01  4294   0.824E+00    0.949E-01
RMM:   2    -0.413550956074E+03    0.85520E-01   -0.46707E-01  5402   0.809E-01    0.863E-01
RMM:   3    -0.413565583435E+03   -0.14627E-01   -0.90068E-02  5789   0.319E-01    0.963E-01
RMM:   4    -0.413540851865E+03    0.24732E-01   -0.30935E-02  5126   0.212E-01    0.493E-01
RMM:   5    -0.413541346645E+03   -0.49478E-03   -0.29324E-02  4798   0.223E-01    0.238E-01
RMM:   6    -0.413540170957E+03    0.11757E-02   -0.13129E-02  5109   0.141E-01    0.152E-01
RMM:   7    -0.413539371972E+03    0.79898E-03   -0.18462E-03  4926   0.607E-02    0.886E-02
RMM:   8    -0.413539268394E+03    0.10358E-03   -0.92450E-04  5453   0.369E-02    0.425E-02
RMM:   9    -0.413539259308E+03    0.90865E-05   -0.45807E-04  4935   0.256E-02    0.229E-02
RMM:  10    -0.413539263011E+03   -0.37031E-05   -0.10787E-04  5610   0.126E-02    0.130E-02
RMM:  11    -0.413539267150E+03   -0.41385E-05   -0.32856E-05  5041   0.709E-03    0.831E-03
RMM:  12    -0.413539273448E+03   -0.62982E-05   -0.10862E-05  3878   0.452E-03    0.325E-03
RMM:  13    -0.413539276564E+03   -0.31167E-05   -0.32105E-06  2790   0.253E-03    0.161E-03
RMM:  14    -0.413539279163E+03   -0.25988E-05   -0.14290E-06  2559   0.185E-03    0.990E-04
RMM:  15    -0.413539280692E+03   -0.15291E-05   -0.94260E-07  2393   0.143E-03    0.647E-04
RMM:  16    -0.413539281087E+03   -0.39471E-06   -0.65758E-07  2114   0.109E-03
  144 T=   162. E= -.41274325E+03 F= -.41353928E+03 E0= -.41351885E+03  EK= 0.79603E+00 SP= 0.00E+00 SK= 0.00E+00
       N       E                     dE             d eps       ncg     rms          rms(c)
RMM:   1    -0.413577848894E+03   -0.38568E-01   -0.16280E+01  4296   0.762E+00    0.958E-01
RMM:   2    -0.413523793890E+03    0.54055E-01   -0.39523E-01  5368   0.771E-01    0.956E-01
RMM:   3    -0.413526060948E+03   -0.22671E-02   -0.83197E-02  5674   0.313E-01    0.945E-01
RMM:   4    -0.413503654448E+03    0.22406E-01   -0.34641E-02  5186   0.222E-01    0.477E-01
RMM:   5    -0.413503405883E+03    0.24857E-03   -0.19899E-02  4704   0.190E-01    0.222E-01
RMM:   6    -0.413503140132E+03    0.26575E-03   -0.12935E-02  5115   0.136E-01    0.139E-01
RMM:   7    -0.413502197614E+03    0.94252E-03   -0.20707E-03  4837   0.631E-02    0.720E-02
RMM:   8    -0.413502146231E+03    0.51383E-04   -0.55471E-04  5599   0.281E-02    0.447E-02
RMM:   9    -0.413502124812E+03    0.21419E-04   -0.37322E-04  4506   0.239E-02    0.158E-02
RMM:  10    -0.413502137739E+03   -0.12927E-04   -0.97917E-05  5739   0.113E-02    0.123E-02
RMM:  11    -0.413502138239E+03   -0.50007E-06   -0.27212E-05  4410   0.673E-03    0.590E-03
RMM:  12    -0.413502143857E+03   -0.56182E-05   -0.71727E-06  3327   0.371E-03    0.356E-03
RMM:  13    -0.413502146553E+03   -0.26956E-05   -0.22666E-06  2677   0.233E-03    0.144E-03
RMM:  14    -0.413502147824E+03   -0.12713E-05   -0.12412E-06  2527   0.170E-03    0.895E-04
RMM:  15    -0.413502148343E+03   -0.51904E-06   -0.98266E-07  2422   0.141E-03
  145 T=   154. E= -.41274536E+03 F= -.41350215E+03 E0= -.41348200E+03  EK= 0.75679E+00 SP= 0.00E+00 SK= 0.00E+00
       N       E                     dE             d eps       ncg     rms          rms(c)
RMM:   1    -0.413669599483E+03   -0.16745E+00   -0.16819E+01  4296   0.776E+00    0.125E+00
RMM:   2    -0.413612930890E+03    0.56669E-01   -0.45066E-01  5373   0.849E-01    0.124E+00
RMM:   3    -0.413624152653E+03   -0.11222E-01   -0.12232E-01  5568   0.377E-01    0.125E+00
RMM:   4    -0.413580890296E+03    0.43262E-01   -0.63522E-02  5202   0.295E-01    0.580E-01
RMM:   5    -0.413579757550E+03    0.11327E-02   -0.26314E-02  4801   0.218E-01    0.256E-01
RMM:   6    -0.413579081706E+03    0.67584E-03   -0.16492E-02  5098   0.152E-01    0.151E-01
RMM:   7    -0.413577888591E+03    0.11931E-02   -0.27904E-03  4804   0.729E-02    0.670E-02
RMM:   8    -0.413577851807E+03    0.36784E-04   -0.58347E-04  5477   0.296E-02    0.432E-02
RMM:   9    -0.413577833554E+03    0.18252E-04   -0.28138E-04  4523   0.214E-02    0.161E-02
RMM:  10    -0.413577844028E+03   -0.10474E-04   -0.90315E-05  5729   0.109E-02    0.114E-02
RMM:  11    -0.413577844570E+03   -0.54196E-06   -0.23144E-05  4535   0.609E-03    0.553E-03
RMM:  12    -0.413577847388E+03   -0.28173E-05   -0.66645E-06  3246   0.357E-03    0.367E-03
RMM:  13    -0.413577848932E+03   -0.15447E-05   -0.21849E-06  2675   0.232E-03    0.150E-03
RMM:  14    -0.413577849290E+03   -0.35772E-06   -0.11253E-06  2497   0.167E-03
  146 T=   168. E= -.41275068E+03 F= -.41357785E+03 E0= -.41355766E+03  EK= 0.82717E+00 SP= 0.00E+00 SK= 0.00E+00
       N       E                     dE             d eps       ncg     rms          rms(c)
RMM:   1    -0.413799120851E+03   -0.22127E+00   -0.19008E+01  4292   0.828E+00    0.122E+00
RMM:   2    -0.413724198975E+03    0.74922E-01   -0.51402E-01  5380   0.917E-01    0.122E+00
RMM:   3    -0.413746861222E+03   -0.22662E-01   -0.13019E-01  5586   0.390E-01    0.128E+00
RMM:   4    -0.413696599018E+03    0.50262E-01   -0.60714E-02  5193   0.288E-01    0.615E-01
RMM:   5    -0.413694570063E+03    0.20290E-02   -0.23551E-02  4649   0.214E-01    0.259E-01
RMM:   6    -0.413694595089E+03   -0.25026E-04   -0.15537E-02  5160   0.148E-01    0.151E-01
RMM:   7    -0.413693416421E+03    0.11787E-02   -0.36243E-03  5027   0.776E-02    0.732E-02
RMM:   8    -0.413693341158E+03    0.75263E-04   -0.62036E-04  5467   0.318E-02    0.479E-02
RMM:   9    -0.413693298121E+03    0.43038E-04   -0.34032E-04  4468   0.236E-02    0.155E-02
RMM:  10    -0.413693307864E+03   -0.97435E-05   -0.11133E-04  5832   0.119E-02    0.124E-02
RMM:  11    -0.413693305716E+03    0.21484E-05   -0.23006E-05  4397   0.613E-03    0.542E-03
RMM:  12    -0.413693307204E+03   -0.14880E-05   -0.74725E-06  3344   0.366E-03    0.335E-03
RMM:  13    -0.413693308424E+03   -0.12200E-05   -0.20207E-06  2648   0.226E-03    0.136E-03
RMM:  14    -0.413693308585E+03   -0.16123E-06   -0.93010E-07  2473   0.153E-03
  147 T=   192. E= -.41275263E+03 F= -.41369331E+03 E0= -.41367294E+03  EK= 0.94068E+00 SP= 0.00E+00 SK= 0.00E+00
       N       E                     dE             d eps       ncg     rms          rms(c)
RMM:   1    -0.413934707087E+03   -0.24140E+00   -0.22127E+01  4285   0.888E+00    0.116E+00
RMM:   2    -0.413822400561E+03    0.11231E+00   -0.60059E-01  5378   0.990E-01    0.112E+00
RMM:   3    -0.413857202811E+03   -0.34802E-01   -0.12091E-01  5598   0.385E-01    0.121E+00
RMM:   4    -0.413813022720E+03    0.44180E-01   -0.52533E-02  5251   0.258E-01    0.681E-01
RMM:   5    -0.413807417458E+03    0.56053E-02   -0.23500E-02  4365   0.220E-01    0.241E-01
RMM:   6    -0.413807109088E+03    0.30837E-03   -0.77593E-03  4992   0.115E-01    0.101E-01
RMM:   7    -0.413806970524E+03    0.13856E-03   -0.23927E-03  5589   0.579E-02    0.758E-02
RMM:   8    -0.413806779470E+03    0.19105E-03   -0.60560E-04  4969   0.312E-02    0.467E-02
RMM:   9    -0.413806733217E+03    0.46253E-04   -0.39243E-04  4523   0.256E-02    0.169E-02
RMM:  10    -0.413806740499E+03   -0.72814E-05   -0.10974E-04  5875   0.121E-02    0.135E-02
RMM:  11    -0.413806738512E+03    0.19867E-05   -0.27011E-05  4526   0.681E-03    0.541E-03
RMM:  12    -0.413806741067E+03   -0.25555E-05   -0.63861E-06  3188   0.345E-03    0.342E-03
RMM:  13    -0.413806744180E+03   -0.31126E-05   -0.18914E-06  2648   0.225E-03    0.161E-03
RMM:  14    -0.413806746830E+03   -0.26504E-05   -0.12489E-06  2544   0.174E-03    0.785E-04
RMM:  15    -0.413806748795E+03   -0.19642E-05   -0.74325E-07  2227   0.123E-03    0.401E-04
RMM:  16    -0.413806750315E+03   -0.15202E-05   -0.57372E-07  2032   0.106E-03    0.238E-04
RMM:  17    -0.413806751615E+03   -0.12999E-05   -0.54190E-07  2057   0.999E-04    0.146E-04
RMM:  18    -0.413806752232E+03   -0.61731E-06   -0.29148E-07  1534   0.771E-04
  148 T=   213. E= -.41276027E+03 F= -.41380675E+03 E0= -.41378626E+03  EK= 0.10465E+01 SP= 0.00E+00 SK= 0.00E+00
       N       E                     dE             d eps       ncg     rms          rms(c)
RMM:   1    -0.413962742945E+03   -0.15599E+00   -0.24766E+01  4278   0.925E+00    0.156E+00
RMM:   2    -0.413816993314E+03    0.14575E+00   -0.72545E-01  5353   0.107E+00    0.140E+00
RMM:   3    -0.413813413369E+03    0.35799E-02   -0.10354E-01  5257   0.394E-01    0.924E-01
RMM:   4    -0.413870477323E+03   -0.57064E-01   -0.94269E-02  4968   0.356E-01    0.101E+00
RMM:   5    -0.413822687330E+03    0.47790E-01   -0.63880E-02  5095   0.266E-01    0.482E-01
RMM:   6    -0.413809793564E+03    0.12894E-01   -0.13414E-02  5081   0.156E-01    0.103E-01
RMM:   7    -0.413809551611E+03    0.24195E-03   -0.28330E-03  5701   0.640E-02    0.711E-02
RMM:   8    -0.413809450574E+03    0.10104E-03   -0.94669E-04  5166   0.362E-02    0.465E-02
RMM:   9    -0.413809387686E+03    0.62888E-04   -0.32845E-04  4775   0.241E-02    0.190E-02
RMM:  10    -0.413809388827E+03   -0.11410E-05   -0.10419E-04  5875   0.120E-02    0.127E-02
RMM:  11    -0.413809389249E+03   -0.42139E-06   -0.27028E-05  4846   0.650E-03    0.697E-03
RMM:  12    -0.413809393219E+03   -0.39706E-05   -0.66032E-06  3240   0.383E-03    0.388E-03
RMM:  13    -0.413809399684E+03   -0.64643E-05   -0.39505E-06  2897   0.307E-03    0.233E-03
RMM:  14    -0.413809406175E+03   -0.64913E-05   -0.16236E-06  2592   0.214E-03    0.122E-03
RMM:  15    -0.413809410763E+03   -0.45885E-05   -0.84087E-07  2480   0.139E-03    0.636E-04
RMM:  16    -0.413809416225E+03   -0.54620E-05   -0.90298E-07  2350   0.128E-03    0.449E-04
RMM:  17    -0.413809421632E+03   -0.54066E-05   -0.10731E-06  2329   0.127E-03    0.298E-04
RMM:  18    -0.413809423951E+03   -0.23189E-05   -0.43629E-07  1660   0.846E-04    0.178E-04
RMM:  19    -0.413809426894E+03   -0.29431E-05   -0.47465E-07  1895   0.888E-04    0.169E-04
RMM:  20    -0.413809428372E+03   -0.14778E-05   -0.20855E-07  1303   0.666E-04    0.115E-04
RMM:  21    -0.413809429393E+03   -0.10210E-05   -0.11437E-07  1102   0.596E-04    0.606E-05
RMM:  22    -0.413809430363E+03   -0.96999E-06   -0.83758E-08  1082   0.576E-04
  149 T=   212. E= -.41277024E+03 F= -.41380943E+03 E0= -.41378911E+03  EK= 0.10392E+01 SP= 0.00E+00 SK= 0.00E+00
       N       E                     dE             d eps       ncg     rms          rms(c)
RMM:   1    -0.413751814404E+03    0.57615E-01   -0.22486E+01  4267   0.883E+00    0.164E+00
RMM:   2    -0.413640705740E+03    0.11111E+00   -0.70006E-01  5333   0.102E+00    0.144E+00
RMM:   3    -0.413699088486E+03   -0.58383E-01   -0.15648E-01  5597   0.440E-01    0.138E+00
RMM:   4    -0.413666444488E+03    0.32644E-01   -0.11936E-01  5178   0.361E-01    0.980E-01
RMM:   5    -0.413638607738E+03    0.27837E-01   -0.73316E-02  4836   0.351E-01    0.303E-01
RMM:   6    -0.413635151320E+03    0.34564E-02   -0.10991E-02  4907   0.147E-01    0.136E-01
RMM:   7    -0.413634460460E+03    0.69086E-03   -0.27846E-03  5091   0.691E-02    0.781E-02
RMM:   8    -0.413634304259E+03    0.15620E-03   -0.11685E-03  5479   0.425E-02    0.486E-02
RMM:   9    -0.413634272296E+03    0.31963E-04   -0.41454E-04  5180   0.256E-02    0.308E-02
RMM:  10    -0.413634253509E+03    0.18787E-04   -0.12360E-04  5501   0.140E-02    0.128E-02
RMM:  11    -0.413634255356E+03   -0.18472E-05   -0.48873E-05  5523   0.778E-03    0.905E-03
RMM:  12    -0.413634257024E+03   -0.16672E-05   -0.80383E-06  3674   0.408E-03    0.423E-03
RMM:  13    -0.413634262072E+03   -0.50482E-05   -0.43095E-06  2992   0.304E-03    0.215E-03
RMM:  14    -0.413634268478E+03   -0.64062E-05   -0.16975E-06  2594   0.218E-03    0.979E-04
RMM:  15    -0.413634272997E+03   -0.45191E-05   -0.88492E-07  2465   0.146E-03    0.663E-04
RMM:  16    -0.413634278785E+03   -0.57877E-05   -0.10110E-06  2439   0.135E-03    0.401E-04
RMM:  17    -0.413634283698E+03   -0.49129E-05   -0.91746E-07  2216   0.117E-03    0.320E-04
RMM:  18    -0.413634287480E+03   -0.37822E-05   -0.74260E-07  1972   0.103E-03    0.186E-04
RMM:  19    -0.413634289940E+03   -0.24601E-05   -0.47065E-07  1732   0.844E-04    0.144E-04
RMM:  20    -0.413634291665E+03   -0.17251E-05   -0.26764E-07  1414   0.701E-04    0.101E-04
RMM:  21    -0.413634292744E+03   -0.10792E-05   -0.14148E-07  1175   0.612E-04    0.531E-05
RMM:  22    -0.413634293730E+03   -0.98549E-06   -0.93497E-08  1093   0.581E-04
  150 T=   181. E= -.41274514E+03 F= -.41363429E+03 E0= -.41361441E+03  EK= 0.88916E+00 SP= 0.00E+00 SK= 0.00E+00
