       N       E                     dE             d eps       ncg     rms          rms(c)
RMM:   1     0.220129598490E+04    0.22013E+04   -0.52440E+04  2132   0.654E+02
RMM:   2     0.705522812285E+03   -0.14958E+04   -0.16259E+04  2132   0.177E+02
RMM:   3     0.137753792115E+03   -0.56777E+03   -0.65731E+03  2132   0.117E+02
RMM:   4    -0.159190450801E+03   -0.29694E+03   -0.27841E+03  2132   0.936E+01
RMM:   5    -0.287574137153E+03   -0.12838E+03   -0.11444E+03  2132   0.595E+01
RMM:   6    -0.349814029172E+03   -0.62240E+02   -0.55122E+02  2132   0.423E+01
RMM:   7    -0.382749573281E+03   -0.32936E+02   -0.30450E+02  2132   0.293E+01
RMM:   8    -0.404218327203E+03   -0.21469E+02   -0.18429E+02  2132   0.233E+01
RMM:   9    -0.435958610388E+03   -0.31740E+02   -0.30691E+02  6100   0.173E+01
RMM:  10    -0.441269833179E+03   -0.53112E+01   -0.63303E+01  6397   0.539E+00
RMM:  11    -0.442511853470E+03   -0.12420E+01   -0.10959E+01  6234   0.173E+00
RMM:  12    -0.442884439663E+03   -0.37259E+00   -0.28091E+00  6370   0.608E-01    0.134E+02
RMM:  13    -0.425612669444E+03    0.17272E+02   -0.80864E+01  4671   0.119E+01    0.712E+01
RMM:  14    -0.499224843098E+03   -0.73612E+02   -0.53992E+02  5419   0.232E+01    0.307E+01
RMM:  15    -0.414665774579E+03    0.84559E+02   -0.19666E+02  5062   0.163E+01    0.628E+00
RMM:  16    -0.414062681686E+03    0.60309E+00   -0.39279E+01  6073   0.605E+00    0.431E+00
RMM:  17    -0.413215269697E+03    0.84741E+00   -0.23270E+00  5333   0.183E+00    0.245E+00
RMM:  18    -0.413166503520E+03    0.48766E-01   -0.85643E-01  5973   0.953E-01    0.160E+00
RMM:  19    -0.413168319925E+03   -0.18164E-02   -0.27638E-01  5693   0.560E-01    0.859E-01
RMM:  20    -0.413183678839E+03   -0.15359E-01   -0.22900E-01  5359   0.522E-01    0.556E-01
RMM:  21    -0.413166712245E+03    0.16967E-01   -0.34330E-02  4978   0.236E-01    0.253E-01
RMM:  22    -0.413165253977E+03    0.14583E-02   -0.14696E-02  6099   0.102E-01    0.149E-01
RMM:  23    -0.413163818113E+03    0.14359E-02   -0.60842E-03  5831   0.733E-02    0.835E-02
RMM:  24    -0.413162722199E+03    0.10959E-02   -0.15340E-03  5217   0.395E-02    0.399E-02
RMM:  25    -0.413162524407E+03    0.19779E-03   -0.83026E-04  5733   0.260E-02    0.292E-02
RMM:  26    -0.413162766300E+03   -0.24189E-03   -0.65414E-04  5865   0.260E-02    0.306E-02
RMM:  27    -0.413163212927E+03   -0.44663E-03   -0.18033E-04  4568   0.191E-02    0.180E-02
RMM:  28    -0.413163715982E+03   -0.50305E-03   -0.19254E-04  5214   0.197E-02    0.943E-03
RMM:  29    -0.413164067807E+03   -0.35183E-03   -0.98196E-05  4378   0.139E-02    0.381E-03
RMM:  30    -0.413164308157E+03   -0.24035E-03   -0.84684E-05  4387   0.107E-02    0.372E-03
RMM:  31    -0.413164405089E+03   -0.96933E-04   -0.44517E-05  3137   0.560E-03    0.285E-03
RMM:  32    -0.413164431453E+03   -0.26363E-04   -0.17328E-05  2913   0.287E-03    0.152E-03
RMM:  33    -0.413164440652E+03   -0.91998E-05   -0.81836E-06  2774   0.211E-03    0.553E-04
RMM:  34    -0.413164444179E+03   -0.35268E-05   -0.41335E-06  2645   0.162E-03    0.786E-04
RMM:  35    -0.413164444348E+03   -0.16874E-06   -0.22391E-06  2196   0.114E-03
    1 T=    61. E= -.41286660E+03 F= -.41316444E+03 E0= -.41314195E+03  EK= 0.29784E+00 SP= 0.00E+00 SK= 0.00E+00
       N       E                     dE             d eps       ncg     rms          rms(c)
RMM:   1    -0.413154571744E+03    0.98724E-02   -0.11163E+01  3978   0.702E-01    0.887E-01
RMM:   2    -0.413165456401E+03   -0.10885E-01   -0.13777E-01  4012   0.100E-01    0.641E-01
RMM:   3    -0.413164127640E+03    0.13288E-02   -0.63999E-03  4804   0.367E-02    0.158E-01
RMM:   4    -0.413187901239E+03   -0.23774E-01   -0.24887E-02  5216   0.131E-01    0.643E-01
RMM:   5    -0.413163712862E+03    0.24188E-01   -0.12027E-02  4854   0.108E-01    0.323E-02
RMM:   6    -0.413163870434E+03   -0.15757E-03   -0.18986E-03  5829   0.424E-02    0.162E-02
RMM:   7    -0.413163888721E+03   -0.18287E-04   -0.24062E-04  5847   0.127E-02    0.125E-02
RMM:   8    -0.413163894984E+03   -0.62633E-05   -0.30401E-05  4229   0.490E-03    0.742E-03
RMM:   9    -0.413163901086E+03   -0.61014E-05   -0.56334E-06  2879   0.267E-03    0.490E-03
RMM:  10    -0.413163909112E+03   -0.80266E-05   -0.21117E-06  2571   0.199E-03    0.256E-03
RMM:  11    -0.413163916386E+03   -0.72733E-05   -0.14369E-06  2537   0.166E-03    0.124E-03
RMM:  12    -0.413163920772E+03   -0.43869E-05   -0.79530E-07  2402   0.126E-03    0.429E-04
RMM:  13    -0.413163922438E+03   -0.16658E-05   -0.42225E-07  1922   0.897E-04    0.262E-04
RMM:  14    -0.413163924476E+03   -0.20379E-05   -0.31178E-07  1493   0.765E-04    0.159E-04
RMM:  15    -0.413163926833E+03   -0.23568E-05   -0.27826E-07  1424   0.732E-04    0.108E-04
RMM:  16    -0.413163927429E+03   -0.59597E-06   -0.17764E-07  1120   0.637E-04
    2 T=    61. E= -.41286610E+03 F= -.41316393E+03 E0= -.41314143E+03  EK= 0.29782E+00 SP= 0.00E+00 SK= 0.00E+00
       N       E                     dE             d eps       ncg     rms          rms(c)
RMM:   1    -0.413155770090E+03    0.81567E-02   -0.11203E+01  4185   0.704E-01    0.912E-01
RMM:   2    -0.413165446156E+03   -0.96761E-02   -0.13506E-01  4013   0.970E-02    0.633E-01
RMM:   3    -0.413164871769E+03    0.57439E-03   -0.68461E-03  4846   0.385E-02    0.169E-01
RMM:   4    -0.413193745273E+03   -0.28874E-01   -0.29275E-02  5190   0.143E-01    0.708E-01
RMM:   5    -0.413164468992E+03    0.29276E-01   -0.14206E-02  4829   0.119E-01    0.369E-02
RMM:   6    -0.413164649968E+03   -0.18098E-03   -0.22925E-03  5801   0.466E-02    0.188E-02
RMM:   7    -0.413164662607E+03   -0.12639E-04   -0.27669E-04  5885   0.138E-02    0.138E-02
RMM:   8    -0.413164663342E+03   -0.73470E-06   -0.36303E-05  4445   0.531E-03    0.844E-03
RMM:   9    -0.413164662494E+03    0.84782E-06   -0.58941E-06  2985   0.276E-03
    3 T=    61. E= -.41286655E+03 F= -.41316466E+03 E0= -.41314217E+03  EK= 0.29812E+00 SP= 0.00E+00 SK= 0.00E+00
       N       E                     dE             d eps       ncg     rms          rms(c)
RMM:   1    -0.413155175099E+03    0.94882E-02   -0.11114E+01  4226   0.705E-01    0.895E-01
RMM:   2    -0.413165552925E+03   -0.10378E-01   -0.13395E-01  4189   0.984E-02    0.628E-01
RMM:   3    -0.413168134784E+03   -0.25819E-02   -0.93743E-03  5170   0.667E-02    0.301E-01
RMM:   4    -0.413193148820E+03   -0.25014E-01   -0.40036E-02  5131   0.169E-01    0.706E-01
RMM:   5    -0.413164307717E+03    0.28841E-01   -0.12046E-02  4737   0.118E-01    0.535E-02
RMM:   6    -0.413164354014E+03   -0.46297E-04   -0.20406E-03  5565   0.452E-02    0.167E-02
RMM:   7    -0.413164376611E+03   -0.22598E-04   -0.29474E-04  6039   0.149E-02    0.120E-02
RMM:   8    -0.413164379497E+03   -0.28863E-05   -0.37861E-05  4741   0.560E-03    0.727E-03
RMM:   9    -0.413164381041E+03   -0.15439E-05   -0.72405E-06  3134   0.363E-03    0.359E-03
RMM:  10    -0.413164382615E+03   -0.15739E-05   -0.18277E-06  2554   0.213E-03    0.217E-03
RMM:  11    -0.413164384693E+03   -0.20775E-05   -0.10241E-06  2542   0.157E-03    0.106E-03
RMM:  12    -0.413164385754E+03   -0.10610E-05   -0.48124E-07  2210   0.107E-03    0.471E-04
RMM:  13    -0.413164386875E+03   -0.11215E-05   -0.37841E-07  1770   0.885E-04    0.219E-04
RMM:  14    -0.413164387378E+03   -0.50278E-06   -0.20941E-07  1374   0.728E-04
    4 T=    61. E= -.41286635E+03 F= -.41316439E+03 E0= -.41314190E+03  EK= 0.29804E+00 SP= 0.00E+00 SK= 0.00E+00
       N       E                     dE             d eps       ncg     rms          rms(c)
RMM:   1    -0.413155007518E+03    0.93794E-02   -0.11150E+01  4235   0.710E-01    0.884E-01
RMM:   2    -0.413165873109E+03   -0.10866E-01   -0.13806E-01  3980   0.956E-02    0.639E-01
RMM:   3    -0.413164826162E+03    0.10469E-02   -0.64042E-03  4931   0.368E-02    0.164E-01
RMM:   4    -0.413195322635E+03   -0.30496E-01   -0.31146E-02  5165   0.147E-01    0.728E-01
RMM:   5    -0.413164281811E+03    0.31041E-01   -0.15020E-02  4814   0.122E-01    0.362E-02
RMM:   6    -0.413164475703E+03   -0.19389E-03   -0.24193E-03  5778   0.476E-02    0.169E-02
RMM:   7    -0.413164494795E+03   -0.19093E-04   -0.28666E-04  5859   0.139E-02    0.131E-02
RMM:   8    -0.413164499814E+03   -0.50182E-05   -0.36260E-05  4407   0.528E-03    0.817E-03
RMM:   9    -0.413164504071E+03   -0.42573E-05   -0.58864E-06  2958   0.276E-03    0.550E-03
RMM:  10    -0.413164510537E+03   -0.64658E-05   -0.21125E-06  2562   0.210E-03    0.280E-03
RMM:  11    -0.413164516303E+03   -0.57664E-05   -0.14430E-06  2543   0.176E-03    0.138E-03
RMM:  12    -0.413164519776E+03   -0.34733E-05   -0.72963E-07  2434   0.133E-03    0.491E-04
RMM:  13    -0.413164520999E+03   -0.12220E-05   -0.32434E-07  1993   0.925E-04    0.305E-04
RMM:  14    -0.413164522447E+03   -0.14489E-05   -0.21625E-07  1529   0.774E-04    0.176E-04
RMM:  15    -0.413164524250E+03   -0.18029E-05   -0.22971E-07  1552   0.758E-04    0.141E-04
RMM:  16    -0.413164524526E+03   -0.27564E-06   -0.93676E-08  1073   0.626E-04
    5 T=    61. E= -.41286639E+03 F= -.41316452E+03 E0= -.41314205E+03  EK= 0.29814E+00 SP= 0.00E+00 SK= 0.00E+00
       N       E                     dE             d eps       ncg     rms          rms(c)
RMM:   1    -0.413155959006E+03    0.85652E-02   -0.11204E+01  4248   0.715E-01    0.907E-01
RMM:   2    -0.413166143024E+03   -0.10184E-01   -0.13501E-01  4068   0.972E-02    0.635E-01
RMM:   3    -0.413165355041E+03    0.78798E-03   -0.66549E-03  4826   0.376E-02    0.167E-01
RMM:   4    -0.413193154616E+03   -0.27800E-01   -0.28098E-02  5161   0.140E-01    0.695E-01
RMM:   5    -0.413164934355E+03    0.28220E-01   -0.13775E-02  4821   0.116E-01    0.355E-02
RMM:   6    -0.413165106201E+03   -0.17185E-03   -0.21754E-03  5774   0.452E-02    0.183E-02
RMM:   7    -0.413165117847E+03   -0.11646E-04   -0.26085E-04  5851   0.134E-02    0.134E-02
RMM:   8    -0.413165118740E+03   -0.89286E-06   -0.33643E-05  4376   0.519E-03    0.825E-03
RMM:   9    -0.413165118140E+03    0.60048E-06   -0.56819E-06  2938   0.274E-03
    6 T=    61. E= -.41286666E+03 F= -.41316512E+03 E0= -.41314265E+03  EK= 0.29845E+00 SP= 0.00E+00 SK= 0.00E+00
       N       E                     dE             d eps       ncg     rms          rms(c)
RMM:   1    -0.413155672971E+03    0.94458E-02   -0.11147E+01  4263   0.724E-01    0.902E-01
RMM:   2    -0.413165458528E+03   -0.97856E-02   -0.13435E-01  4250   0.101E-01    0.628E-01
RMM:   3    -0.413168187505E+03   -0.27290E-02   -0.94028E-03  5140   0.655E-02    0.295E-01
RMM:   4    -0.413194011531E+03   -0.25824E-01   -0.40048E-02  5117   0.169E-01    0.713E-01
RMM:   5    -0.413164592218E+03    0.29419E-01   -0.12401E-02  4740   0.118E-01    0.530E-02
RMM:   6    -0.413164645562E+03   -0.53344E-04   -0.20831E-03  5586   0.455E-02    0.168E-02
RMM:   7    -0.413164667100E+03   -0.21539E-04   -0.29447E-04  6045   0.149E-02    0.121E-02
RMM:   8    -0.413164668589E+03   -0.14886E-05   -0.37886E-05  4713   0.560E-03    0.734E-03
RMM:   9    -0.413164667104E+03    0.14849E-05   -0.69458E-06  3041   0.356E-03    0.353E-03
RMM:  10    -0.413164666981E+03    0.12288E-06   -0.18738E-06  2550   0.213E-03
    7 T=    61. E= -.41286619E+03 F= -.41316467E+03 E0= -.41314222E+03  EK= 0.29847E+00 SP= 0.00E+00 SK= 0.00E+00
       N       E                     dE             d eps       ncg     rms          rms(c)
RMM:   1    -0.413155736544E+03    0.89306E-02   -0.11143E+01  4272   0.725E-01    0.883E-01
RMM:   2    -0.413166713437E+03   -0.10977E-01   -0.13722E-01  4108   0.952E-02    0.637E-01
RMM:   3    -0.413165913028E+03    0.80041E-03   -0.65683E-03  5005   0.405E-02    0.178E-01
RMM:   4    -0.413205948875E+03   -0.40036E-01   -0.41774E-02  5155   0.170E-01    0.831E-01
RMM:   5    -0.413165178534E+03    0.40770E-01   -0.19706E-02  4806   0.139E-01    0.430E-02
RMM:   6    -0.413165392914E+03   -0.21438E-03   -0.30946E-03  5763   0.543E-02    0.171E-02
RMM:   7    -0.413165420127E+03   -0.27213E-04   -0.37631E-04  5927   0.156E-02    0.138E-02
RMM:   8    -0.413165424889E+03   -0.47623E-05   -0.44537E-05  4483   0.566E-03    0.843E-03
RMM:   9    -0.413165428289E+03   -0.34001E-05   -0.71232E-06  3015   0.286E-03    0.561E-03
RMM:  10    -0.413165433659E+03   -0.53703E-05   -0.25264E-06  2572   0.223E-03    0.276E-03
RMM:  11    -0.413165437890E+03   -0.42309E-05   -0.14678E-06  2539   0.177E-03    0.132E-03
RMM:  12    -0.413165440450E+03   -0.25595E-05   -0.80275E-07  2448   0.136E-03    0.431E-04
RMM:  13    -0.413165441669E+03   -0.12192E-05   -0.39044E-07  2033   0.968E-04    0.282E-04
RMM:  14    -0.413165442787E+03   -0.11176E-05   -0.28304E-07  1640   0.821E-04    0.192E-04
RMM:  15    -0.413165443589E+03   -0.80181E-06   -0.23344E-07  1493   0.752E-04
    8 T=    61. E= -.41286660E+03 F= -.41316544E+03 E0= -.41314301E+03  EK= 0.29884E+00 SP= 0.00E+00 SK= 0.00E+00
       N       E                     dE             d eps       ncg     rms          rms(c)
RMM:   1    -0.413156202742E+03    0.92400E-02   -0.11213E+01  4285   0.728E-01    0.901E-01
RMM:   2    -0.413166552373E+03   -0.10350E-01   -0.13650E-01  4179   0.101E-01    0.638E-01
RMM:   3    -0.413165743498E+03    0.80888E-03   -0.65896E-03  4833   0.383E-02    0.166E-01
RMM:   4    -0.413194519207E+03   -0.28776E-01   -0.29241E-02  5151   0.142E-01    0.708E-01
RMM:   5    -0.413165227728E+03    0.29291E-01   -0.14324E-02  4806   0.118E-01    0.353E-02
RMM:   6    -0.413165406321E+03   -0.17859E-03   -0.22647E-03  5790   0.460E-02    0.178E-02
RMM:   7    -0.413165417567E+03   -0.11246E-04   -0.26688E-04  5846   0.135E-02    0.133E-02
RMM:   8    -0.413165418651E+03   -0.10836E-05   -0.34291E-05  4385   0.526E-03    0.835E-03
RMM:   9    -0.413165418694E+03   -0.42975E-07   -0.57886E-06  2948   0.280E-03
    9 T=    61. E= -.41286628E+03 F= -.41316542E+03 E0= -.41314301E+03  EK= 0.29914E+00 SP= 0.00E+00 SK= 0.00E+00
       N       E                     dE             d eps       ncg     rms          rms(c)
RMM:   1    -0.413156732141E+03    0.86865E-02   -0.11203E+01  4293   0.733E-01    0.910E-01
RMM:   2    -0.413166193578E+03   -0.94614E-02   -0.13461E-01  4283   0.984E-02    0.630E-01
RMM:   3    -0.413169432195E+03   -0.32386E-02   -0.98694E-03  5143   0.683E-02    0.308E-01
RMM:   4    -0.413192815807E+03   -0.23384E-01   -0.38594E-02  5102   0.166E-01    0.689E-01
RMM:   5    -0.413165559190E+03    0.27257E-01   -0.11327E-02  4724   0.114E-01    0.524E-02
RMM:   6    -0.413165600349E+03   -0.41159E-04   -0.19212E-03  5556   0.435E-02    0.173E-02
RMM:   7    -0.413165617675E+03   -0.17326E-04   -0.27488E-04  6030   0.145E-02    0.122E-02
RMM:   8    -0.413165617613E+03    0.61646E-07   -0.35568E-05  4704   0.551E-03    0.733E-03
RMM:   9    -0.413165613366E+03    0.42470E-05   -0.70824E-06  3074   0.363E-03    0.356E-03
RMM:  10    -0.413165612078E+03    0.12882E-05   -0.17894E-06  2548   0.211E-03    0.210E-03
RMM:  11    -0.413165610666E+03    0.14124E-05   -0.99999E-07  2530   0.156E-03    0.103E-03
RMM:  12    -0.413165609707E+03    0.95917E-06   -0.47172E-07  2171   0.106E-03
   10 T=    61. E= -.41286619E+03 F= -.41316561E+03 E0= -.41314322E+03  EK= 0.29942E+00 SP= 0.00E+00 SK= 0.00E+00
       N       E                     dE             d eps       ncg     rms          rms(c)
RMM:   1    -0.413156848908E+03    0.87618E-02   -0.11150E+01  4291   0.737E-01    0.885E-01
RMM:   2    -0.413167696840E+03   -0.10848E-01   -0.13623E-01  4219   0.976E-02    0.634E-01
RMM:   3    -0.413166741462E+03    0.95538E-03   -0.63389E-03  4905   0.395E-02    0.169E-01
RMM:   4    -0.413199096463E+03   -0.32355E-01   -0.33132E-02  5145   0.151E-01    0.750E-01
RMM:   5    -0.413166120515E+03    0.32976E-01   -0.16140E-02  4807   0.125E-01    0.371E-02
RMM:   6    -0.413166320142E+03   -0.19963E-03   -0.25619E-03  5785   0.487E-02    0.179E-02
RMM:   7    -0.413166336444E+03   -0.16302E-04   -0.30338E-04  5886   0.143E-02    0.137E-02
RMM:   8    -0.413166338557E+03   -0.21129E-05   -0.38924E-05  4485   0.548E-03    0.879E-03
RMM:   9    -0.413166338985E+03   -0.42777E-06   -0.64590E-06  3011   0.285E-03
   11 T=    61. E= -.41286654E+03 F= -.41316634E+03 E0= -.41314398E+03  EK= 0.29980E+00 SP= 0.00E+00 SK= 0.00E+00
       N       E                     dE             d eps       ncg     rms          rms(c)
RMM:   1    -0.413156844542E+03    0.94940E-02   -0.11229E+01  4295   0.744E-01    0.896E-01
RMM:   2    -0.413167407742E+03   -0.10563E-01   -0.13801E-01  4294   0.992E-02    0.641E-01
RMM:   3    -0.413170588234E+03   -0.31805E-02   -0.99546E-03  5144   0.706E-02    0.321E-01
RMM:   4    -0.413195504388E+03   -0.24916E-01   -0.42413E-02  5095   0.174E-01    0.712E-01
RMM:   5    -0.413166096209E+03    0.29408E-01   -0.12067E-02  4713   0.118E-01    0.532E-02
RMM:   6    -0.413166144246E+03   -0.48037E-04   -0.20711E-03  5547   0.449E-02    0.156E-02
RMM:   7    -0.413166167847E+03   -0.23600E-04   -0.28936E-04  6022   0.149E-02    0.116E-02
RMM:   8    -0.413166171247E+03   -0.34002E-05   -0.37413E-05  4731   0.555E-03    0.708E-03
RMM:   9    -0.413166173821E+03   -0.25739E-05   -0.73878E-06  3180   0.372E-03    0.378E-03
RMM:  10    -0.413166175570E+03   -0.17496E-05   -0.19477E-06  2546   0.216E-03    0.229E-03
RMM:  11    -0.413166177263E+03   -0.16923E-05   -0.11987E-06  2545   0.165E-03    0.108E-03
RMM:  12    -0.413166177956E+03   -0.69382E-06   -0.52018E-07  2331   0.113E-03
   12 T=    61. E= -.41286617E+03 F= -.41316618E+03 E0= -.41314385E+03  EK= 0.30001E+00 SP= 0.00E+00 SK= 0.00E+00
       N       E                     dE             d eps       ncg     rms          rms(c)
RMM:   1    -0.413157890860E+03    0.82864E-02   -0.11253E+01  4295   0.747E-01    0.915E-01
RMM:   2    -0.413167615287E+03   -0.97244E-02   -0.13476E-01  4224   0.943E-02    0.632E-01
RMM:   3    -0.413167344549E+03    0.27074E-03   -0.69619E-03  5002   0.386E-02    0.180E-01
RMM:   4    -0.413204172105E+03   -0.36828E-01   -0.38086E-02  5144   0.162E-01    0.798E-01
RMM:   5    -0.413166712462E+03    0.37460E-01   -0.18290E-02  4799   0.133E-01    0.414E-02
RMM:   6    -0.413166918052E+03   -0.20559E-03   -0.28495E-03  5771   0.520E-02    0.200E-02
RMM:   7    -0.413166930696E+03   -0.12644E-04   -0.34314E-04  5899   0.152E-02    0.149E-02
RMM:   8    -0.413166928888E+03    0.18085E-05   -0.43847E-05  4628   0.580E-03    0.945E-03
RMM:   9    -0.413166924210E+03    0.46778E-05   -0.71186E-06  3042   0.291E-03    0.630E-03
RMM:  10    -0.413166919868E+03    0.43417E-05   -0.23296E-06  2558   0.220E-03    0.315E-03
RMM:  11    -0.413166916486E+03    0.33827E-05   -0.16179E-06  2539   0.190E-03    0.147E-03
RMM:  12    -0.413166913935E+03    0.25508E-05   -0.82638E-07  2452   0.143E-03    0.486E-04
RMM:  13    -0.413166913081E+03    0.85387E-06   -0.34812E-07  2110   0.983E-04
   13 T=    61. E= -.41286637E+03 F= -.41316691E+03 E0= -.41314461E+03  EK= 0.30054E+00 SP= 0.00E+00 SK= 0.00E+00
       N       E                     dE             d eps       ncg     rms          rms(c)
RMM:   1    -0.413157931937E+03    0.89820E-02   -0.11169E+01  4295   0.749E-01    0.889E-01
RMM:   2    -0.413168477237E+03   -0.10545E-01   -0.13666E-01  4244   0.963E-02    0.632E-01
RMM:   3    -0.413167707981E+03    0.76926E-03   -0.63905E-03  4884   0.366E-02    0.168E-01
RMM:   4    -0.413196648406E+03   -0.28940E-01   -0.29549E-02  5138   0.143E-01    0.710E-01
RMM:   5    -0.413167181042E+03    0.29467E-01   -0.14501E-02  4808   0.118E-01    0.348E-02
RMM:   6    -0.413167354864E+03   -0.17382E-03   -0.22223E-03  5797   0.458E-02    0.176E-02
RMM:   7    -0.413167365586E+03   -0.10722E-04   -0.26395E-04  5839   0.136E-02    0.132E-02
RMM:   8    -0.413167365503E+03    0.83142E-07   -0.34976E-05  4427   0.529E-03    0.839E-03
RMM:   9    -0.413167363501E+03    0.20022E-05   -0.58063E-06  2943   0.279E-03    0.570E-03
RMM:  10    -0.413167362755E+03    0.74589E-06   -0.20010E-06  2550   0.209E-03
   14 T=    61. E= -.41286636E+03 F= -.41316736E+03 E0= -.41314509E+03  EK= 0.30100E+00 SP= 0.00E+00 SK= 0.00E+00
       N       E                     dE             d eps       ncg     rms          rms(c)
RMM:   1    -0.413157906441E+03    0.94571E-02   -0.11258E+01  4304   0.756E-01    0.892E-01
RMM:   2    -0.413169175954E+03   -0.11270E-01   -0.13915E-01  4299   0.996E-02    0.643E-01
RMM:   3    -0.413170797443E+03   -0.16215E-02   -0.88643E-03  5114   0.638E-02    0.285E-01
RMM:   4    -0.413203703598E+03   -0.32906E-01   -0.46937E-02  5105   0.181E-01    0.786E-01
RMM:   5    -0.413167463531E+03    0.36240E-01   -0.15653E-02  4739   0.130E-01    0.511E-02
RMM:   6    -0.413167572493E+03   -0.10896E-03   -0.25353E-03  5628   0.498E-02    0.146E-02
RMM:   7    -0.413167599424E+03   -0.26931E-04   -0.32981E-04  6014   0.151E-02    0.118E-02
RMM:   8    -0.413167602853E+03   -0.34289E-05   -0.40565E-05  4684   0.563E-03    0.706E-03
RMM:   9    -0.413167604574E+03   -0.17212E-05   -0.63577E-06  2898   0.318E-03    0.342E-03
RMM:  10    -0.413167606316E+03   -0.17412E-05   -0.22724E-06  2562   0.211E-03    0.199E-03
RMM:  11    -0.413167607643E+03   -0.13274E-05   -0.10492E-06  2532   0.149E-03    0.896E-04
RMM:  12    -0.413167608252E+03   -0.60873E-06   -0.51444E-07  1989   0.105E-03
   15 T=    61. E= -.41286623E+03 F= -.41316761E+03 E0= -.41314537E+03  EK= 0.30137E+00 SP= 0.00E+00 SK= 0.00E+00
       N       E                     dE             d eps       ncg     rms          rms(c)
RMM:   1    -0.413159631444E+03    0.79762E-02   -0.11305E+01  4306   0.764E-01    0.916E-01
RMM:   2    -0.413169375004E+03   -0.97436E-02   -0.13611E-01  4253   0.100E-01    0.635E-01
RMM:   3    -0.413168913769E+03    0.46124E-03   -0.68915E-03  4914   0.396E-02    0.176E-01
RMM:   4    -0.413202661944E+03   -0.33748E-01   -0.34615E-02  5143   0.155E-01    0.765E-01
RMM:   5    -0.413168301815E+03    0.34360E-01   -0.16796E-02  4806   0.128E-01    0.390E-02
RMM:   6    -0.413168496091E+03   -0.19428E-03   -0.26611E-03  5798   0.498E-02    0.196E-02
RMM:   7    -0.413168505196E+03   -0.91049E-05   -0.31083E-04  5889   0.147E-02    0.145E-02
RMM:   8    -0.413168502213E+03    0.29825E-05   -0.40706E-05  4580   0.566E-03    0.939E-03
RMM:   9    -0.413168496448E+03    0.57648E-05   -0.66938E-06  3027   0.292E-03    0.637E-03
RMM:  10    -0.413168491132E+03    0.53161E-05   -0.21893E-06  2557   0.220E-03    0.323E-03
RMM:  11    -0.413168486968E+03    0.41643E-05   -0.16618E-06  2540   0.193E-03    0.154E-03
RMM:  12    -0.413168483852E+03    0.31160E-05   -0.79482E-07  2453   0.144E-03    0.516E-04
RMM:  13    -0.413168482824E+03    0.10281E-05   -0.34162E-07  2127   0.979E-04    0.334E-04
RMM:  14    -0.413168481581E+03    0.12424E-05   -0.19296E-07  1592   0.772E-04    0.193E-04
RMM:  15    -0.413168478823E+03    0.27579E-05   -0.22509E-07  1690   0.788E-04    0.179E-04
RMM:  16    -0.413168478236E+03    0.58713E-06   -0.80262E-08  1062   0.611E-04
   16 T=    61. E= -.41286642E+03 F= -.41316848E+03 E0= -.41314628E+03  EK= 0.30206E+00 SP= 0.00E+00 SK= 0.00E+00
       N       E                     dE             d eps       ncg     rms          rms(c)
RMM:   1    -0.413159661438E+03    0.88174E-02   -0.11221E+01  4296   0.760E-01    0.896E-01
RMM:   2    -0.413170033607E+03   -0.10372E-01   -0.13687E-01  4268   0.995E-02    0.631E-01
RMM:   3    -0.413169256064E+03    0.77754E-03   -0.65424E-03  4894   0.419E-02    0.176E-01
RMM:   4    -0.413204328783E+03   -0.35073E-01   -0.35991E-02  5140   0.157E-01    0.778E-01
RMM:   5    -0.413168712930E+03    0.35616E-01   -0.17507E-02  4798   0.130E-01    0.390E-02
RMM:   6    -0.413168913814E+03   -0.20088E-03   -0.27430E-03  5774   0.508E-02    0.190E-02
RMM:   7    -0.413168925989E+03   -0.12175E-04   -0.32160E-04  5874   0.149E-02    0.142E-02
RMM:   8    -0.413168924580E+03    0.14092E-05   -0.40874E-05  4529   0.560E-03    0.908E-03
RMM:   9    -0.413168920723E+03    0.38566E-05   -0.68298E-06  3017   0.287E-03    0.620E-03
RMM:  10    -0.413168917308E+03    0.34154E-05   -0.21641E-06  2551   0.217E-03    0.312E-03
RMM:  11    -0.413168914841E+03    0.24666E-05   -0.15664E-06  2531   0.188E-03    0.151E-03
RMM:  12    -0.413168912938E+03    0.19026E-05   -0.75217E-07  2440   0.141E-03    0.511E-04
RMM:  13    -0.413168912311E+03    0.62761E-06   -0.33147E-07  2101   0.966E-04
   17 T=    62. E= -.41286633E+03 F= -.41316891E+03 E0= -.41314675E+03  EK= 0.30258E+00 SP= 0.00E+00 SK= 0.00E+00
       N       E                     dE             d eps       ncg     rms          rms(c)
RMM:   1    -0.413159803166E+03    0.91098E-02   -0.11296E+01  4301   0.768E-01    0.890E-01
RMM:   2    -0.413171166007E+03   -0.11363E-01   -0.13952E-01  4274   0.102E-01    0.644E-01
RMM:   3    -0.413169944805E+03    0.12212E-02   -0.63938E-03  4904   0.394E-02    0.172E-01
RMM:   4    -0.413205075456E+03   -0.35131E-01   -0.36303E-02  5142   0.158E-01    0.780E-01
RMM:   5    -0.413169276401E+03    0.35799E-01   -0.17571E-02  4797   0.130E-01    0.383E-02
RMM:   6    -0.413169479985E+03   -0.20358E-03   -0.27652E-03  5774   0.509E-02    0.180E-02
RMM:   7    -0.413169496167E+03   -0.16182E-04   -0.31983E-04  5882   0.149E-02    0.138E-02
RMM:   8    -0.413169497298E+03   -0.11310E-05   -0.41604E-05  4564   0.563E-03    0.891E-03
RMM:   9    -0.413169496151E+03    0.11467E-05   -0.69173E-06  3037   0.291E-03    0.609E-03
RMM:  10    -0.413169496658E+03   -0.50662E-06   -0.23079E-06  2562   0.221E-03
   18 T=    62. E= -.41286632E+03 F= -.41316950E+03 E0= -.41314738E+03  EK= 0.30318E+00 SP= 0.00E+00 SK= 0.00E+00
       N       E                     dE             d eps       ncg     rms          rms(c)
RMM:   1    -0.413161584024E+03    0.79121E-02   -0.11355E+01  4301   0.772E-01    0.915E-01
RMM:   2    -0.413171471673E+03   -0.98876E-02   -0.13806E-01  4312   0.996E-02    0.639E-01
RMM:   3    -0.413174568937E+03   -0.30973E-02   -0.98110E-03  5124   0.683E-02    0.312E-01
RMM:   4    -0.413199451713E+03   -0.24883E-01   -0.41077E-02  5086   0.170E-01    0.708E-01
RMM:   5    -0.413170470157E+03    0.28982E-01   -0.12034E-02  4711   0.117E-01    0.498E-02
RMM:   6    -0.413170530501E+03   -0.60344E-04   -0.20318E-03  5590   0.443E-02    0.164E-02
RMM:   7    -0.413170544821E+03   -0.14320E-04   -0.26535E-04  6003   0.140E-02    0.118E-02
RMM:   8    -0.413170542517E+03    0.23043E-05   -0.33520E-05  4581   0.535E-03    0.695E-03
RMM:   9    -0.413170534912E+03    0.76047E-05   -0.58986E-06  2843   0.329E-03    0.330E-03
RMM:  10    -0.413170531469E+03    0.34437E-05   -0.18055E-06  2538   0.200E-03    0.186E-03
RMM:  11    -0.413170527760E+03    0.37088E-05   -0.87375E-07  2514   0.145E-03    0.910E-04
RMM:  12    -0.413170525530E+03    0.22297E-05   -0.43952E-07  1989   0.103E-03    0.474E-04
RMM:  13    -0.413170522744E+03    0.27855E-05   -0.32850E-07  1857   0.903E-04    0.240E-04
RMM:  14    -0.413170521256E+03    0.14886E-05   -0.18266E-07  1423   0.723E-04    0.149E-04
RMM:  15    -0.413170518389E+03    0.28669E-05   -0.20654E-07  1604   0.751E-04    0.107E-04
RMM:  16    -0.413170516745E+03    0.16435E-05   -0.11782E-07  1259   0.638E-04    0.948E-05
RMM:  17    -0.413170514665E+03    0.20799E-05   -0.10272E-07  1225   0.624E-04    0.453E-05
RMM:  18    -0.413170512967E+03    0.16983E-05   -0.69051E-08  1030   0.572E-04    0.266E-05
RMM:  19    -0.413170512487E+03    0.48073E-06   -0.33688E-08   805   0.526E-04
   19 T=    62. E= -.41286647E+03 F= -.41317051E+03 E0= -.41314844E+03  EK= 0.30404E+00 SP= 0.00E+00 SK= 0.00E+00
       N       E                     dE             d eps       ncg     rms          rms(c)
RMM:   1    -0.413164826413E+03    0.56866E-02   -0.11338E+01  4299   0.803E-01    0.905E-01
RMM:   2    -0.413172088530E+03   -0.72621E-02   -0.13745E-01  4271   0.101E-01    0.633E-01
RMM:   3    -0.413171635537E+03    0.45299E-03   -0.67423E-03  4961   0.416E-02    0.186E-01
RMM:   4    -0.413211478114E+03   -0.39843E-01   -0.41794E-02  5141   0.169E-01    0.829E-01
RMM:   5    -0.413170892934E+03    0.40585E-01   -0.19828E-02  4791   0.139E-01    0.428E-02
RMM:   6    -0.413171107632E+03   -0.21470E-03   -0.31555E-03  5752   0.544E-02    0.197E-02
RMM:   7    -0.413171121058E+03   -0.13427E-04   -0.37113E-04  5872   0.157E-02    0.150E-02
RMM:   8    -0.413171118185E+03    0.28739E-05   -0.46579E-05  4701   0.593E-03    0.959E-03
RMM:   9    -0.413171112279E+03    0.59056E-05   -0.75311E-06  3069   0.296E-03    0.643E-03
RMM:  10    -0.413171106546E+03    0.57333E-05   -0.23441E-06  2550   0.225E-03    0.319E-03
RMM:  11    -0.413171102345E+03    0.42004E-05   -0.15452E-06  2525   0.190E-03    0.155E-03
RMM:  12    -0.413171099338E+03    0.30074E-05   -0.76922E-07  2450   0.144E-03    0.512E-04
RMM:  13    -0.413171098353E+03    0.98470E-06   -0.34346E-07  2130   0.993E-04
   20 T=    62. E= -.41286629E+03 F= -.41317110E+03 E0= -.41314906E+03  EK= 0.30481E+00 SP= 0.00E+00 SK= 0.00E+00
       N       E                     dE             d eps       ncg     rms          rms(c)
RMM:   1    -0.413164024988E+03    0.70744E-02   -0.11365E+01  4300   0.802E-01    0.891E-01
RMM:   2    -0.413173498932E+03   -0.94739E-02   -0.14126E-01  4282   0.102E-01    0.644E-01
RMM:   3    -0.413172457132E+03    0.10418E-02   -0.64459E-03  4929   0.401E-02    0.174E-01
RMM:   4    -0.413208491656E+03   -0.36035E-01   -0.37330E-02  5140   0.160E-01    0.789E-01
RMM:   5    -0.413171735170E+03    0.36756E-01   -0.18055E-02  4796   0.132E-01    0.388E-02
RMM:   6    -0.413171947197E+03   -0.21203E-03   -0.29149E-03  5788   0.520E-02    0.182E-02
RMM:   7    -0.413171962399E+03   -0.15202E-04   -0.33475E-04  5900   0.150E-02    0.141E-02
RMM:   8    -0.413171962248E+03    0.15081E-06   -0.43330E-05  4598   0.573E-03    0.928E-03
RMM:   9    -0.413171959484E+03    0.27639E-05   -0.71695E-06  3053   0.297E-03    0.637E-03
RMM:  10    -0.413171957953E+03    0.15310E-05   -0.23524E-06  2564   0.227E-03    0.324E-03
RMM:  11    -0.413171956896E+03    0.10573E-05   -0.17519E-06  2552   0.197E-03    0.160E-03
RMM:  12    -0.413171955853E+03    0.10431E-05   -0.80378E-07  2447   0.145E-03    0.544E-04
RMM:  13    -0.413171955426E+03    0.42673E-06   -0.34830E-07  2129   0.985E-04
   21 T=    62. E= -.41286628E+03 F= -.41317196E+03 E0= -.41314997E+03  EK= 0.30567E+00 SP= 0.00E+00 SK= 0.00E+00
       N       E                     dE             d eps       ncg     rms          rms(c)
RMM:   1    -0.413163523167E+03    0.84327E-02   -0.11427E+01  4299   0.785E-01    0.912E-01
RMM:   2    -0.413174230734E+03   -0.10708E-01   -0.14005E-01  4286   0.989E-02    0.644E-01
RMM:   3    -0.413173498582E+03    0.73215E-03   -0.66171E-03  4896   0.388E-02    0.175E-01
RMM:   4    -0.413206554931E+03   -0.33056E-01   -0.33888E-02  5144   0.153E-01    0.756E-01
RMM:   5    -0.413172984663E+03    0.33570E-01   -0.16499E-02  4800   0.126E-01    0.379E-02
RMM:   6    -0.413173173696E+03   -0.18903E-03   -0.26597E-03  5785   0.495E-02    0.189E-02
RMM:   7    -0.413173184377E+03   -0.10680E-04   -0.30341E-04  5867   0.145E-02    0.141E-02
RMM:   8    -0.413173181868E+03    0.25087E-05   -0.40007E-05  4579   0.562E-03    0.921E-03
RMM:   9    -0.413173176384E+03    0.54838E-05   -0.67186E-06  3026   0.293E-03    0.623E-03
RMM:  10    -0.413173171301E+03    0.50835E-05   -0.20735E-06  2547   0.216E-03    0.320E-03
RMM:  11    -0.413173166984E+03    0.43171E-05   -0.15747E-06  2527   0.192E-03    0.157E-03
RMM:  12    -0.413173163825E+03    0.31586E-05   -0.74094E-07  2442   0.142E-03    0.523E-04
RMM:  13    -0.413173162707E+03    0.11178E-05   -0.32164E-07  2108   0.963E-04    0.318E-04
RMM:  14    -0.413173161057E+03    0.16503E-05   -0.18529E-07  1597   0.769E-04    0.173E-04
RMM:  15    -0.413173158373E+03    0.26839E-05   -0.16263E-07  1534   0.740E-04    0.145E-04
RMM:  16    -0.413173157758E+03    0.61469E-06   -0.70230E-08  1058   0.611E-04
   22 T=    62. E= -.41286655E+03 F= -.41317316E+03 E0= -.41315122E+03  EK= 0.30661E+00 SP= 0.00E+00 SK= 0.00E+00
       N       E                     dE             d eps       ncg     rms          rms(c)
RMM:   1    -0.413164642698E+03    0.85157E-02   -0.11423E+01  4298   0.791E-01    0.915E-01
RMM:   2    -0.413174719732E+03   -0.10077E-01   -0.13852E-01  4285   0.106E-01    0.636E-01
RMM:   3    -0.413174269563E+03    0.45017E-03   -0.68343E-03  4894   0.432E-02    0.182E-01
RMM:   4    -0.413210822449E+03   -0.36553E-01   -0.37719E-02  5144   0.161E-01    0.794E-01
RMM:   5    -0.413173617183E+03    0.37205E-01   -0.18258E-02  4797   0.133E-01    0.404E-02
RMM:   6    -0.413173815794E+03   -0.19861E-03   -0.29325E-03  5788   0.520E-02    0.203E-02
RMM:   7    -0.413173824693E+03   -0.88992E-05   -0.33127E-04  5889   0.152E-02    0.149E-02
RMM:   8    -0.413173820072E+03    0.46210E-05   -0.43473E-05  4655   0.587E-03    0.973E-03
RMM:   9    -0.413173812221E+03    0.78513E-05   -0.74461E-06  3093   0.304E-03    0.653E-03
RMM:  10    -0.413173804462E+03    0.77585E-05   -0.22274E-06  2549   0.228E-03    0.332E-03
RMM:  11    -0.413173797862E+03    0.66007E-05   -0.16395E-06  2525   0.197E-03    0.162E-03
RMM:  12    -0.413173793222E+03    0.46394E-05   -0.77428E-07  2451   0.147E-03    0.536E-04
RMM:  13    -0.413173791648E+03    0.15743E-05   -0.34090E-07  2136   0.993E-04    0.338E-04
RMM:  14    -0.413173789633E+03    0.20155E-05   -0.18539E-07  1632   0.776E-04    0.186E-04
RMM:  15    -0.413173785765E+03    0.38678E-05   -0.17479E-07  1625   0.755E-04    0.165E-04
RMM:  16    -0.413173785095E+03    0.67006E-06   -0.69664E-08  1045   0.606E-04
   23 T=    63. E= -.41286632E+03 F= -.41317379E+03 E0= -.41315189E+03  EK= 0.30747E+00 SP= 0.00E+00 SK= 0.00E+00
       N       E                     dE             d eps       ncg     rms          rms(c)
RMM:   1    -0.413165538048E+03    0.82477E-02   -0.11412E+01  4293   0.794E-01    0.894E-01
RMM:   2    -0.413176878406E+03   -0.11340E-01   -0.14192E-01  4286   0.104E-01    0.643E-01
RMM:   3    -0.413175650272E+03    0.12281E-02   -0.63179E-03  4809   0.401E-02    0.171E-01
RMM:   4    -0.413204555491E+03   -0.28905E-01   -0.29440E-02  5147   0.143E-01    0.708E-01
RMM:   5    -0.413175214144E+03    0.29341E-01   -0.14504E-02  4807   0.118E-01    0.342E-02
RMM:   6    -0.413175374442E+03   -0.16030E-03   -0.23026E-03  5803   0.455E-02    0.176E-02
RMM:   7    -0.413175384531E+03   -0.10090E-04   -0.24600E-04  5799   0.133E-02    0.126E-02
RMM:   8    -0.413175383642E+03    0.88902E-06   -0.35469E-05  4516   0.533E-03    0.874E-03
RMM:   9    -0.413175379197E+03    0.44452E-05   -0.64383E-06  3072   0.294E-03    0.593E-03
RMM:  10    -0.413175376313E+03    0.28846E-05   -0.19030E-06  2545   0.212E-03    0.312E-03
RMM:  11    -0.413175374020E+03    0.22928E-05   -0.15443E-06  2526   0.189E-03    0.157E-03
RMM:  12    -0.413175372167E+03    0.18525E-05   -0.71129E-07  2429   0.139E-03    0.543E-04
RMM:  13    -0.413175371578E+03    0.58888E-06   -0.29497E-07  2048   0.930E-04
   24 T=    63. E= -.41286673E+03 F= -.41317537E+03 E0= -.41315352E+03  EK= 0.30865E+00 SP= 0.00E+00 SK= 0.00E+00
       N       E                     dE             d eps       ncg     rms          rms(c)
RMM:   1    -0.413166723148E+03    0.86490E-02   -0.11523E+01  4297   0.802E-01    0.909E-01
RMM:   2    -0.413177912078E+03   -0.11189E-01   -0.14180E-01  4279   0.107E-01    0.648E-01
RMM:   3    -0.413176665900E+03    0.12462E-02   -0.64789E-03  4797   0.421E-02    0.173E-01
RMM:   4    -0.413206553946E+03   -0.29888E-01   -0.30270E-02  5145   0.145E-01    0.719E-01
RMM:   5    -0.413176243634E+03    0.30310E-01   -0.14976E-02  4806   0.120E-01    0.349E-02
RMM:   6    -0.413176404409E+03   -0.16077E-03   -0.23798E-03  5814   0.463E-02    0.182E-02
RMM:   7    -0.413176413196E+03   -0.87875E-05   -0.25150E-04  5806   0.135E-02    0.129E-02
RMM:   8    -0.413176410823E+03    0.23729E-05   -0.36285E-05  4549   0.540E-03    0.899E-03
RMM:   9    -0.413176404958E+03    0.58655E-05   -0.66860E-06  3093   0.301E-03    0.605E-03
RMM:  10    -0.413176400469E+03    0.44888E-05   -0.19770E-06  2551   0.218E-03    0.316E-03
RMM:  11    -0.413176396604E+03    0.38648E-05   -0.15975E-06  2527   0.194E-03    0.159E-03
RMM:  12    -0.413176393711E+03    0.28932E-05   -0.70806E-07  2433   0.140E-03    0.544E-04
RMM:  13    -0.413176392722E+03    0.98842E-06   -0.30191E-07  2065   0.936E-04
   25 T=    63. E= -.41286670E+03 F= -.41317639E+03 E0= -.41315459E+03  EK= 0.30969E+00 SP= 0.00E+00 SK= 0.00E+00
       N       E                     dE             d eps       ncg     rms          rms(c)
RMM:   1    -0.413168255156E+03    0.81386E-02   -0.11552E+01  4293   0.810E-01    0.925E-01
RMM:   2    -0.413178329142E+03   -0.10074E-01   -0.14072E-01  4275   0.110E-01    0.640E-01
RMM:   3    -0.413177757919E+03    0.57122E-03   -0.67579E-03  4714   0.415E-02    0.173E-01
RMM:   4    -0.413201487302E+03   -0.23729E-01   -0.23884E-02  5147   0.129E-01    0.643E-01
RMM:   5    -0.413177437929E+03    0.24049E-01   -0.11982E-02  4811   0.107E-01    0.329E-02
RMM:   6    -0.413177557940E+03   -0.12001E-03   -0.18999E-03  5813   0.409E-02    0.181E-02
RMM:   7    -0.413177560596E+03   -0.26556E-05   -0.19010E-04  5632   0.119E-02    0.116E-02
RMM:   8    -0.413177555276E+03    0.53202E-05   -0.28104E-05  4288   0.487E-03    0.829E-03
RMM:   9    -0.413177547108E+03    0.81678E-05   -0.62011E-06  3083   0.296E-03    0.561E-03
RMM:  10    -0.413177539528E+03    0.75795E-05   -0.16118E-06  2528   0.208E-03    0.306E-03
RMM:  11    -0.413177531113E+03    0.84151E-05   -0.14876E-06  2524   0.190E-03    0.151E-03
RMM:  12    -0.413177525300E+03    0.58132E-05   -0.63594E-07  2423   0.137E-03    0.511E-04
RMM:  13    -0.413177523639E+03    0.16606E-05   -0.25916E-07  1988   0.898E-04    0.324E-04
RMM:  14    -0.413177520631E+03    0.30079E-05   -0.14940E-07  1522   0.744E-04    0.163E-04
RMM:  15    -0.413177516225E+03    0.44068E-05   -0.13759E-07  1585   0.725E-04    0.204E-04
RMM:  16    -0.413177515331E+03    0.89373E-06   -0.50147E-08   921   0.578E-04
   26 T=    63. E= -.41286656E+03 F= -.41317752E+03 E0= -.41315577E+03  EK= 0.31095E+00 SP= 0.00E+00 SK= 0.00E+00
       N       E                     dE             d eps       ncg     rms          rms(c)
RMM:   1    -0.413169540121E+03    0.79761E-02   -0.11520E+01  4295   0.814E-01    0.900E-01
RMM:   2    -0.413180642547E+03   -0.11102E-01   -0.14237E-01  4280   0.104E-01    0.643E-01
RMM:   3    -0.413179769900E+03    0.87265E-03   -0.64010E-03  4736   0.419E-02    0.173E-01
RMM:   4    -0.413204984844E+03   -0.25215E-01   -0.25395E-02  5149   0.133E-01    0.662E-01
RMM:   5    -0.413179414947E+03    0.25570E-01   -0.12751E-02  4812   0.110E-01    0.320E-02
RMM:   6    -0.413179543418E+03   -0.12847E-03   -0.19759E-03  5825   0.420E-02    0.173E-02
RMM:   7    -0.413179549987E+03   -0.65688E-05   -0.20160E-04  5723   0.123E-02    0.118E-02
RMM:   8    -0.413179547501E+03    0.24862E-05   -0.30371E-05  4406   0.504E-03    0.833E-03
RMM:   9    -0.413179541653E+03    0.58482E-05   -0.60595E-06  3062   0.295E-03    0.559E-03
RMM:  10    -0.413179537096E+03    0.45565E-05   -0.16978E-06  2533   0.208E-03    0.298E-03
RMM:  11    -0.413179532953E+03    0.41431E-05   -0.14353E-06  2518   0.185E-03    0.149E-03
RMM:  12    -0.413179529909E+03    0.30443E-05   -0.63529E-07  2422   0.134E-03    0.509E-04
RMM:  13    -0.413179528960E+03    0.94892E-06   -0.25874E-07  1959   0.888E-04
   27 T=    64. E= -.41286688E+03 F= -.41317953E+03 E0= -.41315783E+03  EK= 0.31265E+00 SP= 0.00E+00 SK= 0.00E+00
       N       E                     dE             d eps       ncg     rms          rms(c)
RMM:   1    -0.413171005480E+03    0.85244E-02   -0.11660E+01  4294   0.835E-01    0.908E-01
RMM:   2    -0.413181740119E+03   -0.10735E-01   -0.14609E-01  4273   0.108E-01    0.655E-01
RMM:   3    -0.413180658296E+03    0.10818E-02   -0.64735E-03  4631   0.419E-02    0.169E-01
RMM:   4    -0.413199555025E+03   -0.18897E-01   -0.19204E-02  5155   0.117E-01    0.577E-01
RMM:   5    -0.413180283574E+03    0.19271E-01   -0.95927E-03  4817   0.951E-02    0.280E-02
RMM:   6    -0.413180376027E+03   -0.92454E-04   -0.15022E-03  5850   0.360E-02    0.156E-02
RMM:   7    -0.413180380855E+03   -0.48275E-05   -0.14059E-04  5449   0.104E-02    0.967E-03
RMM:   8    -0.413180377137E+03    0.37175E-05   -0.17612E-05  3657   0.397E-03    0.644E-03
RMM:   9    -0.413180372484E+03    0.46529E-05   -0.41715E-06  2790   0.259E-03    0.406E-03
RMM:  10    -0.413180370673E+03    0.18119E-05   -0.13942E-06  2532   0.184E-03    0.261E-03
RMM:  11    -0.413180366367E+03    0.43054E-05   -0.10911E-06  2504   0.170E-03    0.127E-03
RMM:  12    -0.413180364053E+03    0.23144E-05   -0.48500E-07  2347   0.118E-03    0.513E-04
RMM:  13    -0.413180362918E+03    0.11347E-05   -0.20494E-07  1723   0.818E-04    0.278E-04
RMM:  14    -0.413180359981E+03    0.29369E-05   -0.18827E-07  1758   0.782E-04    0.232E-04
RMM:  15    -0.413180358536E+03    0.14453E-05   -0.79460E-08  1082   0.613E-04    0.123E-04
RMM:  16    -0.413180356794E+03    0.17414E-05   -0.60930E-08  1034   0.606E-04    0.911E-05
RMM:  17    -0.413180354790E+03    0.20039E-05   -0.56420E-08  1098   0.603E-04    0.553E-05
RMM:  18    -0.413180353704E+03    0.10868E-05   -0.29587E-08   858   0.556E-04    0.304E-05
RMM:  19    -0.413180353226E+03    0.47750E-06   -0.14754E-08   723   0.534E-04
   28 T=    64. E= -.41286624E+03 F= -.41318035E+03 E0= -.41315871E+03  EK= 0.31412E+00 SP= 0.00E+00 SK= 0.00E+00
       N       E                     dE             d eps       ncg     rms          rms(c)
RMM:   1    -0.413173289355E+03    0.70643E-02   -0.11737E+01  4289   0.841E-01    0.933E-01
RMM:   2    -0.413183411774E+03   -0.10122E-01   -0.14387E-01  4275   0.111E-01    0.647E-01
RMM:   3    -0.413182738470E+03    0.67330E-03   -0.68458E-03  4552   0.407E-02    0.173E-01
RMM:   4    -0.413196870360E+03   -0.14132E-01   -0.14195E-02  5164   0.100E-01    0.497E-01
RMM:   5    -0.413182675427E+03    0.14195E-01   -0.70903E-03  4828   0.814E-02    0.272E-02
RMM:   6    -0.413182730707E+03   -0.55280E-04   -0.11163E-03  5856   0.307E-02    0.162E-02
RMM:   7    -0.413182731836E+03   -0.11294E-05   -0.11705E-04  5494   0.971E-03    0.105E-02
RMM:   8    -0.413182723468E+03    0.83676E-05   -0.17756E-05  3969   0.430E-03    0.638E-03
RMM:   9    -0.413182717177E+03    0.62915E-05   -0.39761E-06  2790   0.269E-03    0.423E-03
RMM:  10    -0.413182710494E+03    0.66828E-05   -0.10456E-06  2505   0.174E-03    0.236E-03
RMM:  11    -0.413182703618E+03    0.68761E-05   -0.89160E-07  2487   0.150E-03    0.118E-03
RMM:  12    -0.413182697935E+03    0.56833E-05   -0.46623E-07  2307   0.115E-03    0.417E-04
RMM:  13    -0.413182696555E+03    0.13797E-05   -0.18549E-07  1633   0.780E-04    0.252E-04
RMM:  14    -0.413182694563E+03    0.19924E-05   -0.10388E-07  1243   0.672E-04    0.147E-04
RMM:  15    -0.413182690283E+03    0.42792E-05   -0.10353E-07  1423   0.690E-04    0.147E-04
RMM:  16    -0.413182689543E+03    0.74032E-06   -0.41866E-08   887   0.574E-04
   29 T=    64. E= -.41286667E+03 F= -.41318269E+03 E0= -.41316109E+03  EK= 0.31602E+00 SP= 0.00E+00 SK= 0.00E+00
       N       E                     dE             d eps       ncg     rms          rms(c)
RMM:   1    -0.413174660042E+03    0.80302E-02   -0.11698E+01  4290   0.850E-01    0.911E-01
RMM:   2    -0.413185459101E+03   -0.10799E-01   -0.14630E-01  4271   0.109E-01    0.646E-01
RMM:   3    -0.413184428507E+03    0.10306E-02   -0.65234E-03  4382   0.446E-02    0.170E-01
RMM:   4    -0.413189507529E+03   -0.50790E-02   -0.57124E-03  5129   0.670E-02    0.302E-01
RMM:   5    -0.413184329097E+03    0.51784E-02   -0.25335E-03  4826   0.493E-02    0.202E-02
RMM:   6    -0.413184335412E+03   -0.63143E-05   -0.39917E-04  5784   0.192E-02    0.143E-02
RMM:   7    -0.413184330113E+03    0.52989E-05   -0.57692E-05  5103   0.770E-03    0.765E-03
RMM:   8    -0.413184322608E+03    0.75045E-05   -0.70537E-06  3031   0.337E-03    0.343E-03
RMM:   9    -0.413184318545E+03    0.40636E-05   -0.15441E-06  2559   0.191E-03    0.219E-03
RMM:  10    -0.413184313851E+03    0.46931E-05   -0.65377E-07  2404   0.131E-03    0.126E-03
RMM:  11    -0.413184309203E+03    0.46486E-05   -0.43850E-07  2202   0.106E-03    0.471E-04
RMM:  12    -0.413184305969E+03    0.32342E-05   -0.23181E-07  1673   0.827E-04    0.196E-04
RMM:  13    -0.413184303600E+03    0.23685E-05   -0.13291E-07  1247   0.700E-04    0.111E-04
RMM:  14    -0.413184300561E+03    0.30390E-05   -0.11050E-07  1325   0.688E-04    0.763E-05
RMM:  15    -0.413184297839E+03    0.27222E-05   -0.86327E-08  1286   0.647E-04    0.843E-05
RMM:  16    -0.413184296265E+03    0.15743E-05   -0.53314E-08  1016   0.576E-04    0.410E-05
RMM:  17    -0.413184294198E+03    0.20670E-05   -0.50239E-08  1072   0.571E-04    0.240E-05
RMM:  18    -0.413184293845E+03    0.35279E-06   -0.19742E-08   721   0.507E-04
   30 T=    65. E= -.41286662E+03 F= -.41318429E+03 E0= -.41316275E+03  EK= 0.31767E+00 SP= 0.00E+00 SK= 0.00E+00
       N       E                     dE             d eps       ncg     rms          rms(c)
RMM:   1    -0.413177874134E+03    0.64201E-02   -0.11839E+01  4290   0.893E-01    0.910E-01
RMM:   2    -0.413188149228E+03   -0.10275E-01   -0.15118E-01  4273   0.122E-01    0.660E-01
RMM:   3    -0.413186141853E+03    0.20074E-02   -0.63303E-03  4264   0.414E-02    0.167E-01
RMM:   4    -0.413187984979E+03   -0.18431E-02   -0.26733E-03  5099   0.437E-02    0.181E-01
RMM:   5    -0.413186141147E+03    0.18438E-02   -0.89246E-04  4801   0.298E-02    0.171E-02
RMM:   6    -0.413186137990E+03    0.31575E-05   -0.16486E-04  5629   0.130E-02    0.129E-02
RMM:   7    -0.413186133827E+03    0.41629E-05   -0.32262E-05  4583   0.617E-03    0.515E-03
RMM:   8    -0.413186129743E+03    0.40840E-05   -0.47529E-06  2875   0.292E-03    0.269E-03
RMM:   9    -0.413186128481E+03    0.12616E-05   -0.72335E-07  2477   0.158E-03    0.165E-03
RMM:  10    -0.413186125660E+03    0.28215E-05   -0.52534E-07  2273   0.112E-03    0.882E-04
RMM:  11    -0.413186123556E+03    0.21037E-05   -0.29173E-07  1735   0.861E-04    0.367E-04
RMM:  12    -0.413186121531E+03    0.20253E-05   -0.19840E-07  1580   0.768E-04    0.187E-04
RMM:  13    -0.413186119633E+03    0.18981E-05   -0.12975E-07  1281   0.676E-04    0.970E-05
RMM:  14    -0.413186118197E+03    0.14353E-05   -0.83512E-08  1118   0.617E-04    0.647E-05
RMM:  15    -0.413186116293E+03    0.19048E-05   -0.70170E-08  1084   0.601E-04    0.361E-05
RMM:  16    -0.413186115115E+03    0.11779E-05   -0.40862E-08   868   0.561E-04    0.321E-05
RMM:  17    -0.413186114325E+03    0.78943E-06   -0.24572E-08   744   0.538E-04
   31 T=    65. E= -.41286673E+03 F= -.41318611E+03 E0= -.41316462E+03  EK= 0.31938E+00 SP= 0.00E+00 SK= 0.00E+00
       N       E                     dE             d eps       ncg     rms          rms(c)
RMM:   1    -0.413184516999E+03    0.15981E-02   -0.11983E+01  4286   0.927E-01    0.937E-01
RMM:   2    -0.413189806828E+03   -0.52898E-02   -0.15204E-01  4273   0.122E-01    0.655E-01
RMM:   3    -0.413188769708E+03    0.10371E-02   -0.68519E-03  4192   0.480E-02    0.175E-01
RMM:   4    -0.413188936795E+03   -0.16709E-03   -0.10881E-03  4725   0.281E-02    0.422E-02
RMM:   5    -0.413188861006E+03    0.75790E-04   -0.69832E-05  4740   0.915E-03    0.228E-02
RMM:   6    -0.413188843258E+03    0.17748E-04   -0.55295E-05  5110   0.796E-03    0.143E-02
RMM:   7    -0.413188826727E+03    0.16531E-04   -0.20797E-05  3751   0.546E-03    0.377E-03
RMM:   8    -0.413188820172E+03    0.65549E-05   -0.24115E-06  2520   0.247E-03    0.235E-03
RMM:   9    -0.413188817342E+03    0.28300E-05   -0.48483E-07  2229   0.133E-03    0.134E-03
RMM:  10    -0.413188810840E+03    0.65020E-05   -0.29768E-07  1676   0.886E-04    0.527E-04
RMM:  11    -0.413188804729E+03    0.61110E-05   -0.16817E-07  1458   0.732E-04    0.220E-04
RMM:  12    -0.413188801785E+03    0.29443E-05   -0.63659E-08  1083   0.590E-04    0.142E-04
RMM:  13    -0.413188795323E+03    0.64622E-05   -0.86438E-08  1177   0.634E-04    0.854E-05
RMM:  14    -0.413188791417E+03    0.39061E-05   -0.46014E-08   971   0.565E-04    0.588E-05
RMM:  15    -0.413188789618E+03    0.17991E-05   -0.22320E-08   731   0.496E-04    0.453E-05
RMM:  16    -0.413188787047E+03    0.25707E-05   -0.33415E-08   850   0.519E-04    0.365E-05
RMM:  17    -0.413188786929E+03    0.11783E-06   -0.53419E-09   477   0.436E-04
   32 T=    65. E= -.41286727E+03 F= -.41318879E+03 E0= -.41316734E+03  EK= 0.32151E+00 SP= 0.00E+00 SK= 0.00E+00
       N       E                     dE             d eps       ncg     rms          rms(c)
RMM:   1    -0.413190948437E+03   -0.21614E-02   -0.12003E+01  4288   0.939E-01    0.925E-01
RMM:   2    -0.413192011501E+03   -0.10631E-02   -0.15609E-01  4282   0.132E-01    0.651E-01
RMM:   3    -0.413190711379E+03    0.13001E-02   -0.64286E-03  4201   0.390E-02    0.181E-01
RMM:   4    -0.413191057662E+03   -0.34628E-03   -0.13765E-03  4985   0.309E-02    0.842E-02
RMM:   5    -0.413190681940E+03    0.37572E-03   -0.19616E-04  4723   0.147E-02    0.196E-02
RMM:   6    -0.413190670143E+03    0.11797E-04   -0.75518E-05  5291   0.934E-03    0.140E-02
RMM:   7    -0.413190656593E+03    0.13550E-04   -0.20924E-05  3900   0.540E-03    0.422E-03
RMM:   8    -0.413190649809E+03    0.67836E-05   -0.31366E-06  2667   0.265E-03    0.243E-03
RMM:   9    -0.413190646936E+03    0.28731E-05   -0.57387E-07  2304   0.145E-03    0.140E-03
RMM:  10    -0.413190640780E+03    0.61565E-05   -0.36923E-07  1900   0.998E-04    0.626E-04
RMM:  11    -0.413190635404E+03    0.53757E-05   -0.20955E-07  1555   0.779E-04    0.249E-04
RMM:  12    -0.413190631482E+03    0.39222E-05   -0.11359E-07  1308   0.672E-04    0.165E-04
RMM:  13    -0.413190626351E+03    0.51308E-05   -0.87822E-08  1102   0.631E-04    0.768E-05
RMM:  14    -0.413190622914E+03    0.34370E-05   -0.52729E-08   911   0.580E-04    0.707E-05
RMM:  15    -0.413190619966E+03    0.29476E-05   -0.38364E-08   874   0.555E-04    0.536E-05
RMM:  16    -0.413190617323E+03    0.26432E-05   -0.31360E-08   822   0.544E-04    0.374E-05
RMM:  17    -0.413190616888E+03    0.43457E-06   -0.97889E-09   506   0.485E-04
   33 T=    66. E= -.41286708E+03 F= -.41319062E+03 E0= -.41316922E+03  EK= 0.32354E+00 SP= 0.00E+00 SK= 0.00E+00
       N       E                     dE             d eps       ncg     rms          rms(c)
RMM:   1    -0.413184898395E+03    0.57189E-02   -0.12039E+01  4290   0.921E-01    0.915E-01
RMM:   2    -0.413194822803E+03   -0.99244E-02   -0.15656E-01  4269   0.126E-01    0.664E-01
RMM:   3    -0.413193376436E+03    0.14464E-02   -0.63475E-03  4474   0.446E-02    0.177E-01
RMM:   4    -0.413202712648E+03   -0.93362E-02   -0.96789E-03  5153   0.859E-02    0.407E-01
RMM:   5    -0.413193340274E+03    0.93724E-02   -0.45941E-03  4812   0.667E-02    0.233E-02
RMM:   6    -0.413193329016E+03    0.11259E-04   -0.71566E-04  5801   0.265E-02    0.144E-02
RMM:   7    -0.413193331129E+03   -0.21134E-05   -0.91938E-05  5378   0.910E-03    0.932E-03
RMM:   8    -0.413193325673E+03    0.54557E-05   -0.12703E-05  3655   0.400E-03    0.479E-03
RMM:   9    -0.413193322656E+03    0.30167E-05   -0.25443E-06  2647   0.237E-03    0.280E-03
RMM:  10    -0.413193319358E+03    0.32987E-05   -0.85924E-07  2492   0.150E-03    0.155E-03
RMM:  11    -0.413193315930E+03    0.34280E-05   -0.58501E-07  2390   0.120E-03    0.748E-04
RMM:  12    -0.413193312818E+03    0.31118E-05   -0.35598E-07  2051   0.959E-04    0.277E-04
RMM:  13    -0.413193311586E+03    0.12317E-05   -0.15353E-07  1295   0.715E-04    0.168E-04
RMM:  14    -0.413193309774E+03    0.18123E-05   -0.10888E-07  1147   0.668E-04    0.990E-05
RMM:  15    -0.413193307727E+03    0.20470E-05   -0.85934E-08  1126   0.647E-04    0.582E-05
RMM:  16    -0.413193307152E+03    0.57489E-06   -0.46935E-08   891   0.594E-04
   34 T=    66. E= -.41286730E+03 F= -.41319331E+03 E0= -.41317195E+03  EK= 0.32601E+00 SP= 0.00E+00 SK= 0.00E+00
       N       E                     dE             d eps       ncg     rms          rms(c)
RMM:   1    -0.413186421418E+03    0.68863E-02   -0.12158E+01  4301   0.936E-01    0.941E-01
RMM:   2    -0.413197249556E+03   -0.10828E-01   -0.15776E-01  4263   0.134E-01    0.664E-01
RMM:   3    -0.413196078651E+03    0.11709E-02   -0.66102E-03  4458   0.436E-02    0.181E-01
RMM:   4    -0.413201728103E+03   -0.56495E-02   -0.63405E-03  5144   0.690E-02    0.322E-01
RMM:   5    -0.413195917205E+03    0.58109E-02   -0.29216E-03  4813   0.530E-02    0.227E-02
RMM:   6    -0.413195904071E+03    0.13133E-04   -0.48077E-04  5743   0.216E-02    0.149E-02
RMM:   7    -0.413195899278E+03    0.47931E-05   -0.68668E-05  5146   0.799E-03    0.790E-03
RMM:   8    -0.413195890745E+03    0.85328E-05   -0.96750E-06  3348   0.367E-03    0.382E-03
RMM:   9    -0.413195885685E+03    0.50600E-05   -0.16608E-06  2557   0.204E-03    0.217E-03
RMM:  10    -0.413195879495E+03    0.61907E-05   -0.68147E-07  2441   0.132E-03    0.124E-03
RMM:  11    -0.413195873068E+03    0.64271E-05   -0.43573E-07  2229   0.106E-03    0.515E-04
RMM:  12    -0.413195867900E+03    0.51679E-05   -0.24824E-07  1797   0.854E-04    0.197E-04
RMM:  13    -0.413195865227E+03    0.26733E-05   -0.12959E-07  1239   0.694E-04    0.132E-04
RMM:  14    -0.413195861636E+03    0.35901E-05   -0.96804E-08  1199   0.663E-04    0.771E-05
RMM:  15    -0.413195856439E+03    0.51974E-05   -0.94287E-08  1342   0.672E-04    0.778E-05
RMM:  16    -0.413195855466E+03    0.97342E-06   -0.44222E-08   914   0.578E-04
   35 T=    67. E= -.41286725E+03 F= -.41319586E+03 E0= -.41317455E+03  EK= 0.32861E+00 SP= 0.00E+00 SK= 0.00E+00
       N       E                     dE             d eps       ncg     rms          rms(c)
RMM:   1    -0.413189566488E+03    0.62900E-02   -0.12207E+01  4299   0.965E-01    0.942E-01
RMM:   2    -0.413199208182E+03   -0.96417E-02   -0.15666E-01  4264   0.120E-01    0.657E-01
RMM:   3    -0.413198400637E+03    0.80755E-03   -0.69070E-03  4812   0.451E-02    0.195E-01
RMM:   4    -0.413228540110E+03   -0.30139E-01   -0.30317E-02  5157   0.146E-01    0.724E-01
RMM:   5    -0.413198076557E+03    0.30464E-01   -0.15352E-02  4806   0.121E-01    0.370E-02
RMM:   6    -0.413198119025E+03   -0.42468E-04   -0.24032E-03  5850   0.460E-02    0.189E-02
RMM:   7    -0.413198130343E+03   -0.11318E-04   -0.25039E-04  5771   0.135E-02    0.131E-02
RMM:   8    -0.413198123229E+03    0.71140E-05   -0.33624E-05  4503   0.535E-03    0.877E-03
RMM:   9    -0.413198117134E+03    0.60950E-05   -0.87769E-06  3403   0.346E-03    0.569E-03
RMM:  10    -0.413198107581E+03    0.95528E-05   -0.21412E-06  2547   0.242E-03    0.274E-03
RMM:  11    -0.413198100081E+03    0.74998E-05   -0.14280E-06  2514   0.187E-03    0.150E-03
RMM:  12    -0.413198092325E+03    0.77555E-05   -0.68759E-07  2443   0.146E-03    0.556E-04
RMM:  13    -0.413198089787E+03    0.25381E-05   -0.28542E-07  2120   0.959E-04    0.387E-04
RMM:  14    -0.413198087737E+03    0.20501E-05   -0.12980E-07  1462   0.717E-04    0.231E-04
RMM:  15    -0.413198081188E+03    0.65487E-05   -0.12762E-07  1709   0.738E-04    0.249E-04
RMM:  16    -0.413198080365E+03    0.82335E-06   -0.42259E-08   910   0.566E-04
   36 T=    67. E= -.41286701E+03 F= -.41319808E+03 E0= -.41317682E+03  EK= 0.33107E+00 SP= 0.00E+00 SK= 0.00E+00
       N       E                     dE             d eps       ncg     rms          rms(c)
RMM:   1    -0.413190986595E+03    0.70946E-02   -0.12264E+01  4303   0.988E-01    0.924E-01
RMM:   2    -0.413202767883E+03   -0.11781E-01   -0.16320E-01  4261   0.134E-01    0.669E-01
RMM:   3    -0.413201532914E+03    0.12350E-02   -0.66749E-03  4815   0.515E-02    0.203E-01
RMM:   4    -0.413242957118E+03   -0.41424E-01   -0.42236E-02  5155   0.172E-01    0.845E-01
RMM:   5    -0.413200861134E+03    0.42096E-01   -0.21117E-02  4795   0.142E-01    0.413E-02
RMM:   6    -0.413200963146E+03   -0.10201E-03   -0.33486E-03  5858   0.539E-02    0.196E-02
RMM:   7    -0.413200980712E+03   -0.17565E-04   -0.32789E-04  5730   0.151E-02    0.133E-02
RMM:   8    -0.413200976668E+03    0.40435E-05   -0.36085E-05  4008   0.505E-03    0.862E-03
RMM:   9    -0.413200970009E+03    0.66598E-05   -0.75962E-06  3016   0.328E-03    0.410E-03
RMM:  10    -0.413200966429E+03    0.35791E-05   -0.24930E-06  2592   0.226E-03    0.271E-03
RMM:  11    -0.413200961255E+03    0.51740E-05   -0.13271E-06  2495   0.191E-03    0.140E-03
RMM:  12    -0.413200957242E+03    0.40138E-05   -0.61516E-07  2423   0.135E-03    0.505E-04
RMM:  13    -0.413200955881E+03    0.13608E-05   -0.28489E-07  2010   0.924E-04    0.332E-04
RMM:  14    -0.413200953758E+03    0.21229E-05   -0.15918E-07  1523   0.750E-04    0.197E-04
RMM:  15    -0.413200949942E+03    0.38161E-05   -0.13086E-07  1506   0.718E-04    0.162E-04
RMM:  16    -0.413200948859E+03    0.10831E-05   -0.59176E-08  1014   0.605E-04    0.894E-05
RMM:  17    -0.413200946024E+03    0.28349E-05   -0.59042E-08  1108   0.619E-04    0.610E-05
RMM:  18    -0.413200944379E+03    0.16444E-05   -0.42679E-08  1027   0.590E-04    0.250E-05
RMM:  19    -0.413200943601E+03    0.77788E-06   -0.22872E-08   820   0.554E-04
   37 T=    68. E= -.41286707E+03 F= -.41320094E+03 E0= -.41317972E+03  EK= 0.33387E+00 SP= 0.00E+00 SK= 0.00E+00
       N       E                     dE             d eps       ncg     rms          rms(c)
RMM:   1    -0.413194961664E+03    0.59827E-02   -0.12445E+01  4308   0.104E+00    0.945E-01
RMM:   2    -0.413205570394E+03   -0.10609E-01   -0.16332E-01  4260   0.129E-01    0.674E-01
RMM:   3    -0.413204091405E+03    0.14790E-02   -0.69125E-03  4767   0.508E-02    0.201E-01
RMM:   4    -0.413240210175E+03   -0.36119E-01   -0.36445E-02  5153   0.160E-01    0.791E-01
RMM:   5    -0.413203589039E+03    0.36621E-01   -0.18470E-02  4803   0.132E-01    0.390E-02
RMM:   6    -0.413203668209E+03   -0.79170E-04   -0.29022E-03  5838   0.502E-02    0.193E-02
RMM:   7    -0.413203683249E+03   -0.15040E-04   -0.29100E-04  5745   0.144E-02    0.133E-02
RMM:   8    -0.413203677612E+03    0.56371E-05   -0.36826E-05  4447   0.538E-03    0.901E-03
RMM:   9    -0.413203673887E+03    0.37245E-05   -0.10970E-05  3677   0.358E-03    0.622E-03
RMM:  10    -0.413203666296E+03    0.75914E-05   -0.25521E-06  2572   0.255E-03    0.297E-03
RMM:  11    -0.413203660655E+03    0.56412E-05   -0.16704E-06  2521   0.201E-03    0.168E-03
RMM:  12    -0.413203655168E+03    0.54864E-05   -0.76019E-07  2458   0.153E-03    0.632E-04
RMM:  13    -0.413203653330E+03    0.18379E-05   -0.31242E-07  2193   0.100E-03    0.442E-04
RMM:  14    -0.413203651729E+03    0.16014E-05   -0.13870E-07  1507   0.736E-04    0.244E-04
RMM:  15    -0.413203646113E+03    0.56163E-05   -0.16457E-07  1909   0.781E-04    0.357E-04
RMM:  16    -0.413203645589E+03    0.52379E-06   -0.44988E-08   941   0.569E-04
   38 T=    68. E= -.41286727E+03 F= -.41320365E+03 E0= -.41318247E+03  EK= 0.33638E+00 SP= 0.00E+00 SK= 0.00E+00
       N       E                     dE             d eps       ncg     rms          rms(c)
RMM:   1    -0.413201284340E+03    0.23618E-02   -0.12542E+01  4304   0.108E+00    0.959E-01
RMM:   2    -0.413207006483E+03   -0.57221E-02   -0.16646E-01  4266   0.127E-01    0.667E-01
RMM:   3    -0.413206585988E+03    0.42049E-03   -0.75321E-03  4976   0.544E-02    0.231E-01
RMM:   4    -0.413257687814E+03   -0.51102E-01   -0.54628E-02  5130   0.194E-01    0.939E-01
RMM:   5    -0.413205438674E+03    0.52249E-01   -0.25905E-02  4788   0.158E-01    0.483E-02
RMM:   6    -0.413205579827E+03   -0.14115E-03   -0.40545E-03  5835   0.599E-02    0.222E-02
RMM:   7    -0.413205598746E+03   -0.18919E-04   -0.41565E-04  5841   0.171E-02    0.153E-02
RMM:   8    -0.413205596578E+03    0.21678E-05   -0.59296E-05  4868   0.648E-03    0.113E-02
RMM:   9    -0.413205586282E+03    0.10295E-04   -0.12462E-05  3741   0.386E-03    0.686E-03
RMM:  10    -0.413205575588E+03    0.10695E-04   -0.36905E-06  2656   0.290E-03    0.318E-03
RMM:  11    -0.413205568032E+03    0.75553E-05   -0.16354E-06  2504   0.208E-03    0.180E-03
RMM:  12    -0.413205559629E+03    0.84037E-05   -0.86179E-07  2469   0.163E-03    0.645E-04
RMM:  13    -0.413205555636E+03    0.39931E-05   -0.36446E-07  2274   0.109E-03    0.428E-04
RMM:  14    -0.413205552456E+03    0.31795E-05   -0.17840E-07  1731   0.791E-04    0.278E-04
RMM:  15    -0.413205544321E+03    0.81356E-05   -0.15340E-07  1791   0.768E-04    0.262E-04
RMM:  16    -0.413205543600E+03    0.72092E-06   -0.58221E-08  1007   0.583E-04
   39 T=    69. E= -.41286681E+03 F= -.41320554E+03 E0= -.41318440E+03  EK= 0.33873E+00 SP= 0.00E+00 SK= 0.00E+00
       N       E                     dE             d eps       ncg     rms          rms(c)
RMM:   1    -0.413204890234E+03    0.65409E-03   -0.12567E+01  4310   0.114E+00    0.936E-01
RMM:   2    -0.413210691506E+03   -0.58013E-02   -0.16720E-01  4266   0.133E-01    0.672E-01
RMM:   3    -0.413210096511E+03    0.59499E-03   -0.73164E-03  5019   0.550E-02    0.239E-01
RMM:   4    -0.413264129455E+03   -0.54033E-01   -0.59334E-02  5130   0.202E-01    0.965E-01
RMM:   5    -0.413208697391E+03    0.55432E-01   -0.27206E-02  4778   0.163E-01    0.500E-02
RMM:   6    -0.413208858455E+03   -0.16106E-03   -0.43332E-03  5814   0.616E-02    0.215E-02
RMM:   7    -0.413208881709E+03   -0.23254E-04   -0.44749E-04  5893   0.177E-02    0.155E-02
RMM:   8    -0.413208881774E+03   -0.64876E-07   -0.64518E-05  4972   0.676E-03    0.115E-02
RMM:   9    -0.413208873213E+03    0.85611E-05   -0.12136E-05  3686   0.384E-03    0.667E-03
RMM:  10    -0.413208865926E+03    0.72872E-05   -0.38710E-06  2672   0.288E-03    0.308E-03
RMM:  11    -0.413208860957E+03    0.49684E-05   -0.16784E-06  2512   0.207E-03    0.172E-03
RMM:  12    -0.413208855580E+03    0.53768E-05   -0.84012E-07  2463   0.158E-03    0.646E-04
RMM:  13    -0.413208852974E+03    0.26068E-05   -0.36100E-07  2239   0.107E-03    0.413E-04
RMM:  14    -0.413208850363E+03    0.26107E-05   -0.18741E-07  1734   0.797E-04    0.259E-04
RMM:  15    -0.413208845354E+03    0.50094E-05   -0.14300E-07  1554   0.733E-04    0.188E-04
RMM:  16    -0.413208844596E+03    0.75731E-06   -0.62312E-08  1025   0.601E-04
   40 T=    70. E= -.41286741E+03 F= -.41320884E+03 E0= -.41318774E+03  EK= 0.34143E+00 SP= 0.00E+00 SK= 0.00E+00
       N       E                     dE             d eps       ncg     rms          rms(c)
RMM:   1    -0.413206792471E+03    0.20529E-02   -0.12734E+01  4303   0.119E+00    0.947E-01
RMM:   2    -0.413212105653E+03   -0.53132E-02   -0.17500E-01  4269   0.140E-01    0.684E-01
RMM:   3    -0.413211857826E+03    0.24783E-03   -0.76456E-03  5047   0.568E-02    0.258E-01
RMM:   4    -0.413267867926E+03   -0.56010E-01   -0.63180E-02  5125   0.208E-01    0.985E-01
RMM:   5    -0.413210092452E+03    0.57775E-01   -0.28006E-02  4772   0.166E-01    0.527E-02
RMM:   6    -0.413210271480E+03   -0.17903E-03   -0.45698E-03  5805   0.628E-02    0.215E-02
RMM:   7    -0.413210297336E+03   -0.25856E-04   -0.47909E-04  5925   0.182E-02    0.161E-02
RMM:   8    -0.413210297665E+03   -0.32852E-06   -0.69542E-05  5066   0.706E-03    0.117E-02
RMM:   9    -0.413210289017E+03    0.86472E-05   -0.11769E-05  3612   0.390E-03    0.642E-03
RMM:  10    -0.413210282189E+03    0.68282E-05   -0.41281E-06  2696   0.295E-03    0.296E-03
RMM:  11    -0.413210277426E+03    0.47629E-05   -0.16809E-06  2521   0.205E-03    0.159E-03
RMM:  12    -0.413210272534E+03    0.48921E-05   -0.80020E-07  2460   0.154E-03    0.626E-04
RMM:  13    -0.413210270033E+03    0.25011E-05   -0.35195E-07  2217   0.104E-03    0.399E-04
RMM:  14    -0.413210266943E+03    0.30902E-05   -0.19612E-07  1706   0.802E-04    0.256E-04
RMM:  15    -0.413210262929E+03    0.40142E-05   -0.13395E-07  1412   0.711E-04    0.149E-04
RMM:  16    -0.413210261736E+03    0.11931E-05   -0.68269E-08  1048   0.618E-04    0.731E-05
RMM:  17    -0.413210259614E+03    0.21216E-05   -0.56657E-08  1051   0.613E-04    0.453E-05
RMM:  18    -0.413210256149E+03    0.34649E-05   -0.65911E-08  1241   0.635E-04    0.479E-05
RMM:  19    -0.413210255650E+03    0.49935E-06   -0.26354E-08   836   0.561E-04
   41 T=    70. E= -.41286692E+03 F= -.41321026E+03 E0= -.41318918E+03  EK= 0.34334E+00 SP= 0.00E+00 SK= 0.00E+00
       N       E                     dE             d eps       ncg     rms          rms(c)
RMM:   1    -0.413215621499E+03   -0.53654E-02   -0.12867E+01  4309   0.127E+00    0.972E-01
RMM:   2    -0.413213949215E+03    0.16723E-02   -0.17799E-01  4285   0.146E-01    0.676E-01
RMM:   3    -0.413216803180E+03   -0.28540E-02   -0.10124E-02  5125   0.731E-02    0.336E-01
RMM:   4    -0.413250331470E+03   -0.33528E-01   -0.49779E-02  5088   0.187E-01    0.807E-01
RMM:   5    -0.413212885902E+03    0.37446E-01   -0.16800E-02  4726   0.135E-01    0.500E-02
RMM:   6    -0.413212927618E+03   -0.41716E-04   -0.27519E-03  5747   0.498E-02    0.194E-02
RMM:   7    -0.413212939554E+03   -0.11936E-04   -0.32366E-04  5885   0.155E-02    0.148E-02
RMM:   8    -0.413212936628E+03    0.29258E-05   -0.52053E-05  4923   0.639E-03    0.952E-03
RMM:   9    -0.413212924497E+03    0.12131E-04   -0.90489E-06  3295   0.393E-03    0.432E-03
RMM:  10    -0.413212916140E+03    0.83572E-05   -0.27276E-06  2577   0.243E-03    0.221E-03
RMM:  11    -0.413212908836E+03    0.73036E-05   -0.10201E-06  2503   0.161E-03    0.100E-03
RMM:  12    -0.413212903278E+03    0.55581E-05   -0.42145E-07  2296   0.112E-03    0.493E-04
RMM:  13    -0.413212898043E+03    0.52357E-05   -0.24935E-07  1658   0.850E-04    0.242E-04
RMM:  14    -0.413212894382E+03    0.36609E-05   -0.15629E-07  1364   0.735E-04    0.149E-04
RMM:  15    -0.413212888784E+03    0.55977E-05   -0.12795E-07  1381   0.712E-04    0.831E-05
RMM:  16    -0.413212884751E+03    0.40326E-05   -0.97577E-08  1377   0.662E-04    0.556E-05
RMM:  17    -0.413212881070E+03    0.36818E-05   -0.73511E-08  1250   0.614E-04    0.446E-05
RMM:  18    -0.413212879286E+03    0.17832E-05   -0.46746E-08   992   0.559E-04    0.282E-05
RMM:  19    -0.413212878718E+03    0.56876E-06   -0.28199E-08   815   0.529E-04
   42 T=    70. E= -.41286746E+03 F= -.41321288E+03 E0= -.41319184E+03  EK= 0.34541E+00 SP= 0.00E+00 SK= 0.00E+00
       N       E                     dE             d eps       ncg     rms          rms(c)
RMM:   1    -0.413214524845E+03   -0.16456E-02   -0.12806E+01  4311   0.133E+00    0.948E-01
RMM:   2    -0.413215882472E+03   -0.13576E-02   -0.17618E-01  4290   0.154E-01    0.676E-01
RMM:   3    -0.413219835563E+03   -0.39531E-02   -0.10873E-02  5115   0.813E-02    0.367E-01
RMM:   4    -0.413248146323E+03   -0.28311E-01   -0.47727E-02  5061   0.184E-01    0.765E-01
RMM:   5    -0.413214819416E+03    0.33327E-01   -0.14535E-02  4705   0.128E-01    0.486E-02
RMM:   6    -0.413214842415E+03   -0.22999E-04   -0.24180E-03  5733   0.467E-02    0.185E-02
RMM:   7    -0.413214851800E+03   -0.93847E-05   -0.28066E-04  5869   0.148E-02    0.143E-02
RMM:   8    -0.413214849107E+03    0.26929E-05   -0.46112E-05  4865   0.615E-03    0.889E-03
RMM:   9    -0.413214838835E+03    0.10272E-04   -0.87674E-06  3283   0.398E-03    0.411E-03
RMM:  10    -0.413214832537E+03    0.62979E-05   -0.24756E-06  2567   0.238E-03    0.222E-03
RMM:  11    -0.413214827214E+03    0.53237E-05   -0.10292E-06  2508   0.159E-03    0.102E-03
RMM:  12    -0.413214823271E+03    0.39423E-05   -0.43597E-07  2292   0.111E-03    0.496E-04
RMM:  13    -0.413214819036E+03    0.42354E-05   -0.28432E-07  1689   0.870E-04    0.253E-04
RMM:  14    -0.413214816641E+03    0.23953E-05   -0.17047E-07  1332   0.736E-04    0.147E-04
RMM:  15    -0.413214812685E+03    0.39554E-05   -0.13734E-07  1288   0.707E-04    0.745E-05
RMM:  16    -0.413214809439E+03    0.32461E-05   -0.10512E-07  1268   0.671E-04    0.517E-05
RMM:  17    -0.413214806581E+03    0.28585E-05   -0.79345E-08  1210   0.633E-04    0.406E-05
RMM:  18    -0.413214804475E+03    0.21057E-05   -0.57733E-08  1088   0.590E-04    0.352E-05
RMM:  19    -0.413214803792E+03    0.68295E-06   -0.33908E-08   836   0.538E-04
   43 T=    71. E= -.41286755E+03 F= -.41321480E+03 E0= -.41319379E+03  EK= 0.34726E+00 SP= 0.00E+00 SK= 0.00E+00
       N       E                     dE             d eps       ncg     rms          rms(c)
RMM:   1    -0.413242873266E+03   -0.28069E-01   -0.13208E+01  4312   0.152E+00    0.948E-01
RMM:   2    -0.413217206722E+03    0.25667E-01   -0.20092E-01  4293   0.175E-01    0.693E-01
RMM:   3    -0.413222485781E+03   -0.52791E-02   -0.12129E-02  5102   0.911E-02    0.418E-01
RMM:   4    -0.413247340600E+03   -0.24855E-01   -0.48723E-02  5057   0.187E-01    0.749E-01
RMM:   5    -0.413215820430E+03    0.31520E-01   -0.13647E-02  4688   0.127E-01    0.511E-02
RMM:   6    -0.413215824429E+03   -0.39994E-05   -0.23076E-03  5680   0.457E-02    0.189E-02
RMM:   7    -0.413215833514E+03   -0.90852E-05   -0.27352E-04  5909   0.150E-02    0.148E-02
RMM:   8    -0.413215831031E+03    0.24838E-05   -0.43323E-05  4833   0.610E-03    0.902E-03
RMM:   9    -0.413215822723E+03    0.83078E-05   -0.10253E-05  3452   0.439E-03    0.437E-03
RMM:  10    -0.413215817966E+03    0.47566E-05   -0.26985E-06  2592   0.250E-03    0.254E-03
RMM:  11    -0.413215814109E+03    0.38577E-05   -0.13067E-06  2528   0.176E-03    0.113E-03
RMM:  12    -0.413215811433E+03    0.26756E-05   -0.53668E-07  2428   0.123E-03    0.589E-04
RMM:  13    -0.413215808038E+03    0.33953E-05   -0.36711E-07  1791   0.958E-04    0.338E-04
RMM:  14    -0.413215806232E+03    0.18054E-05   -0.20735E-07  1398   0.786E-04    0.187E-04
RMM:  15    -0.413215803867E+03    0.23649E-05   -0.15552E-07  1315   0.730E-04    0.101E-04
RMM:  16    -0.413215800951E+03    0.29163E-05   -0.12922E-07  1317   0.696E-04    0.563E-05
RMM:  17    -0.413215799522E+03    0.14291E-05   -0.81339E-08  1106   0.625E-04    0.460E-05
RMM:  18    -0.413215797474E+03    0.20479E-05   -0.69573E-08  1109   0.606E-04    0.302E-05
RMM:  19    -0.413215796470E+03    0.10043E-05   -0.43439E-08   906   0.563E-04    0.231E-05
RMM:  20    -0.413215796046E+03    0.42308E-06   -0.26531E-08   763   0.537E-04
   44 T=    71. E= -.41286723E+03 F= -.41321580E+03 E0= -.41319481E+03  EK= 0.34856E+00 SP= 0.00E+00 SK= 0.00E+00
       N       E                     dE             d eps       ncg     rms          rms(c)
RMM:   1    -0.413235286990E+03   -0.19491E-01   -0.13190E+01  4307   0.157E+00    0.978E-01
RMM:   2    -0.413217964226E+03    0.17323E-01   -0.18613E-01  4364   0.181E-01    0.684E-01
RMM:   3    -0.413231090380E+03   -0.13126E-01   -0.19129E-02  5139   0.119E-01    0.541E-01
RMM:   4    -0.413232517861E+03   -0.14275E-02   -0.37590E-02  5013   0.169E-01    0.536E-01
RMM:   5    -0.413217628403E+03    0.14889E-01   -0.57083E-03  4555   0.936E-02    0.432E-02
RMM:   6    -0.413217580234E+03    0.48169E-04   -0.99440E-04  5298   0.312E-02    0.172E-02
RMM:   7    -0.413217579469E+03    0.76438E-06   -0.11343E-04  5654   0.103E-02    0.128E-02
RMM:   8    -0.413217574792E+03    0.46776E-05   -0.31878E-05  4925   0.563E-03    0.795E-03
RMM:   9    -0.413217559516E+03    0.15275E-04   -0.91371E-06  3467   0.434E-03    0.391E-03
RMM:  10    -0.413217554276E+03    0.52403E-05   -0.14984E-06  2537   0.203E-03    0.186E-03
RMM:  11    -0.413217548122E+03    0.61546E-05   -0.92996E-07  2483   0.153E-03    0.967E-04
RMM:  12    -0.413217542860E+03    0.52620E-05   -0.40482E-07  2365   0.111E-03    0.498E-04
RMM:  13    -0.413217538174E+03    0.46856E-05   -0.21521E-07  1461   0.785E-04    0.235E-04
RMM:  14    -0.413217535017E+03    0.31567E-05   -0.12792E-07  1191   0.684E-04    0.148E-04
RMM:  15    -0.413217529027E+03    0.59906E-05   -0.12397E-07  1347   0.697E-04    0.949E-05
RMM:  16    -0.413217526096E+03    0.29312E-05   -0.72212E-08  1073   0.612E-04    0.856E-05
RMM:  17    -0.413217523165E+03    0.29305E-05   -0.53592E-08   999   0.583E-04    0.527E-05
RMM:  18    -0.413217520703E+03    0.24616E-05   -0.46284E-08   982   0.566E-04    0.279E-05
RMM:  19    -0.413217520020E+03    0.68301E-06   -0.23604E-08   743   0.520E-04
   45 T=    71. E= -.41286758E+03 F= -.41321752E+03 E0= -.41319655E+03  EK= 0.34994E+00 SP= 0.00E+00 SK= 0.00E+00
       N       E                     dE             d eps       ncg     rms          rms(c)
RMM:   1    -0.413244065555E+03   -0.26545E-01   -0.13198E+01  4307   0.168E+00    0.961E-01
RMM:   2    -0.413218054545E+03    0.26011E-01   -0.18532E-01  4376   0.190E-01    0.680E-01
RMM:   3    -0.413234282968E+03   -0.16228E-01   -0.21819E-02  5136   0.130E-01    0.590E-01
RMM:   4    -0.413229910534E+03    0.43724E-02   -0.36886E-02  4988   0.169E-01    0.492E-01
RMM:   5    -0.413217694149E+03    0.12216E-01   -0.48306E-03  4540   0.895E-02    0.438E-02
RMM:   6    -0.413217619620E+03    0.74528E-04   -0.70716E-04  5002   0.281E-02    0.171E-02
RMM:   7    -0.413217619068E+03    0.55187E-06   -0.96523E-05  5719   0.939E-03    0.107E-02
RMM:   8    -0.413217610352E+03    0.87167E-05   -0.21347E-05  4604   0.548E-03    0.621E-03
RMM:   9    -0.413217600913E+03    0.94389E-05   -0.63163E-06  3088   0.333E-03    0.369E-03
RMM:  10    -0.413217597827E+03    0.30854E-05   -0.18869E-06  2529   0.219E-03    0.165E-03
RMM:  11    -0.413217592963E+03    0.48647E-05   -0.11023E-06  2421   0.174E-03    0.108E-03
RMM:  12    -0.413217588147E+03    0.48162E-05   -0.54010E-07  2341   0.128E-03    0.661E-04
RMM:  13    -0.413217583743E+03    0.44034E-05   -0.24704E-07  1755   0.877E-04    0.322E-04
RMM:  14    -0.413217580704E+03    0.30395E-05   -0.13238E-07  1274   0.690E-04    0.185E-04
RMM:  15    -0.413217575006E+03    0.56975E-05   -0.13534E-07  1416   0.705E-04    0.175E-04
RMM:  16    -0.413217572217E+03    0.27894E-05   -0.66664E-08   956   0.580E-04    0.143E-04
RMM:  17    -0.413217569420E+03    0.27968E-05   -0.50136E-08   863   0.552E-04    0.471E-05
RMM:  18    -0.413217567072E+03    0.23478E-05   -0.41851E-08   878   0.553E-04    0.488E-05
RMM:  19    -0.413217565934E+03    0.11383E-05   -0.23562E-08   746   0.525E-04    0.248E-05
RMM:  20    -0.413217565575E+03    0.35892E-06   -0.10646E-08   551   0.494E-04
   46 T=    71. E= -.41286726E+03 F= -.41321757E+03 E0= -.41319662E+03  EK= 0.35031E+00 SP= 0.00E+00 SK= 0.00E+00
       N       E                     dE             d eps       ncg     rms          rms(c)
RMM:   1    -0.413262416868E+03   -0.44851E-01   -0.13435E+01  4309   0.182E+00    0.946E-01
RMM:   2    -0.413218175428E+03    0.44241E-01   -0.22397E-01  4396   0.215E-01    0.698E-01
RMM:   3    -0.413233610326E+03   -0.15435E-01   -0.21230E-02  5138   0.130E-01    0.612E-01
RMM:   4    -0.413231005744E+03    0.26046E-02   -0.39029E-02  5002   0.174E-01    0.536E-01
RMM:   5    -0.413217126421E+03    0.13879E-01   -0.62098E-03  4541   0.987E-02    0.493E-02
RMM:   6    -0.413217037647E+03    0.88774E-04   -0.87550E-04  5073   0.313E-02    0.190E-02
RMM:   7    -0.413217037122E+03    0.52457E-06   -0.12476E-04  5847   0.106E-02    0.129E-02
RMM:   8    -0.413217035013E+03    0.21091E-05   -0.36155E-05  5056   0.588E-03    0.895E-03
RMM:   9    -0.413217022754E+03    0.12259E-04   -0.16272E-05  4259   0.515E-03    0.520E-03
RMM:  10    -0.413217018938E+03    0.38165E-05   -0.23365E-06  2550   0.239E-03    0.242E-03
RMM:  11    -0.413217015597E+03    0.33410E-05   -0.20120E-06  2552   0.212E-03    0.140E-03
RMM:  12    -0.413217012665E+03    0.29312E-05   -0.59688E-07  2395   0.144E-03    0.803E-04
RMM:  13    -0.413217009948E+03    0.27171E-05   -0.27786E-07  2009   0.924E-04    0.399E-04
RMM:  14    -0.413217007289E+03    0.26593E-05   -0.16204E-07  1271   0.697E-04    0.213E-04
RMM:  15    -0.413217004669E+03    0.26203E-05   -0.12018E-07  1116   0.650E-04    0.103E-04
RMM:  16    -0.413217002226E+03    0.24423E-05   -0.10084E-07  1167   0.643E-04    0.944E-05
RMM:  17    -0.413217000692E+03    0.15347E-05   -0.60989E-08   975   0.584E-04    0.830E-05
RMM:  18    -0.413216999411E+03    0.12805E-05   -0.40393E-08   798   0.545E-04    0.354E-05
RMM:  19    -0.413216998959E+03    0.45206E-06   -0.22278E-08   657   0.519E-04
   47 T=    71. E= -.41286721E+03 F= -.41321700E+03 E0= -.41319607E+03  EK= 0.34979E+00 SP= 0.00E+00 SK= 0.00E+00
       N       E                     dE             d eps       ncg     rms          rms(c)
RMM:   1    -0.413267085937E+03   -0.50087E-01   -0.13486E+01  4306   0.196E+00    0.973E-01
RMM:   2    -0.413215968207E+03    0.51118E-01   -0.21242E-01  4498   0.212E-01    0.692E-01
RMM:   3    -0.413242563451E+03   -0.26595E-01   -0.31414E-02  5152   0.159E-01    0.740E-01
RMM:   4    -0.413223156234E+03    0.19407E-01   -0.38002E-02  4950   0.176E-01    0.420E-01
RMM:   5    -0.413215677530E+03    0.74787E-02   -0.47098E-03  4635   0.914E-02    0.596E-02
RMM:   6    -0.413215469755E+03    0.20777E-03   -0.45569E-04  4653   0.291E-02    0.232E-02
RMM:   7    -0.413215469654E+03    0.10095E-06   -0.11811E-04  5825   0.112E-02    0.154E-02
RMM:   8    -0.413215459951E+03    0.97029E-05   -0.23117E-05  4529   0.522E-03    0.103E-02
RMM:   9    -0.413215445197E+03    0.14754E-04   -0.10506E-05  3449   0.437E-03    0.499E-03
RMM:  10    -0.413215438400E+03    0.67965E-05   -0.27914E-06  2633   0.270E-03    0.239E-03
RMM:  11    -0.413215432516E+03    0.58841E-05   -0.20666E-06  2580   0.221E-03    0.154E-03
RMM:  12    -0.413215427259E+03    0.52576E-05   -0.70054E-07  2442   0.150E-03    0.754E-04
RMM:  13    -0.413215423176E+03    0.40824E-05   -0.32917E-07  2170   0.974E-04    0.414E-04
RMM:  14    -0.413215419028E+03    0.41479E-05   -0.19047E-07  1534   0.745E-04    0.215E-04
RMM:  15    -0.413215413770E+03    0.52586E-05   -0.15762E-07  1445   0.711E-04    0.129E-04
RMM:  16    -0.413215411142E+03    0.26278E-05   -0.87775E-08  1125   0.617E-04    0.972E-05
RMM:  17    -0.413215408251E+03    0.28915E-05   -0.70111E-08  1089   0.602E-04    0.471E-05
RMM:  18    -0.413215406378E+03    0.18726E-05   -0.48552E-08   985   0.572E-04    0.278E-05
RMM:  19    -0.413215405612E+03    0.76561E-06   -0.24758E-08   785   0.537E-04
   48 T=    71. E= -.41286723E+03 F= -.41321541E+03 E0= -.41319448E+03  EK= 0.34818E+00 SP= 0.00E+00 SK= 0.00E+00
       N       E                     dE             d eps       ncg     rms          rms(c)
RMM:   1    -0.413264775305E+03   -0.49369E-01   -0.13328E+01  4306   0.208E+00    0.966E-01
RMM:   2    -0.413211979167E+03    0.52796E-01   -0.20839E-01  4521   0.225E-01    0.681E-01
RMM:   3    -0.413245835042E+03   -0.33856E-01   -0.38119E-02  5166   0.175E-01    0.821E-01
RMM:   4    -0.413216768179E+03    0.29067E-01   -0.38568E-02  4924   0.180E-01    0.370E-01
RMM:   5    -0.413211997886E+03    0.47703E-02   -0.55614E-03  4975   0.958E-02    0.777E-02
RMM:   6    -0.413211626741E+03    0.37115E-03   -0.68144E-04  4703   0.355E-02    0.282E-02
RMM:   7    -0.413211622486E+03    0.42546E-05   -0.15955E-04  5729   0.135E-02    0.174E-02
RMM:   8    -0.413211611572E+03    0.10914E-04   -0.21426E-05  4330   0.516E-03    0.111E-02
RMM:   9    -0.413211595809E+03    0.15763E-04   -0.11667E-05  3593   0.448E-03    0.495E-03
RMM:  10    -0.413211586909E+03    0.88994E-05   -0.41228E-06  2849   0.309E-03    0.272E-03
RMM:  11    -0.413211579444E+03    0.74649E-05   -0.26450E-06  2684   0.247E-03    0.184E-03
RMM:  12    -0.413211575093E+03    0.43510E-05   -0.67960E-07  2451   0.155E-03    0.868E-04
RMM:  13    -0.413211570821E+03    0.42721E-05   -0.33730E-07  2262   0.101E-03    0.519E-04
RMM:  14    -0.413211565763E+03    0.50580E-05   -0.21961E-07  1700   0.800E-04    0.244E-04
RMM:  15    -0.413211560899E+03    0.48639E-05   -0.15950E-07  1433   0.720E-04    0.159E-04
RMM:  16    -0.413211558705E+03    0.21943E-05   -0.81767E-08  1111   0.628E-04    0.106E-04
[...]
RMM:   5    -0.413286434253E+03    0.13980E-01   -0.20603E-01  4754   0.581E-01    0.118E+00
RMM:   6    -0.413269680644E+03    0.16754E-01   -0.32056E-01  4848   0.682E-01    0.593E-01
RMM:   7    -0.413255051409E+03    0.14629E-01   -0.55457E-02  5436   0.300E-01    0.402E-01
RMM:   8    -0.413250532636E+03    0.45188E-02   -0.62301E-03  4971   0.111E-01    0.250E-01
RMM:   9    -0.413248391731E+03    0.21409E-02   -0.66295E-03  4684   0.104E-01    0.120E-01
RMM:  10    -0.413248237851E+03    0.15388E-03   -0.33278E-03  5646   0.662E-02    0.480E-02
RMM:  11    -0.413248234035E+03    0.38158E-05   -0.54901E-04  5731   0.292E-02    0.185E-02
RMM:  12    -0.413248247584E+03   -0.13549E-04   -0.11384E-04  5942   0.122E-02    0.130E-02
RMM:  13    -0.413248266144E+03   -0.18560E-04   -0.31977E-05  5112   0.689E-03    0.763E-03
RMM:  14    -0.413248294692E+03   -0.28548E-04   -0.89142E-06  3526   0.432E-03    0.521E-03
RMM:  15    -0.413248326920E+03   -0.32228E-04   -0.55663E-06  3082   0.391E-03    0.217E-03
RMM:  16    -0.413248361234E+03   -0.34314E-04   -0.49577E-06  2958   0.336E-03    0.112E-03
RMM:  17    -0.413248386754E+03   -0.25521E-04   -0.36628E-06  2821   0.247E-03    0.105E-03
RMM:  18    -0.413248416892E+03   -0.30138E-04   -0.46569E-06  2949   0.267E-03    0.781E-04
RMM:  19    -0.413248436942E+03   -0.20050E-04   -0.45234E-06  2859   0.233E-03    0.412E-04
RMM:  20    -0.413248444387E+03   -0.74453E-05   -0.12278E-06  2074   0.121E-03    0.282E-04
RMM:  21    -0.413248450397E+03   -0.60097E-05   -0.58485E-07  1866   0.967E-04    0.201E-04
RMM:  22    -0.413248453503E+03   -0.31056E-05   -0.24872E-07  1383   0.746E-04    0.109E-04
RMM:  23    -0.413248456279E+03   -0.27763E-05   -0.16866E-07  1441   0.705E-04    0.868E-05
RMM:  24    -0.413248458056E+03   -0.17768E-05   -0.10726E-07  1323   0.636E-04    0.663E-05
RMM:  25    -0.413248458571E+03   -0.51494E-06   -0.49729E-08  1012   0.550E-04
  140 T=   599. E= -.41030708E+03 F= -.41324846E+03 E0= -.41322386E+03  EK= 0.29414E+01 SP= 0.00E+00 SK= 0.00E+00
       N       E                     dE             d eps       ncg     rms          rms(c)
RMM:   1    -0.414211073027E+03   -0.96261E+00   -0.73272E+01  4276   0.154E+01    0.274E+00
RMM:   2    -0.413320422598E+03    0.89065E+00   -0.24794E+00  5292   0.215E+00    0.279E+00
RMM:   3    -0.413390817017E+03   -0.70394E-01   -0.66466E-01  5729   0.897E-01    0.293E+00
RMM:   4    -0.413178883710E+03    0.21193E+00   -0.22102E-01  5229   0.553E-01    0.190E+00
RMM:   5    -0.413177504591E+03    0.13791E-02   -0.18242E-01  4909   0.544E-01    0.105E+00
RMM:   6    -0.413170224239E+03    0.72804E-02   -0.23827E-01  4940   0.587E-01    0.590E-01
RMM:   7    -0.413151632399E+03    0.18592E-01   -0.44270E-02  4956   0.287E-01    0.287E-01
RMM:   8    -0.413150467171E+03    0.11652E-02   -0.10874E-02  5740   0.125E-01    0.157E-01
RMM:   9    -0.413149513933E+03    0.95324E-03   -0.30883E-03  4600   0.743E-02    0.591E-02
RMM:  10    -0.413149495966E+03    0.17966E-04   -0.13112E-03  5779   0.430E-02    0.348E-02
RMM:  11    -0.413149495701E+03    0.26484E-06   -0.19433E-04  5628   0.171E-02    0.208E-02
RMM:  12    -0.413149504068E+03   -0.83662E-05   -0.80201E-05  5301   0.108E-02    0.958E-03
RMM:  13    -0.413149514167E+03   -0.10100E-04   -0.24824E-05  4752   0.632E-03    0.546E-03
RMM:  14    -0.413149524817E+03   -0.10650E-04   -0.81074E-06  3453   0.361E-03    0.382E-03
RMM:  15    -0.413149542418E+03   -0.17601E-04   -0.38437E-06  2897   0.335E-03    0.151E-03
RMM:  16    -0.413149555284E+03   -0.12866E-04   -0.23111E-06  2682   0.222E-03    0.104E-03
RMM:  17    -0.413149563878E+03   -0.85940E-05   -0.12378E-06  2575   0.152E-03    0.657E-04
RMM:  18    -0.413149576790E+03   -0.12911E-04   -0.24467E-06  2731   0.194E-03    0.460E-04
RMM:  19    -0.413149585166E+03   -0.83765E-05   -0.21615E-06  2500   0.159E-03    0.319E-04
RMM:  20    -0.413149588545E+03   -0.33788E-05   -0.70320E-07  1853   0.984E-04    0.198E-04
RMM:  21    -0.413149592217E+03   -0.36718E-05   -0.60199E-07  1942   0.934E-04    0.138E-04
RMM:  22    -0.413149593931E+03   -0.17144E-05   -0.23195E-07  1339   0.694E-04    0.902E-05
RMM:  23    -0.413149595350E+03   -0.14185E-05   -0.13194E-07  1166   0.629E-04    0.493E-05
RMM:  24    -0.413149596278E+03   -0.92877E-06   -0.79234E-08  1077   0.598E-04
  141 T=   582. E= -.41029302E+03 F= -.41314960E+03 E0= -.41312498E+03  EK= 0.28566E+01 SP= 0.00E+00 SK= 0.00E+00
       N       E                     dE             d eps       ncg     rms          rms(c)
RMM:   1    -0.413929359930E+03   -0.77976E+00   -0.67865E+01  4294   0.148E+01    0.382E+00
RMM:   2    -0.413694165023E+03    0.23519E+00   -0.39732E+00  5289   0.258E+00    0.387E+00
RMM:   3    -0.413796529756E+03   -0.10236E+00   -0.15560E+00  5425   0.136E+00    0.405E+00
RMM:   4    -0.413123209849E+03    0.67332E+00   -0.71718E-01  5122   0.100E+00    0.186E+00
RMM:   5    -0.413104427076E+03    0.18783E-01   -0.15064E-01  4918   0.532E-01    0.109E+00
RMM:   6    -0.413128709503E+03   -0.24282E-01   -0.28530E-01  5180   0.606E-01    0.780E-01
RMM:   7    -0.413095767575E+03    0.32942E-01   -0.76188E-02  4974   0.354E-01    0.359E-01
RMM:   8    -0.413095559247E+03    0.20833E-03   -0.21224E-02  5861   0.164E-01    0.215E-01
RMM:   9    -0.413094334940E+03    0.12243E-02   -0.55523E-03  4656   0.970E-02    0.754E-02
RMM:  10    -0.413094245663E+03    0.89277E-04   -0.17115E-03  5753   0.498E-02    0.368E-02
RMM:  11    -0.413094234865E+03    0.10798E-04   -0.32894E-04  5862   0.215E-02    0.257E-02
RMM:  12    -0.413094235161E+03   -0.29584E-06   -0.93093E-05  4940   0.124E-02    0.139E-02
RMM:  13    -0.413094232149E+03    0.30117E-05   -0.27216E-05  4683   0.634E-03    0.657E-03
RMM:  14    -0.413094232069E+03    0.80461E-07   -0.14602E-05  4444   0.452E-03    0.298E-03
RMM:  15    -0.413094231099E+03    0.96967E-06   -0.25551E-06  2639   0.258E-03
  142 T=   572. E= -.41028597E+03 F= -.41309423E+03 E0= -.41307105E+03  EK= 0.28083E+01 SP= 0.00E+00 SK= 0.00E+00
       N       E                     dE             d eps       ncg     rms          rms(c)
RMM:   1    -0.413813989639E+03   -0.71976E+00   -0.57813E+01  4298   0.135E+01    0.375E+00
RMM:   2    -0.414314705476E+03   -0.50072E+00   -0.47554E+00  5358   0.267E+00    0.431E+00
RMM:   3    -0.413979561197E+03    0.33514E+00   -0.17937E+00  5363   0.146E+00    0.386E+00
RMM:   4    -0.413363877697E+03    0.61568E+00   -0.76747E-01  5159   0.104E+00    0.154E+00
RMM:   5    -0.413332945086E+03    0.30933E-01   -0.14491E-01  4771   0.513E-01    0.968E-01
RMM:   6    -0.413346298477E+03   -0.13353E-01   -0.23407E-01  5222   0.536E-01    0.681E-01
RMM:   7    -0.413328954830E+03    0.17344E-01   -0.66007E-02  5242   0.321E-01    0.389E-01
RMM:   8    -0.413327507966E+03    0.14469E-02   -0.13740E-02  5761   0.141E-01    0.248E-01
RMM:   9    -0.413325864957E+03    0.16430E-02   -0.93320E-03  4432   0.117E-01    0.678E-02
RMM:  10    -0.413325935548E+03   -0.70591E-04   -0.22550E-03  5759   0.561E-02    0.425E-02
RMM:  11    -0.413325900969E+03    0.34580E-04   -0.30800E-04  5320   0.221E-02    0.244E-02
RMM:  12    -0.413325920291E+03   -0.19322E-04   -0.13158E-04  4862   0.143E-02    0.150E-02
RMM:  13    -0.413325931073E+03   -0.10782E-04   -0.32536E-05  4539   0.718E-03    0.665E-03
RMM:  14    -0.413325936889E+03   -0.58161E-05   -0.16806E-05  4401   0.493E-03    0.261E-03
RMM:  15    -0.413325939246E+03   -0.23563E-05   -0.46922E-06  2941   0.304E-03    0.241E-03
RMM:  16    -0.413325939179E+03    0.66684E-07   -0.21799E-06  2661   0.221E-03
  143 T=   615. E= -.41030534E+03 F= -.41332594E+03 E0= -.41330473E+03  EK= 0.30206E+01 SP= 0.00E+00 SK= 0.00E+00
       N       E                     dE             d eps       ncg     rms          rms(c)
RMM:   1    -0.414617558715E+03   -0.12916E+01   -0.72850E+01  4313   0.147E+01    0.396E+00
RMM:   2    -0.414636564088E+03   -0.19005E-01   -0.52445E+00  5416   0.282E+00    0.481E+00
RMM:   3    -0.414041753960E+03    0.59481E+00   -0.16184E+00  5400   0.142E+00    0.390E+00
RMM:   4    -0.413637128594E+03    0.40463E+00   -0.59160E-01  5219   0.949E-01    0.202E+00
RMM:   5    -0.413598566261E+03    0.38562E-01   -0.25201E-01  4626   0.644E-01    0.116E+00
RMM:   6    -0.413607853750E+03   -0.92875E-02   -0.30120E-01  5288   0.608E-01    0.677E-01
RMM:   7    -0.413589184251E+03    0.18669E-01   -0.58849E-02  5393   0.311E-01    0.430E-01
RMM:   8    -0.413585672388E+03    0.35119E-02   -0.12100E-02  5524   0.137E-01    0.273E-01
RMM:   9    -0.413583348902E+03    0.23235E-02   -0.14423E-02  4526   0.138E-01    0.537E-02
RMM:  10    -0.413583593710E+03   -0.24481E-03   -0.27893E-03  5953   0.591E-02    0.447E-02
RMM:  11    -0.413583551588E+03    0.42122E-04   -0.31651E-04  4655   0.235E-02    0.222E-02
RMM:  12    -0.413583569248E+03   -0.17660E-04   -0.12678E-04  5428   0.132E-02    0.132E-02
RMM:  13    -0.413583581111E+03   -0.11863E-04   -0.37976E-05  4664   0.755E-03    0.454E-03
RMM:  14    -0.413583587424E+03   -0.63130E-05   -0.14625E-05  3987   0.427E-03    0.371E-03
RMM:  15    -0.413583588901E+03   -0.14774E-05   -0.35259E-06  2809   0.279E-03    0.176E-03
RMM:  16    -0.413583588917E+03   -0.15953E-07   -0.18626E-06  2627   0.187E-03
  144 T=   661. E= -.41033585E+03 F= -.41358359E+03 E0= -.41356309E+03  EK= 0.32477E+01 SP= 0.00E+00 SK= 0.00E+00
       N       E                     dE             d eps       ncg     rms          rms(c)
RMM:   1    -0.414480846041E+03   -0.89726E+00   -0.74975E+01  4305   0.151E+01    0.290E+00
RMM:   2    -0.413795278357E+03    0.68557E+00   -0.38897E+00  5423   0.244E+00    0.356E+00
RMM:   3    -0.413607566478E+03    0.18771E+00   -0.88513E-01  5614   0.104E+00    0.317E+00
RMM:   4    -0.413412985321E+03    0.19458E+00   -0.21761E-01  5153   0.583E-01    0.208E+00
RMM:   5    -0.413383772657E+03    0.29213E-01   -0.25973E-01  4713   0.628E-01    0.123E+00
RMM:   6    -0.413381676409E+03    0.20962E-02   -0.36821E-01  5147   0.687E-01    0.657E-01
RMM:   7    -0.413364430903E+03    0.17246E-01   -0.60185E-02  5520   0.316E-01    0.493E-01
RMM:   8    -0.413357710069E+03    0.67208E-02   -0.10990E-02  4890   0.139E-01    0.292E-01
RMM:   9    -0.413354884201E+03    0.28259E-02   -0.15974E-02  4716   0.145E-01    0.672E-02
RMM:  10    -0.413355146289E+03   -0.26209E-03   -0.29959E-03  6056   0.596E-02    0.380E-02
RMM:  11    -0.413355169656E+03   -0.23367E-04   -0.41129E-04  5509   0.245E-02    0.224E-02
RMM:  12    -0.413355178795E+03   -0.91395E-05   -0.93623E-05  5514   0.108E-02    0.948E-03
RMM:  13    -0.413355193306E+03   -0.14511E-04   -0.42698E-05  5499   0.736E-03    0.839E-03
RMM:  14    -0.413355195798E+03   -0.24914E-05   -0.84355E-06  3470   0.383E-03    0.439E-03
RMM:  15    -0.413355197997E+03   -0.21995E-05   -0.40961E-06  2967   0.276E-03    0.190E-03
RMM:  16    -0.413355199633E+03   -0.16361E-05   -0.18206E-06  2584   0.205E-03    0.866E-04
RMM:  17    -0.413355200876E+03   -0.12428E-05   -0.11884E-06  2495   0.167E-03    0.467E-04
RMM:  18    -0.413355201573E+03   -0.69618E-06   -0.71133E-07  2306   0.129E-03
  145 T=   628. E= -.41027179E+03 F= -.41335520E+03 E0= -.41333433E+03  EK= 0.30834E+01 SP= 0.00E+00 SK= 0.00E+00
       N       E                     dE             d eps       ncg     rms          rms(c)
RMM:   1    -0.414238675654E+03   -0.88347E+00   -0.71124E+01  4300   0.152E+01    0.210E+00
RMM:   2    -0.413465897344E+03    0.77278E+00   -0.26854E+00  5382   0.208E+00    0.255E+00
RMM:   3    -0.413381911210E+03    0.83986E-01   -0.53217E-01  5729   0.789E-01    0.235E+00
RMM:   4    -0.413284778439E+03    0.97133E-01   -0.10159E-01  5127   0.396E-01    0.169E+00
RMM:   5    -0.413264696957E+03    0.20081E-01   -0.19008E-01  4755   0.542E-01    0.103E+00
RMM:   6    -0.413256614671E+03    0.80823E-02   -0.28171E-01  4897   0.624E-01    0.569E-01
RMM:   7    -0.413247840872E+03    0.87738E-02   -0.47566E-02  5645   0.272E-01    0.475E-01
RMM:   8    -0.413240827015E+03    0.70139E-02   -0.77523E-03  4426   0.123E-01    0.269E-01
RMM:   9    -0.413238527342E+03    0.22997E-02   -0.11982E-02  4699   0.130E-01    0.757E-02
RMM:  10    -0.413238713317E+03   -0.18597E-03   -0.23660E-03  5928   0.535E-02    0.383E-02
RMM:  11    -0.413238757922E+03   -0.44605E-04   -0.44287E-04  5707   0.239E-02    0.210E-02
RMM:  12    -0.413238774586E+03   -0.16664E-04   -0.14147E-04  5725   0.137E-02    0.116E-02
RMM:  13    -0.413238785559E+03   -0.10973E-04   -0.34051E-05  5171   0.634E-03    0.108E-02
RMM:  14    -0.413238786465E+03   -0.90634E-06   -0.86165E-06  3466   0.403E-03
  146 T=   601. E= -.41028538E+03 F= -.41323879E+03 E0= -.41321686E+03  EK= 0.29534E+01 SP= 0.00E+00 SK= 0.00E+00
       N       E                     dE             d eps       ncg     rms          rms(c)
RMM:   1    -0.414071787304E+03   -0.83300E+00   -0.69913E+01  4302   0.154E+01    0.260E+00
RMM:   2    -0.413373708899E+03    0.69808E+00   -0.23548E+00  5280   0.204E+00    0.284E+00
RMM:   3    -0.413305255714E+03    0.68453E-01   -0.54195E-01  5634   0.817E-01    0.266E+00
RMM:   4    -0.413164369191E+03    0.14089E+00   -0.17041E-01  5152   0.490E-01    0.175E+00
RMM:   5    -0.413165310631E+03   -0.94144E-03   -0.24663E-01  4882   0.620E-01    0.107E+00
RMM:   6    -0.413148256679E+03    0.17054E-01   -0.23230E-01  4937   0.572E-01    0.577E-01
RMM:   7    -0.413137832215E+03    0.10424E-01   -0.40358E-02  5423   0.261E-01    0.391E-01
RMM:   8    -0.413133913381E+03    0.39188E-02   -0.70756E-03  4978   0.111E-01    0.222E-01
RMM:   9    -0.413132484228E+03    0.14292E-02   -0.67419E-03  4510   0.101E-01    0.687E-02
RMM:  10    -0.413132625115E+03   -0.14089E-03   -0.19154E-03  5928   0.491E-02    0.376E-02
RMM:  11    -0.413132657176E+03   -0.32060E-04   -0.28896E-04  5426   0.207E-02    0.217E-02
RMM:  12    -0.413132682171E+03   -0.24996E-04   -0.87196E-05  5260   0.109E-02    0.885E-03
RMM:  13    -0.413132696540E+03   -0.14369E-04   -0.28005E-05  5030   0.592E-03    0.791E-03
RMM:  14    -0.413132701819E+03   -0.52794E-05   -0.56072E-06  3148   0.337E-03    0.459E-03
RMM:  15    -0.413132706978E+03   -0.51585E-05   -0.46407E-06  3043   0.302E-03    0.170E-03
RMM:  16    -0.413132709668E+03   -0.26900E-05   -0.21335E-06  2670   0.211E-03    0.739E-04
RMM:  17    -0.413132711747E+03   -0.20786E-05   -0.11561E-06  2503   0.160E-03    0.549E-04
RMM:  18    -0.413132713198E+03   -0.14516E-05   -0.81292E-07  2297   0.129E-03    0.394E-04
RMM:  19    -0.413132713800E+03   -0.60135E-06   -0.62471E-07  2129   0.108E-03
  147 T=   579. E= -.41028943E+03 F= -.41313271E+03 E0= -.41311023E+03  EK= 0.28433E+01 SP= 0.00E+00 SK= 0.00E+00
       N       E                     dE             d eps       ncg     rms          rms(c)
RMM:   1    -0.413756061484E+03   -0.62335E+00   -0.63154E+01  4301   0.149E+01    0.243E+00
RMM:   2    -0.413497537581E+03    0.25852E+00   -0.26972E+00  5362   0.210E+00    0.302E+00
RMM:   3    -0.413273321331E+03    0.22422E+00   -0.75199E-01  5471   0.968E-01    0.251E+00
RMM:   4    -0.413073045736E+03    0.20028E+00   -0.28669E-01  5254   0.627E-01    0.144E+00
RMM:   5    -0.413057917102E+03    0.15129E-01   -0.88826E-02  4816   0.392E-01    0.957E-01
RMM:   6    -0.413064025093E+03   -0.61080E-02   -0.20334E-01  5004   0.522E-01    0.607E-01
RMM:   7    -0.413050330563E+03    0.13695E-01   -0.53192E-02  5180   0.293E-01    0.366E-01
RMM:   8    -0.413048253038E+03    0.20775E-02   -0.12842E-02  5737   0.133E-01    0.214E-01
RMM:   9    -0.413046879313E+03    0.13737E-02   -0.65435E-03  4501   0.996E-02    0.655E-02
RMM:  10    -0.413046919512E+03   -0.40199E-04   -0.16050E-03  5767   0.475E-02    0.377E-02
RMM:  11    -0.413046932859E+03   -0.13347E-04   -0.23732E-04  5604   0.188E-02    0.247E-02
RMM:  12    -0.413046966595E+03   -0.33735E-04   -0.98290E-05  5034   0.127E-02    0.135E-02
RMM:  13    -0.413046978684E+03   -0.12089E-04   -0.29581E-05  4668   0.720E-03    0.549E-03
RMM:  14    -0.413046987235E+03   -0.85512E-05   -0.15011E-05  4424   0.458E-03    0.365E-03
RMM:  15    -0.413046992122E+03   -0.48869E-05   -0.33474E-06  2789   0.282E-03    0.195E-03
RMM:  16    -0.413046994973E+03   -0.28505E-05   -0.21541E-06  2670   0.205E-03    0.990E-04
RMM:  17    -0.413046995941E+03   -0.96851E-06   -0.11780E-06  2484   0.145E-03
  148 T=   568. E= -.41025633E+03 F= -.41304700E+03 E0= -.41302603E+03  EK= 0.27907E+01 SP= 0.00E+00 SK= 0.00E+00
       N       E                     dE             d eps       ncg     rms          rms(c)
RMM:   1    -0.413975212987E+03   -0.92822E+00   -0.62128E+01  4306   0.144E+01    0.305E+00
RMM:   2    -0.414166038557E+03   -0.19083E+00   -0.38312E+00  5397   0.240E+00    0.396E+00
RMM:   3    -0.413670290404E+03    0.49575E+00   -0.12679E+00  5314   0.125E+00    0.299E+00
RMM:   4    -0.413324759250E+03    0.34553E+00   -0.60857E-01  5251   0.902E-01    0.134E+00
RMM:   5    -0.413300986078E+03    0.23773E-01   -0.10598E-01  4807   0.438E-01    0.857E-01
RMM:   6    -0.413312104844E+03   -0.11119E-01   -0.19275E-01  5194   0.490E-01    0.650E-01
RMM:   7    -0.413297719512E+03    0.14385E-01   -0.53627E-02  5120   0.295E-01    0.362E-01
RMM:   8    -0.413296222202E+03    0.14973E-02   -0.17527E-02  5733   0.153E-01    0.198E-01
RMM:   9    -0.413295285294E+03    0.93691E-03   -0.70620E-03  4843   0.979E-02    0.930E-02
RMM:  10    -0.413295102175E+03    0.18312E-03   -0.15030E-03  5673   0.489E-02    0.397E-02
RMM:  11    -0.413295104369E+03   -0.21939E-05   -0.34537E-04  5802   0.212E-02    0.242E-02
RMM:  12    -0.413295134790E+03   -0.30422E-04   -0.97988E-05  4689   0.129E-02    0.163E-02
RMM:  13    -0.413295144719E+03   -0.99288E-05   -0.32964E-05  4741   0.776E-03    0.601E-03
RMM:  14    -0.413295153914E+03   -0.91951E-05   -0.23531E-05  4993   0.541E-03    0.352E-03
RMM:  15    -0.413295157326E+03   -0.34115E-05   -0.31684E-06  2757   0.261E-03    0.243E-03
RMM:  16    -0.413295158969E+03   -0.16429E-05   -0.19908E-06  2662   0.195E-03    0.111E-03
RMM:  17    -0.413295159363E+03   -0.39420E-06   -0.13219E-06  2462   0.150E-03
  149 T=   609. E= -.41030559E+03 F= -.41329516E+03 E0= -.41327536E+03  EK= 0.29896E+01 SP= 0.00E+00 SK= 0.00E+00
       N       E                     dE             d eps       ncg     rms          rms(c)
RMM:   1    -0.414143838698E+03   -0.84868E+00   -0.65093E+01  4309   0.143E+01    0.308E+00
RMM:   2    -0.414284254752E+03   -0.14042E+00   -0.41635E+00  5380   0.249E+00    0.413E+00
RMM:   3    -0.413766689288E+03    0.51757E+00   -0.12565E+00  5319   0.124E+00    0.310E+00
RMM:   4    -0.413447026379E+03    0.31966E+00   -0.53575E-01  5265   0.862E-01    0.149E+00
RMM:   5    -0.413420750221E+03    0.26276E-01   -0.11914E-01  4702   0.458E-01    0.985E-01
RMM:   6    -0.413430552490E+03   -0.98023E-02   -0.22601E-01  5156   0.525E-01    0.642E-01
RMM:   7    -0.413415479803E+03    0.15073E-01   -0.59306E-02  5297   0.306E-01    0.364E-01
RMM:   8    -0.413413126495E+03    0.23533E-02   -0.16738E-02  5668   0.150E-01    0.207E-01
RMM:   9    -0.413411960693E+03    0.11658E-02   -0.75853E-03  4808   0.100E-01    0.825E-02
RMM:  10    -0.413411859320E+03    0.10137E-03   -0.16244E-03  5711   0.502E-02    0.367E-02
RMM:  11    -0.413411878579E+03   -0.19259E-04   -0.33366E-04  5710   0.214E-02    0.275E-02
RMM:  12    -0.413411900465E+03   -0.21886E-04   -0.93408E-05  4712   0.131E-02    0.143E-02
RMM:  13    -0.413411907460E+03   -0.69954E-05   -0.34816E-05  4697   0.724E-03    0.591E-03
RMM:  14    -0.413411913638E+03   -0.61778E-05   -0.17411E-05  4672   0.491E-03    0.329E-03
RMM:  15    -0.413411916216E+03   -0.25785E-05   -0.27492E-06  2706   0.258E-03    0.222E-03
RMM:  16    -0.413411917139E+03   -0.92270E-06   -0.17209E-06  2625   0.190E-03
  150 T=   632. E= -.41030657E+03 F= -.41341192E+03 E0= -.41339179E+03  EK= 0.31053E+01 SP= 0.00E+00 SK= 0.00E+00
