       N       E                     dE             d eps       ncg     rms          rms(c)
RMM:   1     0.220185057922E+04    0.22019E+04   -0.52442E+04  2132   0.654E+02
RMM:   2     0.705822090730E+03   -0.14960E+04   -0.16266E+04  2132   0.177E+02
RMM:   3     0.138052641940E+03   -0.56777E+03   -0.65731E+03  2132   0.117E+02
RMM:   4    -0.159483680558E+03   -0.29754E+03   -0.27855E+03  2132   0.936E+01
RMM:   5    -0.287500466691E+03   -0.12802E+03   -0.11450E+03  2132   0.595E+01
RMM:   6    -0.349953359923E+03   -0.62453E+02   -0.55178E+02  2132   0.423E+01
RMM:   7    -0.382819334027E+03   -0.32866E+02   -0.30417E+02  2132   0.293E+01
RMM:   8    -0.404237273310E+03   -0.21418E+02   -0.18390E+02  2132   0.233E+01
RMM:   9    -0.435989629428E+03   -0.31752E+02   -0.30635E+02  6103   0.173E+01
RMM:  10    -0.441308395081E+03   -0.53188E+01   -0.63209E+01  6393   0.540E+00
RMM:  11    -0.442517287480E+03   -0.12089E+01   -0.11224E+01  6210   0.173E+00
RMM:  12    -0.442891659108E+03   -0.37437E+00   -0.27136E+00  6362   0.601E-01    0.134E+02
RMM:  13    -0.425557349729E+03    0.17334E+02   -0.80967E+01  4672   0.119E+01    0.712E+01
RMM:  14    -0.498779175872E+03   -0.73222E+02   -0.53595E+02  5419   0.232E+01    0.306E+01
RMM:  15    -0.416900711027E+03    0.81878E+02   -0.20118E+02  5114   0.163E+01    0.768E+00
RMM:  16    -0.414024122289E+03    0.28766E+01   -0.39756E+01  6100   0.614E+00    0.431E+00
RMM:  17    -0.413207627705E+03    0.81649E+00   -0.26055E+00  5408   0.191E+00    0.243E+00
RMM:  18    -0.413177091575E+03    0.30536E-01   -0.75188E-01  5999   0.886E-01    0.170E+00
RMM:  19    -0.413173351589E+03    0.37400E-02   -0.25483E-01  5666   0.548E-01    0.916E-01
RMM:  20    -0.413194944499E+03   -0.21593E-01   -0.33299E-01  5569   0.594E-01    0.677E-01
RMM:  21    -0.413170895719E+03    0.24049E-01   -0.37938E-02  4989   0.253E-01    0.322E-01
RMM:  22    -0.413166366784E+03    0.45289E-02   -0.27942E-02  5814   0.163E-01    0.139E-01
RMM:  23    -0.413165386130E+03    0.98065E-03   -0.61250E-03  6038   0.692E-02    0.859E-02
RMM:  24    -0.413163969737E+03    0.14164E-02   -0.18343E-03  5315   0.432E-02    0.550E-02
RMM:  25    -0.413163079679E+03    0.89006E-03   -0.91691E-04  4954   0.300E-02    0.423E-02
RMM:  26    -0.413163077612E+03    0.20663E-05   -0.11636E-03  5773   0.352E-02    0.349E-02
RMM:  27    -0.413163465303E+03   -0.38769E-03   -0.21536E-04  4557   0.210E-02    0.201E-02
RMM:  28    -0.413163880602E+03   -0.41530E-03   -0.16005E-04  5087   0.180E-02    0.961E-03
RMM:  29    -0.413164260187E+03   -0.37959E-03   -0.11558E-04  4676   0.161E-02    0.486E-03
RMM:  30    -0.413164503304E+03   -0.24312E-03   -0.86865E-05  4408   0.113E-02    0.492E-03
RMM:  31    -0.413164626746E+03   -0.12344E-03   -0.56177E-05  3229   0.725E-03    0.375E-03
RMM:  32    -0.413164649417E+03   -0.22671E-04   -0.22519E-05  2999   0.332E-03    0.217E-03
RMM:  33    -0.413164656760E+03   -0.73429E-05   -0.89103E-06  2817   0.230E-03    0.705E-04
RMM:  34    -0.413164656563E+03    0.19689E-06   -0.47433E-06  2622   0.164E-03
    1 T=    61. E= -.41286687E+03 F= -.41316466E+03 E0= -.41314216E+03  EK= 0.29779E+00 SP= 0.00E+00 SK= 0.00E+00
       N       E                     dE             d eps       ncg     rms          rms(c)
RMM:   1    -0.413175969400E+03   -0.11313E-01   -0.57801E+00  3992   0.465E-01    0.919E-01
RMM:   2    -0.413172029831E+03    0.39396E-02   -0.76280E-02  4004   0.718E-02    0.666E-01
RMM:   3    -0.413168916844E+03    0.31130E-02   -0.60062E-02  5102   0.835E-02    0.359E-01
RMM:   4    -0.413182401560E+03   -0.13485E-01   -0.26105E-02  5153   0.138E-01    0.577E-01
RMM:   5    -0.413164279619E+03    0.18122E-01   -0.10251E-02  4731   0.975E-02    0.432E-02
RMM:   6    -0.413164373171E+03   -0.93553E-04   -0.14813E-03  5640   0.375E-02    0.266E-02
RMM:   7    -0.413164390863E+03   -0.17692E-04   -0.24888E-04  5723   0.143E-02    0.177E-02
RMM:   8    -0.413164394493E+03   -0.36300E-05   -0.34379E-05  4683   0.655E-03    0.554E-03
RMM:   9    -0.413164398596E+03   -0.41030E-05   -0.64946E-06  3015   0.277E-03    0.373E-03
RMM:  10    -0.413164404275E+03   -0.56790E-05   -0.15429E-06  2536   0.174E-03    0.235E-03
RMM:  11    -0.413164408591E+03   -0.43160E-05   -0.96892E-07  2383   0.129E-03    0.104E-03
RMM:  12    -0.413164413949E+03   -0.53580E-05   -0.86067E-07  2395   0.118E-03    0.536E-04
RMM:  13    -0.413164416523E+03   -0.25741E-05   -0.46187E-07  1830   0.882E-04    0.333E-04
RMM:  14    -0.413164417557E+03   -0.10345E-05   -0.30657E-07  1363   0.728E-04    0.152E-04
RMM:  15    -0.413164419831E+03   -0.22731E-05   -0.40890E-07  1665   0.808E-04    0.263E-04
RMM:  16    -0.413164421126E+03   -0.12956E-05   -0.33512E-07  1515   0.727E-04    0.203E-04
RMM:  17    -0.413164421256E+03   -0.13026E-06   -0.16104E-07  1042   0.578E-04
    2 T=    61. E= -.41286665E+03 F= -.41316442E+03 E0= -.41314192E+03  EK= 0.29777E+00 SP= 0.00E+00 SK= 0.00E+00
       N       E                     dE             d eps       ncg     rms          rms(c)
RMM:   1    -0.413177100645E+03   -0.12680E-01   -0.57219E+00  4189   0.462E-01    0.936E-01
RMM:   2    -0.413172217222E+03    0.48834E-02   -0.76701E-02  4100   0.725E-02    0.666E-01
RMM:   3    -0.413170329509E+03    0.18877E-02   -0.56682E-02  5127   0.872E-02    0.355E-01
RMM:   4    -0.413181716306E+03   -0.11387E-01   -0.26276E-02  5110   0.140E-01    0.555E-01
RMM:   5    -0.413164848891E+03    0.16867E-01   -0.88261E-03  4679   0.925E-02    0.418E-02
RMM:   6    -0.413164927171E+03   -0.78280E-04   -0.13246E-03  5589   0.353E-02    0.282E-02
RMM:   7    -0.413164939632E+03   -0.12461E-04   -0.23480E-04  5528   0.148E-02    0.194E-02
RMM:   8    -0.413164936493E+03    0.31391E-05   -0.35242E-05  4749   0.716E-03    0.635E-03
RMM:   9    -0.413164935940E+03    0.55273E-06   -0.67531E-06  3022   0.297E-03
    3 T=    61. E= -.41286688E+03 F= -.41316494E+03 E0= -.41314244E+03  EK= 0.29805E+00 SP= 0.00E+00 SK= 0.00E+00
       N       E                     dE             d eps       ncg     rms          rms(c)
RMM:   1    -0.413176315188E+03   -0.11379E-01   -0.56888E+00  4217   0.469E-01    0.921E-01
RMM:   2    -0.413171874658E+03    0.44405E-02   -0.76054E-02  4196   0.701E-02    0.659E-01
RMM:   3    -0.413175313224E+03   -0.34386E-02   -0.60104E-02  5190   0.108E-01    0.469E-01
RMM:   4    -0.413175357797E+03   -0.44573E-04   -0.25625E-02  5052   0.142E-01    0.460E-01
RMM:   5    -0.413164690315E+03    0.10667E-01   -0.64714E-03  4539   0.755E-02    0.407E-02
RMM:   6    -0.413164699535E+03   -0.92196E-05   -0.78436E-04  5310   0.267E-02    0.266E-02
RMM:   7    -0.413164705010E+03   -0.54752E-05   -0.15397E-04  5290   0.121E-02    0.166E-02
RMM:   8    -0.413164702299E+03    0.27107E-05   -0.24726E-05  4379   0.598E-03    0.460E-03
RMM:   9    -0.413164703187E+03   -0.88714E-06   -0.32883E-06  2661   0.226E-03
    4 T=    61. E= -.41286661E+03 F= -.41316470E+03 E0= -.41314222E+03  EK= 0.29810E+00 SP= 0.00E+00 SK= 0.00E+00
       N       E                     dE             d eps       ncg     rms          rms(c)
RMM:   1    -0.413176241231E+03   -0.11539E-01   -0.57803E+00  4236   0.478E-01    0.917E-01
RMM:   2    -0.413172221492E+03    0.40197E-02   -0.76287E-02  4105   0.677E-02    0.665E-01
RMM:   3    -0.413173041811E+03   -0.82032E-03   -0.61930E-02  5163   0.971E-02    0.438E-01
RMM:   4    -0.413177951884E+03   -0.49101E-02   -0.25363E-02  5082   0.140E-01    0.510E-01
RMM:   5    -0.413164757904E+03    0.13194E-01   -0.81658E-03  4599   0.839E-02    0.406E-02
RMM:   6    -0.413164817030E+03   -0.59126E-04   -0.10361E-03  5471   0.304E-02    0.261E-02
RMM:   7    -0.413164845643E+03   -0.28613E-04   -0.18550E-04  5410   0.132E-02    0.169E-02
RMM:   8    -0.413164850553E+03   -0.49098E-05   -0.26825E-05  4459   0.612E-03    0.491E-03
RMM:   9    -0.413164854235E+03   -0.36816E-05   -0.39592E-06  2781   0.243E-03    0.330E-03
RMM:  10    -0.413164859311E+03   -0.50765E-05   -0.10825E-06  2516   0.157E-03    0.198E-03
RMM:  11    -0.413164862911E+03   -0.35998E-05   -0.69161E-07  2236   0.115E-03    0.897E-04
RMM:  12    -0.413164867513E+03   -0.46022E-05   -0.79027E-07  2323   0.113E-03    0.484E-04
RMM:  13    -0.413164869826E+03   -0.23127E-05   -0.45312E-07  1750   0.872E-04    0.323E-04
RMM:  14    -0.413164870634E+03   -0.80853E-06   -0.29765E-07  1425   0.762E-04
    5 T=    61. E= -.41286666E+03 F= -.41316487E+03 E0= -.41314239E+03  EK= 0.29822E+00 SP= 0.00E+00 SK= 0.00E+00
       N       E                     dE             d eps       ncg     rms          rms(c)
RMM:   1    -0.413177379300E+03   -0.12509E-01   -0.57393E+00  4246   0.476E-01    0.933E-01
RMM:   2    -0.413172569850E+03    0.48095E-02   -0.76497E-02  4110   0.688E-02    0.666E-01
RMM:   3    -0.413171351279E+03    0.12186E-02   -0.57737E-02  5155   0.874E-02    0.377E-01
RMM:   4    -0.413181008383E+03   -0.96571E-02   -0.26049E-02  5090   0.140E-01    0.541E-01
RMM:   5    -0.413165255266E+03    0.15753E-01   -0.85363E-03  4662   0.897E-02    0.414E-02
RMM:   6    -0.413165321271E+03   -0.66006E-04   -0.12271E-03  5546   0.338E-02    0.277E-02
RMM:   7    -0.413165322316E+03   -0.10442E-05   -0.21795E-04  5496   0.142E-02    0.189E-02
RMM:   8    -0.413165321180E+03    0.11360E-05   -0.32996E-05  4700   0.679E-03    0.606E-03
RMM:   9    -0.413165321505E+03   -0.32549E-06   -0.55784E-06  2922   0.282E-03
    6 T=    61. E= -.41286696E+03 F= -.41316532E+03 E0= -.41314286E+03  EK= 0.29836E+00 SP= 0.00E+00 SK= 0.00E+00
       N       E                     dE             d eps       ncg     rms          rms(c)
RMM:   1    -0.413176970149E+03   -0.11649E-01   -0.56968E+00  4268   0.483E-01    0.927E-01
RMM:   2    -0.413172317304E+03    0.46528E-02   -0.76256E-02  4214   0.697E-02    0.661E-01
RMM:   3    -0.413175118752E+03   -0.28014E-02   -0.59036E-02  5163   0.106E-01    0.453E-01
RMM:   4    -0.413176360389E+03   -0.12416E-02   -0.25701E-02  5049   0.141E-01    0.467E-01
RMM:   5    -0.413165143433E+03    0.11217E-01   -0.64451E-03  4554   0.773E-02    0.410E-02
RMM:   6    -0.413165156423E+03   -0.12990E-04   -0.84886E-04  5349   0.277E-02    0.270E-02
RMM:   7    -0.413165167328E+03   -0.10905E-04   -0.16127E-04  5316   0.127E-02    0.171E-02
RMM:   8    -0.413165167495E+03   -0.16717E-06   -0.26250E-05  4413   0.621E-03    0.478E-03
RMM:   9    -0.413165167192E+03    0.30329E-06   -0.35829E-06  2676   0.234E-03
    7 T=    61. E= -.41286689E+03 F= -.41316517E+03 E0= -.41314272E+03  EK= 0.29828E+00 SP= 0.00E+00 SK= 0.00E+00
       N       E                     dE             d eps       ncg     rms          rms(c)
RMM:   1    -0.413177114016E+03   -0.11947E-01   -0.57628E+00  4269   0.491E-01    0.914E-01
RMM:   2    -0.413173193232E+03    0.39208E-02   -0.76145E-02  4181   0.708E-02    0.663E-01
RMM:   3    -0.413174134761E+03   -0.94153E-03   -0.61555E-02  5125   0.101E-01    0.439E-01
RMM:   4    -0.413178608598E+03   -0.44738E-02   -0.25364E-02  5060   0.139E-01    0.506E-01
RMM:   5    -0.413165654500E+03    0.12954E-01   -0.80132E-03  4596   0.826E-02    0.404E-02
RMM:   6    -0.413165702831E+03   -0.48331E-04   -0.10233E-03  5460   0.301E-02    0.262E-02
RMM:   7    -0.413165714727E+03   -0.11896E-04   -0.18353E-04  5409   0.129E-02    0.170E-02
RMM:   8    -0.413165717909E+03   -0.31813E-05   -0.26108E-05  4433   0.601E-03    0.492E-03
RMM:   9    -0.413165720249E+03   -0.23407E-05   -0.37032E-06  2736   0.240E-03    0.324E-03
RMM:  10    -0.413165723713E+03   -0.34639E-05   -0.10742E-06  2500   0.156E-03    0.194E-03
RMM:  11    -0.413165725931E+03   -0.22178E-05   -0.65933E-07  2206   0.114E-03    0.881E-04
RMM:  12    -0.413165728572E+03   -0.26410E-05   -0.73791E-07  2291   0.112E-03    0.493E-04
RMM:  13    -0.413165729592E+03   -0.10202E-05   -0.44859E-07  1750   0.878E-04    0.322E-04
RMM:  14    -0.413165729387E+03    0.20530E-06   -0.25035E-07  1369   0.743E-04
    8 T=    61. E= -.41286719E+03 F= -.41316573E+03 E0= -.41314330E+03  EK= 0.29854E+00 SP= 0.00E+00 SK= 0.00E+00
       N       E                     dE             d eps       ncg     rms          rms(c)
RMM:   1    -0.413177775161E+03   -0.12046E-01   -0.57615E+00  4283   0.491E-01    0.928E-01
RMM:   2    -0.413173384229E+03    0.43909E-02   -0.76384E-02  4191   0.724E-02    0.667E-01
RMM:   3    -0.413172054636E+03    0.13296E-02   -0.58805E-02  5086   0.926E-02    0.385E-01
RMM:   4    -0.413181549795E+03   -0.94952E-02   -0.25764E-02  5068   0.139E-01    0.543E-01
RMM:   5    -0.413165858531E+03    0.15691E-01   -0.87495E-03  4655   0.896E-02    0.408E-02
RMM:   6    -0.413165924783E+03   -0.66252E-04   -0.12309E-03  5550   0.336E-02    0.275E-02
RMM:   7    -0.413165922536E+03    0.22465E-05   -0.21767E-04  5480   0.142E-02    0.186E-02
RMM:   8    -0.413165918349E+03    0.41875E-05   -0.31894E-05  4628   0.695E-03    0.585E-03
RMM:   9    -0.413165919181E+03   -0.83203E-06   -0.57070E-06  2904   0.283E-03
    9 T=    61. E= -.41286711E+03 F= -.41316592E+03 E0= -.41314351E+03  EK= 0.29881E+00 SP= 0.00E+00 SK= 0.00E+00
       N       E                     dE             d eps       ncg     rms          rms(c)
RMM:   1    -0.413177979447E+03   -0.12061E-01   -0.57194E+00  4293   0.495E-01    0.933E-01
RMM:   2    -0.413173106400E+03    0.48730E-02   -0.76811E-02  4261   0.729E-02    0.663E-01
RMM:   3    -0.413176121900E+03   -0.30155E-02   -0.58989E-02  5136   0.109E-01    0.454E-01
RMM:   4    -0.413177145829E+03   -0.10239E-02   -0.25888E-02  5037   0.142E-01    0.465E-01
RMM:   5    -0.413165950743E+03    0.11195E-01   -0.62971E-03  4551   0.767E-02    0.411E-02
RMM:   6    -0.413165958847E+03   -0.81043E-05   -0.84299E-04  5363   0.275E-02    0.272E-02
RMM:   7    -0.413165949971E+03    0.88765E-05   -0.16351E-04  5285   0.131E-02    0.172E-02
RMM:   8    -0.413165951338E+03   -0.13675E-05   -0.26210E-05  4392   0.646E-03    0.482E-03
RMM:   9    -0.413165950229E+03    0.11096E-05   -0.38584E-06  2708   0.236E-03    0.290E-03
RMM:  10    -0.413165948511E+03    0.17182E-05   -0.10683E-06  2489   0.153E-03    0.171E-03
RMM:  11    -0.413165946879E+03    0.16319E-05   -0.61513E-07  2076   0.110E-03    0.788E-04
RMM:  12    -0.413165943936E+03    0.29432E-05   -0.64515E-07  2301   0.109E-03    0.475E-04
RMM:  13    -0.413165941011E+03    0.29248E-05   -0.36286E-07  1623   0.841E-04    0.317E-04
RMM:  14    -0.413165938555E+03    0.24562E-05   -0.23704E-07  1442   0.753E-04    0.200E-04
RMM:  15    -0.413165935526E+03    0.30290E-05   -0.24864E-07  1599   0.743E-04    0.266E-04
RMM:  16    -0.413165930671E+03    0.48548E-05   -0.33137E-07  1564   0.764E-04    0.133E-04
RMM:  17    -0.413165929866E+03    0.80474E-06   -0.80205E-08   895   0.538E-04
   10 T=    61. E= -.41286682E+03 F= -.41316593E+03 E0= -.41314354E+03  EK= 0.29911E+00 SP= 0.00E+00 SK= 0.00E+00
       N       E                     dE             d eps       ncg     rms          rms(c)
RMM:   1    -0.413178110019E+03   -0.12179E-01   -0.57575E+00  4291   0.503E-01    0.915E-01
RMM:   2    -0.413174203018E+03    0.39070E-02   -0.76199E-02  4227   0.741E-02    0.662E-01
RMM:   3    -0.413172634378E+03    0.15686E-02   -0.59500E-02  5102   0.902E-02    0.388E-01
RMM:   4    -0.413182585537E+03   -0.99512E-02   -0.25748E-02  5070   0.139E-01    0.549E-01
RMM:   5    -0.413166602469E+03    0.15983E-01   -0.91024E-03  4653   0.900E-02    0.405E-02
RMM:   6    -0.413166689907E+03   -0.87438E-04   -0.12743E-03  5565   0.338E-02    0.274E-02
RMM:   7    -0.413166696709E+03   -0.68019E-05   -0.22253E-04  5435   0.145E-02    0.186E-02
RMM:   8    -0.413166697721E+03   -0.10121E-05   -0.32238E-05  4628   0.690E-03    0.594E-03
RMM:   9    -0.413166699340E+03   -0.16192E-05   -0.59709E-06  2939   0.286E-03    0.364E-03
RMM:  10    -0.413166702264E+03   -0.29238E-05   -0.11129E-06  2500   0.169E-03    0.227E-03
RMM:  11    -0.413166704134E+03   -0.18698E-05   -0.65561E-07  2310   0.121E-03    0.108E-03
RMM:  12    -0.413166706083E+03   -0.19499E-05   -0.67954E-07  2388   0.116E-03    0.596E-04
RMM:  13    -0.413166706347E+03   -0.26343E-06   -0.26211E-07  1721   0.837E-04
   11 T=    61. E= -.41286701E+03 F= -.41316671E+03 E0= -.41314435E+03  EK= 0.29969E+00 SP= 0.00E+00 SK= 0.00E+00
       N       E                     dE             d eps       ncg     rms          rms(c)
RMM:   1    -0.413178376509E+03   -0.11670E-01   -0.58046E+00  4294   0.506E-01    0.926E-01
RMM:   2    -0.413174154798E+03    0.42217E-02   -0.76676E-02  4234   0.736E-02    0.668E-01
RMM:   3    -0.413172609867E+03    0.15449E-02   -0.59721E-02  5106   0.888E-02    0.386E-01
RMM:   4    -0.413182815334E+03   -0.10205E-01   -0.25956E-02  5073   0.139E-01    0.551E-01
RMM:   5    -0.413166583960E+03    0.16231E-01   -0.91106E-03  4657   0.906E-02    0.406E-02
RMM:   6    -0.413166679104E+03   -0.95144E-04   -0.13017E-03  5595   0.341E-02    0.276E-02
RMM:   7    -0.413166697157E+03   -0.18053E-04   -0.22625E-04  5464   0.148E-02    0.189E-02
RMM:   8    -0.413166698806E+03   -0.16494E-05   -0.32751E-05  4642   0.687E-03    0.609E-03
RMM:   9    -0.413166700089E+03   -0.12829E-05   -0.61240E-06  2964   0.293E-03    0.376E-03
RMM:  10    -0.413166702296E+03   -0.22071E-05   -0.11373E-06  2505   0.172E-03    0.233E-03
RMM:  11    -0.413166703583E+03   -0.12869E-05   -0.68436E-07  2367   0.123E-03    0.111E-03
RMM:  12    -0.413166704708E+03   -0.11246E-05   -0.71246E-07  2403   0.119E-03    0.624E-04
RMM:  13    -0.413166704456E+03    0.25144E-06   -0.26798E-07  1771   0.847E-04
   12 T=    61. E= -.41286674E+03 F= -.41316670E+03 E0= -.41314437E+03  EK= 0.29996E+00 SP= 0.00E+00 SK= 0.00E+00
       N       E                     dE             d eps       ncg     rms          rms(c)
RMM:   1    -0.413179715999E+03   -0.13011E-01   -0.57593E+00  4294   0.516E-01    0.938E-01
RMM:   2    -0.413174388628E+03    0.53274E-02   -0.77830E-02  4252   0.711E-02    0.666E-01
RMM:   3    -0.413172807173E+03    0.15815E-02   -0.55989E-02  5141   0.852E-02    0.358E-01
RMM:   4    -0.413184145285E+03   -0.11338E-01   -0.27062E-02  5086   0.142E-01    0.555E-01
RMM:   5    -0.413167202824E+03    0.16942E-01   -0.86483E-03  4666   0.922E-02    0.417E-02
RMM:   6    -0.413167280910E+03   -0.78086E-04   -0.13519E-03  5609   0.350E-02    0.287E-02
RMM:   7    -0.413167288253E+03   -0.73430E-05   -0.23414E-04  5472   0.150E-02    0.199E-02
RMM:   8    -0.413167284047E+03    0.42059E-05   -0.34605E-05  4705   0.722E-03    0.668E-03
RMM:   9    -0.413167281627E+03    0.24199E-05   -0.68968E-06  3000   0.301E-03    0.380E-03
RMM:  10    -0.413167279585E+03    0.20423E-05   -0.13006E-06  2521   0.178E-03    0.235E-03
RMM:  11    -0.413167277437E+03    0.21478E-05   -0.73562E-07  2398   0.128E-03    0.117E-03
RMM:  12    -0.413167273281E+03    0.41563E-05   -0.84819E-07  2463   0.128E-03    0.680E-04
RMM:  13    -0.413167270901E+03    0.23795E-05   -0.30899E-07  1859   0.894E-04    0.435E-04
RMM:  14    -0.413167269461E+03    0.14403E-05   -0.15390E-07  1301   0.706E-04    0.211E-04
RMM:  15    -0.413167265066E+03    0.43953E-05   -0.22964E-07  1754   0.795E-04    0.339E-04
RMM:  16    -0.413167260744E+03    0.43217E-05   -0.18254E-07  1425   0.689E-04    0.284E-04
RMM:  17    -0.413167258881E+03    0.18630E-05   -0.83569E-08   973   0.561E-04    0.200E-04
RMM:  18    -0.413167256987E+03    0.18938E-05   -0.70593E-08   991   0.569E-04    0.371E-05
RMM:  19    -0.413167256329E+03    0.65848E-06   -0.33315E-08   805   0.535E-04
   13 T=    61. E= -.41286693E+03 F= -.41316726E+03 E0= -.41314496E+03  EK= 0.30033E+00 SP= 0.00E+00 SK= 0.00E+00
       N       E                     dE             d eps       ncg     rms          rms(c)
RMM:   1    -0.413179507894E+03   -0.12251E-01   -0.57564E+00  4294   0.514E-01    0.917E-01
RMM:   2    -0.413175259883E+03    0.42480E-02   -0.76281E-02  4257   0.684E-02    0.661E-01
RMM:   3    -0.413173965766E+03    0.12941E-02   -0.58439E-02  5128   0.873E-02    0.382E-01
RMM:   4    -0.413184132167E+03   -0.10166E-01   -0.26320E-02  5075   0.140E-01    0.550E-01
RMM:   5    -0.413167911812E+03    0.16220E-01   -0.89322E-03  4654   0.906E-02    0.410E-02
RMM:   6    -0.413167991343E+03   -0.79531E-04   -0.13204E-03  5578   0.339E-02    0.277E-02
RMM:   7    -0.413167998989E+03   -0.76458E-05   -0.22458E-04  5423   0.147E-02    0.190E-02
RMM:   8    -0.413168000815E+03   -0.18257E-05   -0.32494E-05  4630   0.706E-03    0.612E-03
RMM:   9    -0.413168001550E+03   -0.73550E-06   -0.62920E-06  2933   0.291E-03
   14 T=    61. E= -.41286727E+03 F= -.41316800E+03 E0= -.41314573E+03  EK= 0.30073E+00 SP= 0.00E+00 SK= 0.00E+00
       N       E                     dE             d eps       ncg     rms          rms(c)
RMM:   1    -0.413179602823E+03   -0.11602E-01   -0.58423E+00  4299   0.520E-01    0.923E-01
RMM:   2    -0.413175588916E+03    0.40139E-02   -0.77187E-02  4306   0.708E-02    0.668E-01
RMM:   3    -0.413180407913E+03   -0.48190E-02   -0.64121E-02  5147   0.116E-01    0.510E-01
RMM:   4    -0.413178024544E+03    0.23834E-02   -0.26158E-02  5017   0.143E-01    0.458E-01
RMM:   5    -0.413168006860E+03    0.10018E-01   -0.69024E-03  4485   0.746E-02    0.396E-02
RMM:   6    -0.413168021926E+03   -0.15067E-04   -0.74056E-04  5277   0.255E-02    0.260E-02
RMM:   7    -0.413168024219E+03   -0.22924E-05   -0.14914E-04  5119   0.123E-02    0.157E-02
RMM:   8    -0.413168030059E+03   -0.58404E-05   -0.22902E-05  4173   0.595E-03    0.413E-03
RMM:   9    -0.413168031818E+03   -0.17588E-05   -0.28478E-06  2610   0.216E-03    0.288E-03
RMM:  10    -0.413168034064E+03   -0.22461E-05   -0.99465E-07  2437   0.144E-03    0.159E-03
RMM:  11    -0.413168034984E+03   -0.91961E-06   -0.53146E-07  1885   0.101E-03
   15 T=    61. E= -.41286703E+03 F= -.41316803E+03 E0= -.41314580E+03  EK= 0.30101E+00 SP= 0.00E+00 SK= 0.00E+00
       N       E                     dE             d eps       ncg     rms          rms(c)
RMM:   1    -0.413181193786E+03   -0.13160E-01   -0.57943E+00  4296   0.519E-01    0.939E-01
RMM:   2    -0.413176460724E+03    0.47331E-02   -0.77537E-02  4264   0.750E-02    0.668E-01
RMM:   3    -0.413174957442E+03    0.15033E-02   -0.56646E-02  5074   0.924E-02    0.366E-01
RMM:   4    -0.413185470037E+03   -0.10513E-01   -0.26661E-02  5063   0.141E-01    0.549E-01
RMM:   5    -0.413169022188E+03    0.16448E-01   -0.84900E-03  4660   0.904E-02    0.413E-02
RMM:   6    -0.413169103155E+03   -0.80966E-04   -0.13175E-03  5601   0.342E-02    0.288E-02
RMM:   7    -0.413169092034E+03    0.11121E-04   -0.23244E-04  5453   0.150E-02    0.198E-02
RMM:   8    -0.413169086845E+03    0.51888E-05   -0.33404E-05  4677   0.709E-03    0.655E-03
RMM:   9    -0.413169084550E+03    0.22949E-05   -0.65529E-06  2979   0.305E-03    0.375E-03
RMM:  10    -0.413169082056E+03    0.24944E-05   -0.13039E-06  2525   0.180E-03    0.232E-03
RMM:  11    -0.413169079454E+03    0.26019E-05   -0.74923E-07  2407   0.128E-03    0.115E-03
RMM:  12    -0.413169074385E+03    0.50688E-05   -0.87697E-07  2461   0.131E-03    0.678E-04
RMM:  13    -0.413169070856E+03    0.35291E-05   -0.32961E-07  1842   0.900E-04    0.414E-04
RMM:  14    -0.413169069309E+03    0.15468E-05   -0.14590E-07  1254   0.691E-04    0.206E-04
RMM:  15    -0.413169063372E+03    0.59377E-05   -0.23666E-07  1660   0.796E-04    0.351E-04
RMM:  16    -0.413169057992E+03    0.53798E-05   -0.17445E-07  1412   0.687E-04    0.298E-04
RMM:  17    -0.413169056758E+03    0.12335E-05   -0.64563E-08   896   0.539E-04    0.225E-04
RMM:  18    -0.413169054358E+03    0.24007E-05   -0.62386E-08   957   0.560E-04    0.729E-05
RMM:  19    -0.413169053352E+03    0.10059E-05   -0.38977E-08   878   0.545E-04    0.561E-05
RMM:  20    -0.413169053244E+03    0.10795E-06   -0.13043E-08   630   0.506E-04
   16 T=    61. E= -.41286729E+03 F= -.41316905E+03 E0= -.41314686E+03  EK= 0.30177E+00 SP= 0.00E+00 SK= 0.00E+00
       N       E                     dE             d eps       ncg     rms          rms(c)
RMM:   1    -0.413181195472E+03   -0.12142E-01   -0.57791E+00  4297   0.529E-01    0.922E-01
RMM:   2    -0.413176981220E+03    0.42143E-02   -0.77167E-02  4264   0.765E-02    0.662E-01
RMM:   3    -0.413175571197E+03    0.14100E-02   -0.57608E-02  5055   0.927E-02    0.376E-01
RMM:   4    -0.413185888815E+03   -0.10318E-01   -0.26581E-02  5053   0.141E-01    0.551E-01
RMM:   5    -0.413169410087E+03    0.16479E-01   -0.88245E-03  4651   0.910E-02    0.412E-02
RMM:   6    -0.413169500643E+03   -0.90557E-04   -0.13345E-03  5597   0.341E-02    0.283E-02
RMM:   7    -0.413169508500E+03   -0.78569E-05   -0.23014E-04  5425   0.150E-02    0.194E-02
RMM:   8    -0.413169510690E+03   -0.21899E-05   -0.33725E-05  4628   0.749E-03    0.627E-03
RMM:   9    -0.413169510095E+03    0.59538E-06   -0.70022E-06  2982   0.303E-03
   17 T=    62. E= -.41286708E+03 F= -.41316951E+03 E0= -.41314735E+03  EK= 0.30243E+00 SP= 0.00E+00 SK= 0.00E+00
       N       E                     dE             d eps       ncg     rms          rms(c)
RMM:   1    -0.413181438239E+03   -0.11928E-01   -0.58871E+00  4297   0.533E-01    0.921E-01
RMM:   2    -0.413177737917E+03    0.37003E-02   -0.77660E-02  4301   0.759E-02    0.669E-01
RMM:   3    -0.413182268741E+03   -0.45308E-02   -0.64211E-02  5123   0.117E-01    0.510E-01
RMM:   4    -0.413180240994E+03    0.20277E-02   -0.26316E-02  5007   0.144E-01    0.463E-01
RMM:   5    -0.413169999161E+03    0.10242E-01   -0.70614E-03  4484   0.759E-02    0.396E-02
RMM:   6    -0.413170026304E+03   -0.27144E-04   -0.78068E-04  5305   0.258E-02    0.261E-02
RMM:   7    -0.413170023914E+03    0.23908E-05   -0.15388E-04  5136   0.122E-02    0.160E-02
RMM:   8    -0.413170022559E+03    0.13548E-05   -0.22838E-05  4167   0.605E-03    0.418E-03
RMM:   9    -0.413170023716E+03   -0.11574E-05   -0.31185E-06  2623   0.222E-03    0.286E-03
RMM:  10    -0.413170025224E+03   -0.15084E-05   -0.97732E-07  2453   0.144E-03    0.159E-03
RMM:  11    -0.413170025613E+03   -0.38829E-06   -0.50525E-07  1907   0.101E-03
   18 T=    62. E= -.41286692E+03 F= -.41317003E+03 E0= -.41314791E+03  EK= 0.30310E+00 SP= 0.00E+00 SK= 0.00E+00
       N       E                     dE             d eps       ncg     rms          rms(c)
RMM:   1    -0.413183448686E+03   -0.13423E-01   -0.58528E+00  4295   0.536E-01    0.940E-01
RMM:   2    -0.413178592852E+03    0.48558E-02   -0.78147E-02  4271   0.733E-02    0.670E-01
RMM:   3    -0.413176884816E+03    0.17080E-02   -0.56823E-02  5097   0.876E-02    0.363E-01
RMM:   4    -0.413188481477E+03   -0.11597E-01   -0.27221E-02  5074   0.142E-01    0.562E-01
RMM:   5    -0.413171148120E+03    0.17333E-01   -0.89521E-03  4670   0.929E-02    0.416E-02
RMM:   6    -0.413171236583E+03   -0.88463E-04   -0.14011E-03  5638   0.351E-02    0.289E-02
RMM:   7    -0.413171247016E+03   -0.10433E-04   -0.24126E-04  5464   0.154E-02    0.201E-02
RMM:   8    -0.413171246228E+03    0.78836E-06   -0.35674E-05  4683   0.757E-03    0.676E-03
RMM:   9    -0.413171243579E+03    0.26490E-05   -0.73395E-06  3038   0.313E-03    0.392E-03
RMM:  10    -0.413171241160E+03    0.24182E-05   -0.13385E-06  2526   0.183E-03    0.242E-03
RMM:  11    -0.413171238574E+03    0.25865E-05   -0.75155E-07  2427   0.130E-03    0.121E-03
RMM:  12    -0.413171233333E+03    0.52410E-05   -0.89301E-07  2477   0.132E-03    0.723E-04
RMM:  13    -0.413171229750E+03    0.35833E-05   -0.32522E-07  1856   0.905E-04    0.427E-04
RMM:  14    -0.413171228355E+03    0.13951E-05   -0.14515E-07  1261   0.692E-04    0.220E-04
RMM:  15    -0.413171221817E+03    0.65377E-05   -0.22195E-07  1618   0.781E-04    0.352E-04
RMM:  16    -0.413171216432E+03    0.53845E-05   -0.15055E-07  1376   0.673E-04    0.326E-04
RMM:  17    -0.413171215134E+03    0.12982E-05   -0.59675E-08   871   0.539E-04    0.255E-04
RMM:  18    -0.413171212192E+03    0.29422E-05   -0.61603E-08   954   0.561E-04    0.891E-05
RMM:  19    -0.413171211065E+03    0.11273E-05   -0.37043E-08   865   0.548E-04    0.459E-05
RMM:  20    -0.413171210693E+03    0.37155E-06   -0.15867E-08   675   0.521E-04
   19 T=    62. E= -.41286724E+03 F= -.41317121E+03 E0= -.41314913E+03  EK= 0.30397E+00 SP= 0.00E+00 SK= 0.00E+00
       N       E                     dE             d eps       ncg     rms          rms(c)
RMM:   1    -0.413183429305E+03   -0.12218E-01   -0.58273E+00  4294   0.538E-01    0.929E-01
RMM:   2    -0.413178840500E+03    0.45888E-02   -0.77803E-02  4276   0.721E-02    0.665E-01
RMM:   3    -0.413177203328E+03    0.16372E-02   -0.56430E-02  5125   0.853E-02    0.362E-01
RMM:   4    -0.413188954532E+03   -0.11751E-01   -0.27396E-02  5075   0.142E-01    0.563E-01
RMM:   5    -0.413171529256E+03    0.17425E-01   -0.90202E-03  4668   0.932E-02    0.418E-02
RMM:   6    -0.413171617449E+03   -0.88193E-04   -0.14149E-03  5623   0.352E-02    0.288E-02
RMM:   7    -0.413171621230E+03   -0.37811E-05   -0.24154E-04  5446   0.154E-02    0.201E-02
RMM:   8    -0.413171621121E+03    0.10954E-06   -0.36058E-05  4728   0.734E-03    0.685E-03
RMM:   9    -0.413171619762E+03    0.13583E-05   -0.74156E-06  3042   0.310E-03    0.392E-03
RMM:  10    -0.413171618721E+03    0.10414E-05   -0.12641E-06  2517   0.181E-03    0.242E-03
RMM:  11    -0.413171617253E+03    0.14680E-05   -0.72815E-07  2425   0.128E-03    0.122E-03
RMM:  12    -0.413171614038E+03    0.32151E-05   -0.85384E-07  2471   0.130E-03    0.707E-04
RMM:  13    -0.413171611649E+03    0.23892E-05   -0.31158E-07  1859   0.893E-04    0.430E-04
RMM:  14    -0.413171610522E+03    0.11266E-05   -0.14256E-07  1257   0.686E-04    0.218E-04
RMM:  15    -0.413171606805E+03    0.37170E-05   -0.13974E-07  1271   0.701E-04    0.194E-04
RMM:  16    -0.413171602460E+03    0.43450E-05   -0.12771E-07  1308   0.675E-04    0.241E-04
RMM:  17    -0.413171601086E+03    0.13740E-05   -0.55480E-08   893   0.567E-04    0.194E-04
RMM:  18    -0.413171598293E+03    0.27928E-05   -0.56494E-08   964   0.571E-04    0.100E-04
RMM:  19    -0.413171597094E+03    0.11990E-05   -0.32213E-08   807   0.543E-04    0.296E-05
RMM:  20    -0.413171596531E+03    0.56361E-06   -0.16097E-08   684   0.530E-04
   20 T=    62. E= -.41286705E+03 F= -.41317160E+03 E0= -.41314956E+03  EK= 0.30455E+00 SP= 0.00E+00 SK= 0.00E+00
       N       E                     dE             d eps       ncg     rms          rms(c)
RMM:   1    -0.413184178559E+03   -0.12581E-01   -0.59242E+00  4295   0.547E-01    0.922E-01
RMM:   2    -0.413180277127E+03    0.39014E-02   -0.77988E-02  4274   0.729E-02    0.669E-01
RMM:   3    -0.413178509353E+03    0.17678E-02   -0.60018E-02  5112   0.861E-02    0.384E-01
RMM:   4    -0.413190139632E+03   -0.11630E-01   -0.26844E-02  5072   0.141E-01    0.570E-01
RMM:   5    -0.413172702734E+03    0.17437E-01   -0.97248E-03  4672   0.940E-02    0.412E-02
RMM:   6    -0.413172797563E+03   -0.94829E-04   -0.14286E-03  5648   0.351E-02    0.278E-02
RMM:   7    -0.413172798425E+03   -0.86188E-06   -0.24017E-04  5438   0.153E-02    0.192E-02
RMM:   8    -0.413172800878E+03   -0.24531E-05   -0.34967E-05  4647   0.765E-03    0.642E-03
RMM:   9    -0.413172802448E+03   -0.15697E-05   -0.72030E-06  3041   0.315E-03    0.396E-03
RMM:  10    -0.413172804925E+03   -0.24775E-05   -0.11962E-06  2513   0.178E-03    0.246E-03
RMM:  11    -0.413172806401E+03   -0.14757E-05   -0.74027E-07  2427   0.129E-03    0.118E-03
RMM:  12    -0.413172807524E+03   -0.11231E-05   -0.74197E-07  2389   0.122E-03    0.669E-04
RMM:  13    -0.413172806879E+03    0.64448E-06   -0.25754E-07  1768   0.849E-04
   21 T=    62. E= -.41286738E+03 F= -.41317281E+03 E0= -.41315082E+03  EK= 0.30543E+00 SP= 0.00E+00 SK= 0.00E+00
       N       E                     dE             d eps       ncg     rms          rms(c)
RMM:   1    -0.413185785430E+03   -0.12978E-01   -0.59192E+00  4293   0.546E-01    0.938E-01
RMM:   2    -0.413181262047E+03    0.45234E-02   -0.78646E-02  4274   0.744E-02    0.673E-01
RMM:   3    -0.413178972017E+03    0.22900E-02   -0.57231E-02  5082   0.843E-02    0.352E-01
RMM:   4    -0.413192583856E+03   -0.13612E-01   -0.27528E-02  5074   0.142E-01    0.583E-01
RMM:   5    -0.413173799942E+03    0.18784E-01   -0.97664E-03  4686   0.971E-02    0.418E-02
RMM:   6    -0.413173898282E+03   -0.98340E-04   -0.15427E-03  5680   0.368E-02    0.290E-02
RMM:   7    -0.413173912638E+03   -0.14355E-04   -0.26057E-04  5481   0.162E-02    0.205E-02
RMM:   8    -0.413173910789E+03    0.18484E-05   -0.38605E-05  4730   0.774E-03    0.730E-03
RMM:   9    -0.413173909104E+03    0.16856E-05   -0.85693E-06  3132   0.335E-03    0.429E-03
RMM:  10    -0.413173907990E+03    0.11142E-05   -0.13362E-06  2528   0.190E-03    0.266E-03
RMM:  11    -0.413173906277E+03    0.17122E-05   -0.83293E-07  2480   0.137E-03    0.132E-03
RMM:  12    -0.413173902774E+03    0.35033E-05   -0.93398E-07  2477   0.136E-03    0.787E-04
RMM:  13    -0.413173900179E+03    0.25952E-05   -0.31477E-07  1918   0.919E-04    0.418E-04
RMM:  14    -0.413173899140E+03    0.10394E-05   -0.14636E-07  1286   0.693E-04    0.235E-04
RMM:  15    -0.413173893951E+03    0.51886E-05   -0.18680E-07  1475   0.743E-04    0.287E-04
RMM:  16    -0.413173889676E+03    0.42752E-05   -0.12467E-07  1269   0.654E-04    0.284E-04
RMM:  17    -0.413173887881E+03    0.17951E-05   -0.58015E-08   906   0.560E-04    0.207E-04
RMM:  18    -0.413173884606E+03    0.32742E-05   -0.62578E-08   999   0.576E-04    0.807E-05
RMM:  19    -0.413173883365E+03    0.12414E-05   -0.34324E-08   859   0.548E-04    0.362E-05
RMM:  20    -0.413173882747E+03    0.61758E-06   -0.17086E-08   718   0.530E-04
   22 T=    62. E= -.41286747E+03 F= -.41317388E+03 E0= -.41315194E+03  EK= 0.30641E+00 SP= 0.00E+00 SK= 0.00E+00
       N       E                     dE             d eps       ncg     rms          rms(c)
RMM:   1    -0.413186881120E+03   -0.12998E-01   -0.58997E+00  4291   0.562E-01    0.937E-01
RMM:   2    -0.413181977540E+03    0.49036E-02   -0.79715E-02  4291   0.793E-02    0.669E-01
RMM:   3    -0.413179581305E+03    0.23962E-02   -0.55374E-02  5047   0.874E-02    0.339E-01
RMM:   4    -0.413193954454E+03   -0.14373E-01   -0.28204E-02  5073   0.144E-01    0.589E-01
RMM:   5    -0.413174568722E+03    0.19386E-01   -0.97523E-03  4692   0.978E-02    0.423E-02
RMM:   6    -0.413174676856E+03   -0.10813E-03   -0.15486E-03  5673   0.374E-02    0.296E-02
RMM:   7    -0.413174679406E+03   -0.25503E-05   -0.26056E-04  5469   0.160E-02    0.207E-02
RMM:   8    -0.413174674763E+03    0.46432E-05   -0.38871E-05  4804   0.759E-03    0.735E-03
RMM:   9    -0.413174672442E+03    0.23216E-05   -0.81287E-06  3135   0.333E-03    0.417E-03
RMM:  10    -0.413174670395E+03    0.20469E-05   -0.14021E-06  2538   0.192E-03    0.259E-03
RMM:  11    -0.413174668167E+03    0.22277E-05   -0.80284E-07  2465   0.135E-03    0.133E-03
RMM:  12    -0.413174663703E+03    0.44635E-05   -0.97263E-07  2497   0.138E-03    0.755E-04
RMM:  13    -0.413174660748E+03    0.29549E-05   -0.35452E-07  1950   0.936E-04    0.465E-04
RMM:  14    -0.413174659681E+03    0.10679E-05   -0.15455E-07  1302   0.702E-04    0.248E-04
RMM:  15    -0.413174655414E+03    0.42665E-05   -0.14775E-07  1338   0.709E-04    0.209E-04
RMM:  16    -0.413174650280E+03    0.51338E-05   -0.12974E-07  1318   0.677E-04    0.263E-04
RMM:  17    -0.413174648735E+03    0.15451E-05   -0.56003E-08   894   0.569E-04    0.209E-04
RMM:  18    -0.413174645481E+03    0.32542E-05   -0.55062E-08   948   0.577E-04    0.990E-05
RMM:  19    -0.413174644134E+03    0.13469E-05   -0.33979E-08   852   0.554E-04    0.351E-05
RMM:  20    -0.413174643531E+03    0.60264E-06   -0.16925E-08   713   0.536E-04
   23 T=    63. E= -.41286720E+03 F= -.41317464E+03 E0= -.41315275E+03  EK= 0.30745E+00 SP= 0.00E+00 SK= 0.00E+00
       N       E                     dE             d eps       ncg     rms          rms(c)
RMM:   1    -0.413187964125E+03   -0.13320E-01   -0.59742E+00  4291   0.567E-01    0.923E-01
RMM:   2    -0.413183856406E+03    0.41077E-02   -0.80854E-02  4297   0.812E-02    0.671E-01
RMM:   3    -0.413181475013E+03    0.23814E-02   -0.58694E-02  5039   0.907E-02    0.364E-01
RMM:   4    -0.413195719866E+03   -0.14245E-01   -0.27973E-02  5070   0.144E-01    0.597E-01
RMM:   5    -0.413176081164E+03    0.19639E-01   -0.10469E-02  4689   0.999E-02    0.419E-02
RMM:   6    -0.413176194775E+03   -0.11361E-03   -0.15847E-03  5706   0.375E-02    0.285E-02
RMM:   7    -0.413176217249E+03   -0.22475E-04   -0.26310E-04  5461   0.163E-02    0.199E-02
RMM:   8    -0.413176218907E+03   -0.16572E-05   -0.39963E-05  4656   0.845E-03    0.696E-03
RMM:   9    -0.413176219768E+03   -0.86097E-06   -0.96407E-06  3171   0.357E-03
   24 T=    63. E= -.41286737E+03 F= -.41317622E+03 E0= -.41315437E+03  EK= 0.30885E+00 SP= 0.00E+00 SK= 0.00E+00
       N       E                     dE             d eps       ncg     rms          rms(c)
RMM:   1    -0.413189292773E+03   -0.13074E-01   -0.60240E+00  4300   0.569E-01    0.935E-01
RMM:   2    -0.413185058484E+03    0.42343E-02   -0.81893E-02  4335   0.822E-02    0.677E-01
RMM:   3    -0.413189631832E+03   -0.45733E-02   -0.62199E-02  5114   0.121E-01    0.500E-01
RMM:   4    -0.413188558861E+03    0.10730E-02   -0.27827E-02  5017   0.148E-01    0.474E-01
RMM:   5    -0.413177247299E+03    0.11312E-01   -0.67139E-03  4503   0.786E-02    0.412E-02
RMM:   6    -0.413177277845E+03   -0.30547E-04   -0.85925E-04  5392   0.271E-02    0.270E-02
RMM:   7    -0.413177282550E+03   -0.47047E-05   -0.16425E-04  5201   0.128E-02    0.170E-02
RMM:   8    -0.413177278827E+03    0.37228E-05   -0.25960E-05  4346   0.652E-03    0.464E-03
RMM:   9    -0.413177278101E+03    0.72577E-06   -0.37241E-06  2688   0.240E-03
   25 T=    63. E= -.41286714E+03 F= -.41317728E+03 E0= -.41315548E+03  EK= 0.31014E+00 SP= 0.00E+00 SK= 0.00E+00
       N       E                     dE             d eps       ncg     rms          rms(c)
RMM:   1    -0.413190852554E+03   -0.13574E-01   -0.59991E+00  4299   0.565E-01    0.947E-01
RMM:   2    -0.413186171262E+03    0.46813E-02   -0.80645E-02  4308   0.792E-02    0.674E-01
RMM:   3    -0.413186501161E+03   -0.32990E-03   -0.56993E-02  5084   0.105E-01    0.404E-01
RMM:   4    -0.413193830742E+03   -0.73296E-02   -0.27795E-02  5047   0.145E-01    0.528E-01
RMM:   5    -0.413178702426E+03    0.15128E-01   -0.75953E-03  4624   0.875E-02    0.423E-02
RMM:   6    -0.413178756142E+03   -0.53716E-04   -0.12313E-03  5624   0.325E-02    0.290E-02
RMM:   7    -0.413178751031E+03    0.51111E-05   -0.22005E-04  5356   0.153E-02    0.197E-02
RMM:   8    -0.413178747087E+03    0.39447E-05   -0.32663E-05  4591   0.726E-03    0.624E-03
RMM:   9    -0.413178742781E+03    0.43060E-05   -0.60152E-06  2911   0.285E-03    0.348E-03
RMM:  10    -0.413178738101E+03    0.46797E-05   -0.12511E-06  2522   0.176E-03    0.216E-03
RMM:  11    -0.413178733819E+03    0.42820E-05   -0.70722E-07  2326   0.125E-03    0.108E-03
RMM:  12    -0.413178725753E+03    0.80663E-05   -0.85813E-07  2442   0.125E-03    0.599E-04
RMM:  13    -0.413178719473E+03    0.62794E-05   -0.39200E-07  1795   0.890E-04    0.426E-04
RMM:  14    -0.413178716322E+03    0.31510E-05   -0.16064E-07  1226   0.691E-04    0.202E-04
RMM:  15    -0.413178706608E+03    0.97139E-05   -0.23401E-07  1527   0.762E-04    0.348E-04
RMM:  16    -0.413178698550E+03    0.80584E-05   -0.15533E-07  1290   0.670E-04    0.251E-04
RMM:  17    -0.413178697084E+03    0.14655E-05   -0.58585E-08   879   0.555E-04    0.193E-04
RMM:  18    -0.413178694836E+03    0.22485E-05   -0.44111E-08   925   0.560E-04    0.920E-05
RMM:  19    -0.413178693443E+03    0.13927E-05   -0.34485E-08   915   0.556E-04    0.499E-05
RMM:  20    -0.413178693394E+03    0.49022E-07   -0.99270E-09   614   0.510E-04
   26 T=    63. E= -.41286714E+03 F= -.41317869E+03 E0= -.41315695E+03  EK= 0.31156E+00 SP= 0.00E+00 SK= 0.00E+00
       N       E                     dE             d eps       ncg     rms          rms(c)
RMM:   1    -0.413192035162E+03   -0.13342E-01   -0.60402E+00  4294   0.574E-01    0.928E-01
RMM:   2    -0.413188146930E+03    0.38882E-02   -0.80268E-02  4298   0.774E-02    0.672E-01
RMM:   3    -0.413185653048E+03    0.24939E-02   -0.57884E-02  5068   0.888E-02    0.359E-01
RMM:   4    -0.413200038954E+03   -0.14386E-01   -0.28075E-02  5075   0.145E-01    0.596E-01
RMM:   5    -0.413180401621E+03    0.19637E-01   -0.10204E-02  4689   0.994E-02    0.422E-02
RMM:   6    -0.413180511949E+03   -0.11033E-03   -0.16130E-03  5718   0.378E-02    0.289E-02
RMM:   7    -0.413180523839E+03   -0.11890E-04   -0.26795E-04  5461   0.162E-02    0.206E-02
RMM:   8    -0.413180521932E+03    0.19066E-05   -0.40184E-05  4764   0.778E-03    0.752E-03
RMM:   9    -0.413180521288E+03    0.64398E-06   -0.83430E-06  3176   0.341E-03
   27 T=    64. E= -.41286744E+03 F= -.41318052E+03 E0= -.41315882E+03  EK= 0.31308E+00 SP= 0.00E+00 SK= 0.00E+00
       N       E                     dE             d eps       ncg     rms          rms(c)
RMM:   1    -0.413193297518E+03   -0.12776E-01   -0.61370E+00  4300   0.580E-01    0.938E-01
RMM:   2    -0.413189374941E+03    0.39226E-02   -0.81459E-02  4340   0.805E-02    0.681E-01
RMM:   3    -0.413194305790E+03   -0.49308E-02   -0.63512E-02  5132   0.119E-01    0.509E-01
RMM:   4    -0.413192978173E+03    0.13276E-02   -0.28183E-02  5014   0.148E-01    0.478E-01
RMM:   5    -0.413181703535E+03    0.11275E-01   -0.69537E-03  4494   0.793E-02    0.411E-02
RMM:   6    -0.413181723830E+03   -0.20295E-04   -0.87295E-04  5403   0.274E-02    0.270E-02
RMM:   7    -0.413181726448E+03   -0.26185E-05   -0.17135E-04  5153   0.134E-02    0.172E-02
RMM:   8    -0.413181729042E+03   -0.25939E-05   -0.25812E-05  4349   0.657E-03    0.470E-03
RMM:   9    -0.413181728640E+03    0.40192E-06   -0.38120E-06  2694   0.242E-03
   28 T=    64. E= -.41286729E+03 F= -.41318173E+03 E0= -.41316008E+03  EK= 0.31444E+00 SP= 0.00E+00 SK= 0.00E+00
       N       E                     dE             d eps       ncg     rms          rms(c)
RMM:   1    -0.413198839779E+03   -0.17111E-01   -0.61420E+00  4293   0.619E-01    0.950E-01
RMM:   2    -0.413191276254E+03    0.75635E-02   -0.90591E-02  4299   0.867E-02    0.681E-01
RMM:   3    -0.413189437331E+03    0.18389E-02   -0.53381E-02  5086   0.909E-02    0.349E-01
RMM:   4    -0.413205211566E+03   -0.15774E-01   -0.32676E-02  5065   0.155E-01    0.617E-01
RMM:   5    -0.413183622237E+03    0.21589E-01   -0.10090E-02  4683   0.103E-01    0.452E-02
RMM:   6    -0.413183713411E+03   -0.91174E-04   -0.17336E-03  5691   0.396E-02    0.302E-02
RMM:   7    -0.413183725764E+03   -0.12353E-04   -0.28057E-04  5564   0.164E-02    0.214E-02
RMM:   8    -0.413183728341E+03   -0.25773E-05   -0.42321E-05  4814   0.824E-03    0.780E-03
RMM:   9    -0.413183724309E+03    0.40317E-05   -0.90242E-06  3180   0.362E-03    0.422E-03
RMM:  10    -0.413183719618E+03    0.46912E-05   -0.15952E-06  2548   0.200E-03    0.264E-03
RMM:  11    -0.413183714707E+03    0.49109E-05   -0.92199E-07  2476   0.143E-03    0.132E-03
RMM:  12    -0.413183706155E+03    0.85517E-05   -0.99476E-07  2473   0.139E-03    0.701E-04
RMM:  13    -0.413183701468E+03    0.46878E-05   -0.37912E-07  1972   0.957E-04    0.483E-04
RMM:  14    -0.413183698999E+03    0.24689E-05   -0.17810E-07  1390   0.728E-04    0.260E-04
RMM:  15    -0.413183689603E+03    0.93956E-05   -0.23223E-07  1677   0.785E-04    0.387E-04
RMM:  16    -0.413183681737E+03    0.78656E-05   -0.14424E-07  1237   0.663E-04    0.298E-04
RMM:  17    -0.413183678382E+03    0.33559E-05   -0.77613E-08   989   0.586E-04    0.182E-04
RMM:  18    -0.413183674374E+03    0.40074E-05   -0.70496E-08  1175   0.614E-04    0.721E-05
RMM:  19    -0.413183673914E+03    0.46018E-06   -0.27005E-08   770   0.538E-04
   29 T=    64. E= -.41286752E+03 F= -.41318367E+03 E0= -.41316208E+03  EK= 0.31615E+00 SP= 0.00E+00 SK= 0.00E+00
       N       E                     dE             d eps       ncg     rms          rms(c)
RMM:   1    -0.413198128363E+03   -0.14454E-01   -0.61389E+00  4292   0.608E-01    0.936E-01
RMM:   2    -0.413193327731E+03    0.48006E-02   -0.83035E-02  4275   0.856E-02    0.676E-01
RMM:   3    -0.413189177184E+03    0.41505E-02   -0.55932E-02  4986   0.830E-02    0.314E-01
RMM:   4    -0.413208230045E+03   -0.19053E-01   -0.29008E-02  5094   0.146E-01    0.635E-01
RMM:   5    -0.413185345990E+03    0.22884E-01   -0.11613E-02  4733   0.107E-01    0.428E-02
RMM:   6    -0.413185494182E+03   -0.14819E-03   -0.18958E-03  5793   0.413E-02    0.297E-02
RMM:   7    -0.413185513193E+03   -0.19011E-04   -0.28973E-04  5538   0.172E-02    0.212E-02
RMM:   8    -0.413185514818E+03   -0.16251E-05   -0.50369E-05  4851   0.868E-03    0.914E-03
RMM:   9    -0.413185513230E+03    0.15888E-05   -0.11284E-05  3484   0.402E-03    0.538E-03
RMM:  10    -0.413185512440E+03    0.78977E-06   -0.18014E-06  2561   0.221E-03
   30 T=    65. E= -.41286757E+03 F= -.41318551E+03 E0= -.41316396E+03  EK= 0.31794E+00 SP= 0.00E+00 SK= 0.00E+00
       N       E                     dE             d eps       ncg     rms          rms(c)
RMM:   1    -0.413201365139E+03   -0.15852E-01   -0.62910E+00  4299   0.636E-01    0.938E-01
RMM:   2    -0.413195505054E+03    0.58601E-02   -0.89137E-02  4296   0.946E-02    0.686E-01
RMM:   3    -0.413193500272E+03    0.20048E-02   -0.59019E-02  5023   0.102E-01    0.387E-01
RMM:   4    -0.413207665991E+03   -0.14166E-01   -0.31353E-02  5055   0.153E-01    0.612E-01
RMM:   5    -0.413186986123E+03    0.20680E-01   -0.10671E-02  4674   0.102E-01    0.437E-02
RMM:   6    -0.413187096345E+03   -0.11022E-03   -0.16854E-03  5707   0.386E-02    0.292E-02
RMM:   7    -0.413187111687E+03   -0.15342E-04   -0.27238E-04  5514   0.161E-02    0.205E-02
RMM:   8    -0.413187115574E+03   -0.38864E-05   -0.41426E-05  4813   0.787E-03    0.737E-03
RMM:   9    -0.413187115016E+03    0.55807E-06   -0.82724E-06  3145   0.350E-03
   31 T=    65. E= -.41286730E+03 F= -.41318712E+03 E0= -.41316562E+03  EK= 0.31981E+00 SP= 0.00E+00 SK= 0.00E+00
       N       E                     dE             d eps       ncg     rms          rms(c)
RMM:   1    -0.413202013516E+03   -0.14898E-01   -0.62482E+00  4300   0.613E-01    0.959E-01
RMM:   2    -0.413197687415E+03    0.43261E-02   -0.84545E-02  4299   0.976E-02    0.686E-01
RMM:   3    -0.413198476611E+03   -0.78920E-03   -0.58171E-02  5061   0.115E-01    0.424E-01
RMM:   4    -0.413205006357E+03   -0.65297E-02   -0.29047E-02  5034   0.149E-01    0.532E-01
RMM:   5    -0.413189594185E+03    0.15412E-01   -0.76759E-03  4594   0.886E-02    0.432E-02
RMM:   6    -0.413189670140E+03   -0.75956E-04   -0.12635E-03  5633   0.330E-02    0.295E-02
RMM:   7    -0.413189687875E+03   -0.17735E-04   -0.22670E-04  5296   0.157E-02    0.200E-02
RMM:   8    -0.413189687658E+03    0.21741E-06   -0.34928E-05  4669   0.764E-03    0.662E-03
RMM:   9    -0.413189683552E+03    0.41064E-05   -0.66652E-06  2943   0.306E-03    0.357E-03
RMM:  10    -0.413189678837E+03    0.47146E-05   -0.12603E-06  2521   0.183E-03    0.220E-03
RMM:  11    -0.413189673953E+03    0.48842E-05   -0.74029E-07  2386   0.131E-03    0.110E-03
RMM:  12    -0.413189665842E+03    0.81109E-05   -0.72735E-07  2393   0.121E-03    0.561E-04
RMM:  13    -0.413189661794E+03    0.40482E-05   -0.28214E-07  1781   0.856E-04    0.417E-04
RMM:  14    -0.413189657059E+03    0.47352E-05   -0.15832E-07  1256   0.704E-04    0.205E-04
RMM:  15    -0.413189647512E+03    0.95468E-05   -0.19207E-07  1538   0.744E-04    0.314E-04
RMM:  16    -0.413189638501E+03    0.90107E-05   -0.13259E-07  1216   0.661E-04    0.188E-04
RMM:  17    -0.413189635516E+03    0.29853E-05   -0.66984E-08  1075   0.588E-04    0.139E-04
RMM:  18    -0.413189632438E+03    0.30782E-05   -0.50318E-08  1064   0.582E-04    0.417E-05
RMM:  19    -0.413189631512E+03    0.92602E-06   -0.23778E-08   797   0.531E-04
   32 T=    66. E= -.41286752E+03 F= -.41318963E+03 E0= -.41316818E+03  EK= 0.32211E+00 SP= 0.00E+00 SK= 0.00E+00
       N       E                     dE             d eps       ncg     rms          rms(c)
RMM:   1    -0.413203521988E+03   -0.13890E-01   -0.62568E+00  4299   0.630E-01    0.948E-01
RMM:   2    -0.413199434831E+03    0.40872E-02   -0.85036E-02  4270   0.989E-02    0.682E-01
RMM:   3    -0.413194503873E+03    0.49310E-02   -0.55211E-02  4894   0.899E-02    0.288E-01
RMM:   4    -0.413215245532E+03   -0.20742E-01   -0.28383E-02  5108   0.145E-01    0.645E-01
RMM:   5    -0.413191251151E+03    0.23994E-01   -0.11971E-02  4754   0.109E-01    0.431E-02
RMM:   6    -0.413191424788E+03   -0.17364E-03   -0.20216E-03  5819   0.422E-02    0.298E-02
RMM:   7    -0.413191463390E+03   -0.38602E-04   -0.27712E-04  5531   0.172E-02    0.203E-02
RMM:   8    -0.413191466157E+03   -0.27675E-05   -0.57837E-05  4889   0.883E-03    0.990E-03
RMM:   9    -0.413191463067E+03    0.30898E-05   -0.12508E-05  3736   0.429E-03    0.595E-03
RMM:  10    -0.413191461386E+03    0.16818E-05   -0.20612E-06  2573   0.240E-03    0.358E-03
RMM:  11    -0.413191458705E+03    0.26803E-05   -0.12681E-06  2512   0.178E-03    0.179E-03
RMM:  12    -0.413191454404E+03    0.43011E-05   -0.12827E-06  2503   0.172E-03    0.112E-03
RMM:  13    -0.413191452258E+03    0.21459E-05   -0.40519E-07  2215   0.110E-03    0.664E-04
RMM:  14    -0.413191451248E+03    0.10101E-05   -0.18951E-07  1545   0.765E-04    0.398E-04
RMM:  15    -0.413191446198E+03    0.50500E-05   -0.18623E-07  1788   0.788E-04    0.351E-04
RMM:  16    -0.413191442887E+03    0.33108E-05   -0.95661E-08  1216   0.636E-04    0.315E-04
RMM:  17    -0.413191438255E+03    0.46325E-05   -0.76894E-08  1057   0.602E-04    0.262E-04
RMM:  18    -0.413191435260E+03    0.29948E-05   -0.51240E-08   916   0.570E-04    0.829E-05
RMM:  19    -0.413191432749E+03    0.25109E-05   -0.42924E-08   984   0.581E-04    0.849E-05
RMM:  20    -0.413191432421E+03    0.32850E-06   -0.18070E-08   722   0.539E-04
   33 T=    66. E= -.41286718E+03 F= -.41319143E+03 E0= -.41317003E+03  EK= 0.32426E+00 SP= 0.00E+00 SK= 0.00E+00
       N       E                     dE             d eps       ncg     rms          rms(c)
RMM:   1    -0.413205734205E+03   -0.14301E-01   -0.64004E+00  4307   0.649E-01    0.945E-01
RMM:   2    -0.413201906735E+03    0.38275E-02   -0.87186E-02  4265   0.103E-01    0.690E-01
RMM:   3    -0.413196905541E+03    0.50012E-02   -0.58672E-02  4857   0.897E-02    0.309E-01
RMM:   4    -0.413216313646E+03   -0.19408E-01   -0.26204E-02  5110   0.139E-01    0.629E-01
RMM:   5    -0.413193659542E+03    0.22654E-01   -0.11578E-02  4766   0.106E-01    0.419E-02
RMM:   6    -0.413193813314E+03   -0.15377E-03   -0.18913E-03  5825   0.408E-02    0.281E-02
RMM:   7    -0.413193839664E+03   -0.26350E-04   -0.23934E-04  5539   0.161E-02    0.180E-02
RMM:   8    -0.413193845352E+03   -0.56876E-05   -0.55674E-05  4930   0.826E-03    0.934E-03
RMM:   9    -0.413193843595E+03    0.17565E-05   -0.11701E-05  3805   0.417E-03    0.579E-03
RMM:  10    -0.413193844923E+03   -0.13276E-05   -0.19124E-06  2552   0.231E-03    0.353E-03
RMM:  11    -0.413193845115E+03   -0.19217E-06   -0.13291E-06  2510   0.178E-03
   34 T=    66. E= -.41286732E+03 F= -.41319385E+03 E0= -.41317249E+03  EK= 0.32652E+00 SP= 0.00E+00 SK= 0.00E+00
       N       E                     dE             d eps       ncg     rms          rms(c)
RMM:   1    -0.413210543137E+03   -0.16698E-01   -0.64262E+00  4309   0.668E-01    0.966E-01
RMM:   2    -0.413204231253E+03    0.63119E-02   -0.87717E-02  4277   0.112E-01    0.693E-01
RMM:   3    -0.413198437996E+03    0.57933E-02   -0.55158E-02  4647   0.928E-02    0.251E-01
RMM:   4    -0.413213139241E+03   -0.14701E-01   -0.18197E-02  5111   0.117E-01    0.539E-01
RMM:   5    -0.413196424862E+03    0.16714E-01   -0.83590E-03  4791   0.903E-02    0.393E-02
RMM:   6    -0.413196526856E+03   -0.10199E-03   -0.13844E-03  5804   0.352E-02    0.272E-02
RMM:   7    -0.413196561116E+03   -0.34260E-04   -0.21764E-04  5455   0.159E-02    0.183E-02
RMM:   8    -0.413196549939E+03    0.11177E-04   -0.39777E-05  4751   0.743E-03    0.805E-03
RMM:   9    -0.413196549270E+03    0.66854E-06   -0.96419E-06  3509   0.384E-03
   35 T=    67. E= -.41286771E+03 F= -.41319655E+03 E0= -.41317524E+03  EK= 0.32883E+00 SP= 0.00E+00 SK= 0.00E+00
       N       E                     dE             d eps       ncg     rms          rms(c)
RMM:   1    -0.413212740950E+03   -0.16191E-01   -0.64297E+00  4307   0.708E-01    0.960E-01
RMM:   2    -0.413206165115E+03    0.65758E-02   -0.94496E-02  4297   0.120E-01    0.691E-01
RMM:   3    -0.413203563540E+03    0.26016E-02   -0.54357E-02  4957   0.114E-01    0.331E-01
RMM:   4    -0.413223303460E+03   -0.19740E-01   -0.33870E-02  5064   0.158E-01    0.658E-01
RMM:   5    -0.413198447368E+03    0.24856E-01   -0.11740E-02  4709   0.110E-01    0.452E-02
RMM:   6    -0.413198589587E+03   -0.14222E-03   -0.20832E-03  5792   0.424E-02    0.310E-02
RMM:   7    -0.413198607305E+03   -0.17718E-04   -0.27857E-04  5549   0.168E-02    0.211E-02
RMM:   8    -0.413198606681E+03    0.62358E-06   -0.63916E-05  4976   0.901E-03    0.104E-02
RMM:   9    -0.413198599473E+03    0.72080E-05   -0.12384E-05  3730   0.441E-03    0.532E-03
RMM:  10    -0.413198594169E+03    0.53041E-05   -0.21858E-06  2606   0.241E-03    0.323E-03
RMM:  11    -0.413198589080E+03    0.50891E-05   -0.10603E-06  2498   0.164E-03    0.173E-03
RMM:  12    -0.413198579177E+03    0.99030E-05   -0.12520E-06  2491   0.171E-03    0.101E-03
RMM:  13    -0.413198573939E+03    0.52380E-05   -0.43359E-07  2237   0.112E-03    0.701E-04
RMM:  14    -0.413198572210E+03    0.17289E-05   -0.19318E-07  1589   0.775E-04    0.411E-04
RMM:  15    -0.413198562576E+03    0.96339E-05   -0.24098E-07  2075   0.849E-04    0.590E-04
RMM:  16    -0.413198554943E+03    0.76331E-05   -0.12304E-07  1329   0.646E-04    0.517E-04
RMM:  17    -0.413198548162E+03    0.67806E-05   -0.89940E-08  1059   0.599E-04    0.411E-04
RMM:  18    -0.413198546342E+03    0.18202E-05   -0.53373E-08   992   0.578E-04    0.206E-04
RMM:  19    -0.413198542365E+03    0.39770E-05   -0.65444E-08  1394   0.638E-04    0.191E-04
RMM:  20    -0.413198542123E+03    0.24193E-06   -0.19813E-08   740   0.502E-04
   36 T=    67. E= -.41286750E+03 F= -.41319854E+03 E0= -.41317728E+03  EK= 0.33105E+00 SP= 0.00E+00 SK= 0.00E+00
       N       E                     dE             d eps       ncg     rms          rms(c)
RMM:   1    -0.413214349729E+03   -0.15807E-01   -0.65405E+00  4309   0.708E-01    0.950E-01
RMM:   2    -0.413209556102E+03    0.47936E-02   -0.94177E-02  4259   0.122E-01    0.695E-01
RMM:   3    -0.413203160696E+03    0.63954E-02   -0.56735E-02  4367   0.976E-02    0.251E-01
RMM:   4    -0.413201652973E+03    0.15077E-02   -0.29426E-03  4509   0.323E-02    0.423E-02
RMM:   5    -0.413201716967E+03   -0.63994E-04   -0.24187E-04  4972   0.125E-02    0.496E-02
RMM:   6    -0.413201674798E+03    0.42170E-04   -0.26845E-04  5084   0.153E-02    0.302E-02
RMM:   7    -0.413201690509E+03   -0.15711E-04   -0.14455E-04  4785   0.134E-02    0.219E-02
RMM:   8    -0.413201679738E+03    0.10771E-04   -0.32109E-05  3836   0.490E-03    0.475E-03
RMM:   9    -0.413201680872E+03   -0.11341E-05   -0.69117E-06  2419   0.213E-03    0.409E-03
RMM:  10    -0.413201680758E+03    0.11380E-06   -0.15219E-06  2333   0.149E-03
   37 T=    68. E= -.41286798E+03 F= -.41320168E+03 E0= -.41318046E+03  EK= 0.33370E+00 SP= 0.00E+00 SK= 0.00E+00
       N       E                     dE             d eps       ncg     rms          rms(c)
RMM:   1    -0.413216896847E+03   -0.15216E-01   -0.65979E+00  4311   0.725E-01    0.969E-01
RMM:   2    -0.413212326343E+03    0.45705E-02   -0.94031E-02  4258   0.116E-01    0.702E-01
RMM:   3    -0.413205677326E+03    0.66490E-02   -0.56137E-02  4451   0.903E-02    0.239E-01
RMM:   4    -0.413206359834E+03   -0.68251E-03   -0.46237E-03  5074   0.547E-02    0.201E-01
RMM:   5    -0.413204185459E+03    0.21744E-02   -0.11293E-03  4771   0.345E-02    0.370E-02
RMM:   6    -0.413204196289E+03   -0.10830E-04   -0.39783E-04  5399   0.202E-02    0.296E-02
RMM:   7    -0.413204225461E+03   -0.29172E-04   -0.16638E-04  4970   0.140E-02    0.197E-02
RMM:   8    -0.413204217448E+03    0.80130E-05   -0.27372E-05  4619   0.583E-03    0.657E-03
RMM:   9    -0.413204216835E+03    0.61248E-06   -0.64548E-06  2595   0.237E-03
   38 T=    68. E= -.41286795E+03 F= -.41320422E+03 E0= -.41318304E+03  EK= 0.33627E+00 SP= 0.00E+00 SK= 0.00E+00
       N       E                     dE             d eps       ncg     rms          rms(c)
RMM:   1    -0.413220524875E+03   -0.16307E-01   -0.66085E+00  4309   0.773E-01    0.977E-01
RMM:   2    -0.413214811335E+03    0.57135E-02   -0.95598E-02  4264   0.115E-01    0.700E-01
RMM:   3    -0.413208194423E+03    0.66169E-02   -0.52888E-02  4542   0.853E-02    0.209E-01
RMM:   4    -0.413212859026E+03   -0.46646E-02   -0.75182E-03  5127   0.737E-02    0.327E-01
RMM:   5    -0.413206917392E+03    0.59416E-02   -0.29759E-03  4800   0.548E-02    0.389E-02
RMM:   6    -0.413206925310E+03   -0.79171E-05   -0.66223E-04  5583   0.261E-02    0.305E-02
RMM:   7    -0.413206945261E+03   -0.19951E-04   -0.20796E-04  5236   0.151E-02    0.200E-02
RMM:   8    -0.413206933855E+03    0.11406E-04   -0.35916E-05  5018   0.707E-03    0.853E-03
RMM:   9    -0.413206931062E+03    0.27926E-05   -0.74369E-06  2798   0.277E-03    0.333E-03
RMM:  10    -0.413206925208E+03    0.58538E-05   -0.14194E-06  2499   0.181E-03    0.173E-03
RMM:  11    -0.413206918166E+03    0.70422E-05   -0.73142E-07  2378   0.128E-03    0.797E-04
RMM:  12    -0.413206912314E+03    0.58526E-05   -0.35835E-07  2000   0.948E-04    0.430E-04
RMM:  13    -0.413206905997E+03    0.63166E-05   -0.19785E-07  1420   0.763E-04    0.264E-04
RMM:  14    -0.413206897904E+03    0.80930E-05   -0.15918E-07  1332   0.724E-04    0.213E-04
RMM:  15    -0.413206884392E+03    0.13512E-04   -0.18309E-07  1666   0.757E-04    0.177E-04
RMM:  16    -0.413206880014E+03    0.43786E-05   -0.73847E-08  1104   0.590E-04    0.141E-04
RMM:  17    -0.413206876256E+03    0.37574E-05   -0.53342E-08  1058   0.574E-04    0.494E-05
RMM:  18    -0.413206874257E+03    0.19988E-05   -0.33980E-08   866   0.542E-04    0.355E-05
RMM:  19    -0.413206873784E+03    0.47321E-06   -0.19548E-08   714   0.522E-04
   39 T=    69. E= -.41286780E+03 F= -.41320687E+03 E0= -.41318573E+03  EK= 0.33908E+00 SP= 0.00E+00 SK= 0.00E+00
       N       E                     dE             d eps       ncg     rms          rms(c)
RMM:   1    -0.413223144752E+03   -0.16270E-01   -0.66931E+00  4311   0.794E-01    0.961E-01
RMM:   2    -0.413218403559E+03    0.47412E-02   -0.96979E-02  4253   0.114E-01    0.701E-01
RMM:   3    -0.413212295437E+03    0.61081E-02   -0.56257E-02  4759   0.907E-02    0.261E-01
RMM:   4    -0.413231245869E+03   -0.18950E-01   -0.23695E-02  5108   0.131E-01    0.608E-01
RMM:   5    -0.413210087103E+03    0.21159E-01   -0.10454E-02  4786   0.102E-01    0.432E-02
RMM:   6    -0.413210130204E+03   -0.43101E-04   -0.17485E-03  5763   0.400E-02    0.291E-02
RMM:   7    -0.413210168974E+03   -0.38770E-04   -0.28983E-04  5585   0.163E-02    0.201E-02
RMM:   8    -0.413210161979E+03    0.69945E-05   -0.56431E-05  5048   0.812E-03    0.981E-03
RMM:   9    -0.413210163154E+03   -0.11751E-05   -0.11487E-05  3662   0.412E-03    0.515E-03
RMM:  10    -0.413210163180E+03   -0.25371E-07   -0.20111E-06  2584   0.224E-03
   40 T=    70. E= -.41286804E+03 F= -.41321016E+03 E0= -.41318906E+03  EK= 0.34212E+00 SP= 0.00E+00 SK= 0.00E+00
       N       E                     dE             d eps       ncg     rms          rms(c)
RMM:   1    -0.413226181302E+03   -0.16018E-01   -0.68143E+00  4315   0.830E-01    0.973E-01
RMM:   2    -0.413220872117E+03    0.53092E-02   -0.10063E-01  4275   0.115E-01    0.711E-01
RMM:   3    -0.413216807627E+03    0.40645E-02   -0.57573E-02  4986   0.101E-01    0.324E-01
RMM:   4    -0.413241145504E+03   -0.24338E-01   -0.36819E-02  5081   0.164E-01    0.709E-01
RMM:   5    -0.413212363742E+03    0.28782E-01   -0.13737E-02  4743   0.119E-01    0.478E-02
RMM:   6    -0.413212441617E+03   -0.77875E-04   -0.23081E-03  5781   0.449E-02    0.297E-02
RMM:   7    -0.413212464043E+03   -0.22427E-04   -0.27556E-04  5654   0.161E-02    0.189E-02
RMM:   8    -0.413212470617E+03   -0.65735E-05   -0.69175E-05  5055   0.854E-03    0.108E-02
RMM:   9    -0.413212464506E+03    0.61109E-05   -0.16282E-05  4224   0.480E-03    0.548E-03
RMM:  10    -0.413212462470E+03    0.20364E-05   -0.26343E-06  2648   0.251E-03    0.323E-03
RMM:  11    -0.413212460204E+03    0.22655E-05   -0.12113E-06  2505   0.172E-03    0.182E-03
RMM:  12    -0.413212454497E+03    0.57073E-05   -0.12563E-06  2510   0.166E-03    0.947E-04
RMM:  13    -0.413212449921E+03    0.45757E-05   -0.48834E-07  2254   0.113E-03    0.610E-04
RMM:  14    -0.413212448282E+03    0.16394E-05   -0.20297E-07  1559   0.775E-04    0.316E-04
RMM:  15    -0.413212441204E+03    0.70776E-05   -0.19111E-07  1533   0.768E-04    0.320E-04
RMM:  16    -0.413212435454E+03    0.57504E-05   -0.12547E-07  1364   0.684E-04    0.319E-04
RMM:  17    -0.413212432282E+03    0.31719E-05   -0.70309E-08  1059   0.592E-04    0.217E-04
RMM:  18    -0.413212427132E+03    0.51497E-05   -0.70435E-08  1269   0.621E-04    0.129E-04
RMM:  19    -0.413212425477E+03    0.16548E-05   -0.36862E-08   936   0.549E-04    0.400E-05
RMM:  20    -0.413212424466E+03    0.10112E-05   -0.25435E-08   847   0.537E-04    0.569E-05
RMM:  21    -0.413212424082E+03    0.38409E-06   -0.14307E-08   716   0.516E-04
   41 T=    70. E= -.41286766E+03 F= -.41321242E+03 E0= -.41319135E+03  EK= 0.34477E+00 SP= 0.00E+00 SK= 0.00E+00
       N       E                     dE             d eps       ncg     rms          rms(c)
RMM:   1    -0.413237646896E+03   -0.25222E-01   -0.68867E+00  4316   0.940E-01    0.985E-01
RMM:   2    -0.413223468326E+03    0.14179E-01   -0.11486E-01  4295   0.124E-01    0.711E-01
RMM:   3    -0.413217239231E+03    0.62291E-02   -0.47244E-02  4919   0.846E-02    0.213E-01
RMM:   4    -0.413248869368E+03   -0.31630E-01   -0.37823E-02  5119   0.164E-01    0.760E-01
RMM:   5    -0.413215076979E+03    0.33792E-01   -0.16123E-02  4783   0.127E-01    0.496E-02
RMM:   6    -0.413215171729E+03   -0.94751E-04   -0.26934E-03  5797   0.486E-02    0.314E-02
RMM:   7    -0.413215211862E+03   -0.40133E-04   -0.31915E-04  5727   0.166E-02    0.191E-02
RMM:   8    -0.413215209773E+03    0.20892E-05   -0.54179E-05  5006   0.760E-03    0.101E-02
RMM:   9    -0.413215209788E+03   -0.15138E-07   -0.19857E-05  4461   0.485E-03    0.658E-03
RMM:  10    -0.413215205331E+03    0.44571E-05   -0.28855E-06  2645   0.270E-03    0.371E-03
RMM:  11    -0.413215202729E+03    0.26023E-05   -0.13036E-06  2500   0.184E-03    0.218E-03
RMM:  12    -0.413215196307E+03    0.64215E-05   -0.14061E-06  2495   0.187E-03    0.118E-03
RMM:  13    -0.413215192394E+03    0.39138E-05   -0.52363E-07  2353   0.127E-03    0.809E-04
RMM:  14    -0.413215191170E+03    0.12235E-05   -0.21713E-07  1805   0.835E-04    0.434E-04
RMM:  15    -0.413215186691E+03    0.44786E-05   -0.13583E-07  1464   0.730E-04    0.212E-04
RMM:  16    -0.413215181963E+03    0.47284E-05   -0.92075E-08  1304   0.666E-04    0.297E-04
RMM:  17    -0.413215178501E+03    0.34616E-05   -0.57473E-08  1067   0.595E-04    0.274E-04
RMM:  18    -0.413215172825E+03    0.56766E-05   -0.58946E-08  1197   0.613E-04    0.128E-04
RMM:  19    -0.413215170892E+03    0.19331E-05   -0.30593E-08   911   0.549E-04    0.625E-05
RMM:  20    -0.413215169903E+03    0.98912E-06   -0.22201E-08   839   0.536E-04
   42 T=    71. E= -.41286772E+03 F= -.41321517E+03 E0= -.41319413E+03  EK= 0.34745E+00 SP= 0.00E+00 SK= 0.00E+00
       N       E                     dE             d eps       ncg     rms          rms(c)
RMM:   1    -0.413232978044E+03   -0.17807E-01   -0.68599E+00  4316   0.934E-01    0.972E-01
RMM:   2    -0.413225858753E+03    0.71193E-02   -0.10271E-01  4368   0.119E-01    0.708E-01
RMM:   3    -0.413219955339E+03    0.59034E-02   -0.54058E-02  4913   0.899E-02    0.262E-01
RMM:   4    -0.413246791735E+03   -0.26836E-01   -0.34034E-02  5110   0.157E-01    0.715E-01
RMM:   5    -0.413217199577E+03    0.29592E-01   -0.14260E-02  4779   0.120E-01    0.480E-02
RMM:   6    -0.413217274057E+03   -0.74480E-04   -0.23628E-03  5772   0.457E-02    0.298E-02
RMM:   7    -0.413217310859E+03   -0.36802E-04   -0.31574E-04  5764   0.165E-02    0.193E-02
RMM:   8    -0.413217307575E+03    0.32842E-05   -0.66394E-05  5088   0.842E-03    0.108E-02
RMM:   9    -0.413217307696E+03   -0.12171E-06   -0.16155E-05  4225   0.478E-03    0.567E-03
RMM:  10    -0.413217305858E+03    0.18384E-05   -0.26908E-06  2634   0.255E-03    0.341E-03
RMM:  11    -0.413217304287E+03    0.15709E-05   -0.11460E-06  2499   0.171E-03    0.198E-03
RMM:  12    -0.413217299898E+03    0.43885E-05   -0.12544E-06  2507   0.173E-03    0.111E-03
RMM:  13    -0.413217296477E+03    0.34214E-05   -0.50874E-07  2314   0.118E-03    0.754E-04
RMM:  14    -0.413217295082E+03    0.13954E-05   -0.21365E-07  1686   0.802E-04    0.360E-04
RMM:  15    -0.413217291200E+03    0.38819E-05   -0.13996E-07  1328   0.717E-04    0.187E-04
RMM:  16    -0.413217286673E+03    0.45271E-05   -0.10856E-07  1334   0.688E-04    0.252E-04
RMM:  17    -0.413217283489E+03    0.31832E-05   -0.68933E-08  1102   0.619E-04    0.224E-04
RMM:  18    -0.413217279035E+03    0.44540E-05   -0.66058E-08  1242   0.622E-04    0.156E-04
RMM:  19    -0.413217276951E+03    0.20844E-05   -0.35044E-08   908   0.553E-04    0.521E-05
RMM:  20    -0.413217276345E+03    0.60628E-06   -0.21923E-08   786   0.533E-04
   43 T=    71. E= -.41286769E+03 F= -.41321728E+03 E0= -.41319626E+03  EK= 0.34958E+00 SP= 0.00E+00 SK= 0.00E+00
       N       E                     dE             d eps       ncg     rms          rms(c)
RMM:   1    -0.413239352651E+03   -0.22076E-01   -0.70425E+00  4316   0.105E+00    0.978E-01
RMM:   2    -0.413227173307E+03    0.12179E-01   -0.10447E-01  4388   0.132E-01    0.716E-01
RMM:   3    -0.413221861017E+03    0.53123E-02   -0.57210E-02  4921   0.984E-02    0.298E-01
RMM:   4    -0.413248727603E+03   -0.26867E-01   -0.36628E-02  5096   0.164E-01    0.727E-01
RMM:   5    -0.413218216839E+03    0.30511E-01   -0.14576E-02  4763   0.122E-01    0.486E-02
RMM:   6    -0.413218289361E+03   -0.72522E-04   -0.24212E-03  5767   0.459E-02    0.287E-02
RMM:   7    -0.413218325424E+03   -0.36063E-04   -0.28223E-04  5737   0.157E-02    0.173E-02
RMM:   8    -0.413218327327E+03   -0.19023E-05   -0.52406E-05  5013   0.753E-03    0.915E-03
RMM:   9    -0.413218329201E+03   -0.18747E-05   -0.17968E-05  4328   0.467E-03    0.581E-03
RMM:  10    -0.413218327374E+03    0.18272E-05   -0.27176E-06  2636   0.261E-03    0.338E-03
RMM:  11    -0.413218326484E+03    0.89013E-06   -0.12283E-06  2502   0.176E-03
   44 T=    71. E= -.41286749E+03 F= -.41321833E+03 E0= -.41319734E+03  EK= 0.35083E+00 SP= 0.00E+00 SK= 0.00E+00
       N       E                     dE             d eps       ncg     rms          rms(c)
RMM:   1    -0.413238142851E+03   -0.19815E-01   -0.69642E+00  4316   0.105E+00    0.995E-01
RMM:   2    -0.413228290849E+03    0.98520E-02   -0.10762E-01  4414   0.133E-01    0.717E-01
RMM:   3    -0.413222413196E+03    0.58777E-02   -0.51372E-02  4927   0.939E-02    0.252E-01
RMM:   4    -0.413252750603E+03   -0.30337E-01   -0.38875E-02  5101   0.168E-01    0.756E-01
RMM:   5    -0.413219455850E+03    0.33295E-01   -0.15617E-02  4772   0.126E-01    0.506E-02
RMM:   6    -0.413219531406E+03   -0.75555E-04   -0.26149E-03  5770   0.479E-02    0.302E-02
RMM:   7    -0.413219559661E+03   -0.28255E-04   -0.33517E-04  5816   0.169E-02    0.197E-02
RMM:   8    -0.413219555740E+03    0.39206E-05   -0.72885E-05  5123   0.885E-03    0.114E-02
RMM:   9    -0.413219552678E+03    0.30623E-05   -0.18272E-05  4385   0.507E-03    0.571E-03
RMM:  10    -0.413219547366E+03    0.53117E-05   -0.32543E-06  2701   0.273E-03    0.350E-03
RMM:  11    -0.413219543886E+03    0.34808E-05   -0.12410E-06  2500   0.181E-03    0.205E-03
RMM:  12    -0.413219535305E+03    0.85802E-05   -0.11584E-06  2496   0.173E-03    0.110E-03
RMM:  13    -0.413219529331E+03    0.59746E-05   -0.52065E-07  2326   0.120E-03    0.738E-04
RMM:  14    -0.413219526984E+03    0.23470E-05   -0.22288E-07  1741   0.822E-04    0.372E-04
RMM:  15    -0.413219520815E+03    0.61688E-05   -0.14670E-07  1393   0.734E-04    0.201E-04
RMM:  16    -0.413219513884E+03    0.69311E-05   -0.12606E-07  1602   0.719E-04    0.341E-04
RMM:  17    -0.413219510348E+03    0.35361E-05   -0.66226E-08  1074   0.592E-04    0.274E-04
RMM:  18    -0.413219504473E+03    0.58751E-05   -0.70732E-08  1342   0.631E-04    0.144E-04
RMM:  19    -0.413219502349E+03    0.21241E-05   -0.37348E-08   958   0.552E-04    0.589E-05
RMM:  20    -0.413219501623E+03    0.72546E-06   -0.24379E-08   847   0.531E-04
   45 T=    72. E= -.41286795E+03 F= -.41321950E+03 E0= -.41319853E+03  EK= 0.35155E+00 SP= 0.00E+00 SK= 0.00E+00
       N       E                     dE             d eps       ncg     rms          rms(c)
RMM:   1    -0.413236937138E+03   -0.17435E-01   -0.69186E+00  4316   0.112E+00    0.977E-01
RMM:   2    -0.413227528328E+03    0.94088E-02   -0.10807E-01  4444   0.141E-01    0.710E-01
RMM:   3    -0.413224315963E+03    0.32124E-02   -0.52300E-02  5006   0.109E-01    0.325E-01
RMM:   4    -0.413249179519E+03   -0.24864E-01   -0.41397E-02  5081   0.175E-01    0.723E-01
RMM:   5    -0.413218885866E+03    0.30294E-01   -0.13437E-02  4725   0.121E-01    0.507E-02
RMM:   6    -0.413218937950E+03   -0.52084E-04   -0.23073E-03  5739   0.452E-02    0.288E-02
RMM:   7    -0.413218969975E+03   -0.32026E-04   -0.25851E-04  5736   0.153E-02    0.173E-02
RMM:   8    -0.413218978068E+03   -0.80923E-05   -0.65133E-05  5127   0.819E-03    0.104E-02
RMM:   9    -0.413218970766E+03    0.73018E-05   -0.18283E-05  4380   0.495E-03    0.520E-03
RMM:  10    -0.413218968171E+03    0.25955E-05   -0.29706E-06  2661   0.264E-03    0.313E-03
RMM:  11    -0.413218965549E+03    0.26212E-05   -0.12600E-06  2499   0.182E-03    0.170E-03
RMM:  12    -0.413218960011E+03    0.55382E-05   -0.87691E-07  2484   0.151E-03    0.840E-04
RMM:  13    -0.413218955422E+03    0.45891E-05   -0.38450E-07  2161   0.103E-03    0.441E-04
RMM:  14    -0.413218953225E+03    0.21966E-05   -0.17518E-07  1431   0.744E-04    0.223E-04
RMM:  15    -0.413218947310E+03    0.59157E-05   -0.13788E-07  1291   0.716E-04    0.166E-04
RMM:  16    -0.413218943574E+03    0.37352E-05   -0.93955E-08  1253   0.665E-04    0.140E-04
RMM:  17    -0.413218940367E+03    0.32078E-05   -0.70046E-08  1204   0.626E-04    0.905E-05
RMM:  18    -0.413218936282E+03    0.40847E-05   -0.60449E-08  1235   0.611E-04    0.548E-05
RMM:  19    -0.413218934232E+03    0.20501E-05   -0.34345E-08   949   0.551E-04    0.379E-05
RMM:  20    -0.413218933896E+03    0.33599E-06   -0.16408E-08   726   0.517E-04
   46 T=    71. E= -.41286793E+03 F= -.41321893E+03 E0= -.41319798E+03  EK= 0.35101E+00 SP= 0.00E+00 SK= 0.00E+00
       N       E                     dE             d eps       ncg     rms          rms(c)
RMM:   1    -0.413238127368E+03   -0.19193E-01   -0.70217E+00  4316   0.125E+00    0.965E-01
RMM:   2    -0.413226620492E+03    0.11507E-01   -0.11474E-01  4459   0.157E-01    0.716E-01
RMM:   3    -0.413226024958E+03    0.59553E-03   -0.55624E-02  5032   0.125E-01    0.404E-01
RMM:   4    -0.413244433374E+03   -0.18408E-01   -0.42816E-02  5058   0.181E-01    0.687E-01
RMM:   5    -0.413217459825E+03    0.26974E-01   -0.11645E-02  4682   0.115E-01    0.501E-02
RMM:   6    -0.413217474310E+03   -0.14485E-04   -0.19958E-03  5689   0.424E-02    0.270E-02
RMM:   7    -0.413217499065E+03   -0.24755E-04   -0.24576E-04  5707   0.154E-02    0.179E-02
RMM:   8    -0.413217510337E+03   -0.11272E-04   -0.82526E-05  5121   0.942E-03    0.106E-02
RMM:   9    -0.413217504549E+03    0.57885E-05   -0.14004E-05  4070   0.491E-03    0.450E-03
RMM:  10    -0.413217503133E+03    0.14158E-05   -0.29862E-06  2706   0.248E-03    0.278E-03
RMM:  11    -0.413217501292E+03    0.18408E-05   -0.13012E-06  2510   0.175E-03    0.135E-03
RMM:  12    -0.413217497684E+03    0.36079E-05   -0.86599E-07  2428   0.142E-03    0.686E-04
RMM:  13    -0.413217494492E+03    0.31917E-05   -0.39948E-07  1947   0.992E-04    0.327E-04
RMM:  14    -0.413217492124E+03    0.23688E-05   -0.20501E-07  1424   0.765E-04    0.165E-04
RMM:  15    -0.413217487102E+03    0.50212E-05   -0.19861E-07  1460   0.767E-04    0.143E-04
RMM:  16    -0.413217484056E+03    0.30469E-05   -0.12940E-07  1351   0.681E-04    0.112E-04
RMM:  17    -0.413217480595E+03    0.34603E-05   -0.10349E-07  1333   0.648E-04    0.514E-05
RMM:  18    -0.413217477168E+03    0.34271E-05   -0.75403E-08  1193   0.609E-04    0.448E-05
RMM:  19    -0.413217476977E+03    0.19091E-06   -0.31888E-08   774   0.522E-04
   47 T=    71. E= -.41286808E+03 F= -.41321748E+03 E0= -.41319654E+03  EK= 0.34940E+00 SP= 0.00E+00 SK= 0.00E+00
       N       E                     dE             d eps       ncg     rms          rms(c)
RMM:   1    -0.413240302560E+03   -0.22825E-01   -0.69673E+00  4314   0.134E+00    0.982E-01
RMM:   2    -0.413223630257E+03    0.16672E-01   -0.11253E-01  4499   0.165E-01    0.713E-01
RMM:   3    -0.413226223366E+03   -0.25931E-02   -0.54959E-02  5063   0.136E-01    0.452E-01
RMM:   4    -0.413235746088E+03   -0.95227E-02   -0.39924E-02  5032   0.177E-01    0.605E-01
RMM:   5    -0.413214919548E+03    0.20827E-01   -0.83176E-03  4632   0.103E-01    0.498E-02
RMM:   6    -0.413214902387E+03    0.17161E-04   -0.14848E-03  5498   0.372E-02    0.264E-02
RMM:   7    -0.413214926712E+03   -0.24326E-04   -0.19363E-04  5669   0.139E-02    0.163E-02
RMM:   8    -0.413214935839E+03   -0.91268E-05   -0.80132E-05  5161   0.930E-03    0.106E-02
RMM:   9    -0.413214926324E+03    0.95156E-05   -0.13274E-05  4030   0.486E-03    0.414E-03
RMM:  10    -0.413214923349E+03    0.29751E-05   -0.30217E-06  2726   0.247E-03    0.249E-03
RMM:  11    -0.413214919542E+03    0.38067E-05   -0.12167E-06  2498   0.178E-03    0.122E-03
RMM:  12    -0.413214914538E+03    0.50039E-05   -0.62632E-07  2373   0.131E-03    0.653E-04
RMM:  13    -0.413214910455E+03    0.40833E-05   -0.28737E-07  1804   0.905E-04    0.289E-04
RMM:  14    -0.413214906648E+03    0.38071E-05   -0.16693E-07  1359   0.738E-04    0.154E-04
RMM:  15    -0.413214901648E+03    0.49999E-05   -0.13333E-07  1336   0.714E-04    0.114E-04
RMM:  16    -0.413214897809E+03    0.38392E-05   -0.97863E-08  1332   0.666E-04    0.839E-05
RMM:  17    -0.413214891986E+03    0.58222E-05   -0.95173E-08  1440   0.662E-04    0.567E-05
RMM:  18    -0.413214890296E+03    0.16906E-05   -0.41830E-08   929   0.541E-04    0.381E-05
RMM:  19    -0.413214889107E+03    0.11892E-05   -0.28117E-08   841   0.529E-04    0.176E-05
RMM:  20    -0.413214888502E+03    0.60498E-06   -0.18508E-08   743   0.511E-04
   48 T=    71. E= -.41286839E+03 F= -.41321489E+03 E0= -.41319396E+03  EK= 0.34649E+00 SP= 0.00E+00 SK= 0.00E+00
       N       E                     dE             d eps       ncg     rms          rms(c)
RMM:   1    -0.413236740266E+03   -0.21851E-01   -0.68482E+00  4311   0.145E+00    0.968E-01
RMM:   2    -0.413218419612E+03    0.18321E-01   -0.11351E-01  4562   0.176E-01    0.703E-01
RMM:   3    -0.413227268903E+03   -0.88493E-02   -0.56071E-02  5097   0.154E-01    0.552E-01
RMM:   4    -0.413224555071E+03    0.27138E-02   -0.39076E-02  4983   0.179E-01    0.510E-01
RMM:   5    -0.413209888182E+03    0.14667E-01   -0.55628E-03  4581   0.909E-02    0.494E-02
RMM:   6    -0.413209829411E+03    0.58771E-04   -0.87132E-04  5092   0.307E-02    0.257E-02
RMM:   7    -0.413209858245E+03   -0.28834E-04   -0.13473E-04  5536   0.122E-02    0.120E-02
RMM:   8    -0.413209863289E+03   -0.50446E-05   -0.47228E-05  5216   0.717E-03    0.856E-03
RMM:   9    -0.413209855115E+03    0.81741E-05   -0.11469E-05  3928   0.414E-03    0.376E-03
RMM:  10    -0.413209852330E+03    0.27848E-05   -0.19926E-06  2564   0.228E-03    0.225E-03
RMM:  11    -0.413209847354E+03    0.49766E-05   -0.11910E-06  2469   0.178E-03    0.121E-03
RMM:  12    -0.413209843257E+03    0.40968E-05   -0.51526E-07  2317   0.122E-03    0.687E-04
RMM:  13    -0.413209838553E+03    0.47043E-05   -0.26623E-07  1772   0.889E-04    0.323E-04
RMM:  14    -0.413209833837E+03    0.47158E-05   -0.15453E-07  1254   0.716E-04    0.175E-04
RMM:  15    -0.413209829099E+03    0.47377E-05   -0.12073E-07  1222   0.681E-04    0.119E-04
RMM:  16    -0.413209825485E+03    0.36142E-05   -0.89233E-08  1221   0.640E-04    0.900E-05
RMM:  17    -0.413209819789E+03    0.56963E-05   -0.89614E-08  1347   0.644E-04    0.584E-05
RMM:  18    -0.413209818343E+03    0.14457E-05   -0.36365E-08   818   0.516E-04    0.439E-05
RMM:  19    -0.413209816754E+03    0.15892E-05   -0.30127E-08   793   0.515E-04    0.189E-05
RMM:  20    -0.413209816153E+03    0.60054E-06   -0.17939E-08   679   0.495E-04
   49 T=    70. E= -.41286809E+03 F= -.41320982E+03 E0= -.41318889E+03  EK= 0.34172E+00 SP= 0.00E+00 SK= 0.00E+00
       N       E                     dE             d eps       ncg     rms          rms(c)
RMM:   1    -0.413230288071E+03   -0.20471E-01   -0.68000E+00  4311   0.155E+00    0.934E-01
RMM:   2    -0.413212672799E+03    0.17615E-01   -0.12544E-01  4644   0.188E-01    0.700E-01
RMM:   3    -0.413231090656E+03   -0.18418E-01   -0.59447E-02  5110   0.178E-01    0.684E-01
RMM:   4    -0.413215441079E+03    0.15650E-01   -0.44350E-02  4958   0.193E-01    0.455E-01
RMM:   5    -0.413203918492E+03    0.11523E-01   -0.49390E-03  4567   0.907E-02    0.527E-02
RMM:   6    -0.413203812834E+03    0.10566E-03   -0.58634E-04  4811   0.287E-02    0.260E-02
RMM:   7    -0.413203840504E+03   -0.27670E-04   -0.16938E-04  5734   0.144E-02    0.139E-02
RMM:   8    -0.413203836049E+03    0.44547E-05   -0.50521E-05  5153   0.802E-03    0.886E-03
RMM:   9    -0.413203833304E+03    0.27451E-05   -0.11492E-05  3979   0.433E-03    0.374E-03
RMM:  10    -0.413203830394E+03    0.29102E-05   -0.18554E-06  2585   0.224E-03    0.236E-03
RMM:  11    -0.413203826155E+03    0.42392E-05   -0.11772E-06  2500   0.175E-03    0.150E-03
RMM:  12    -0.413203823381E+03    0.27734E-05   -0.50326E-07  2312   0.118E-03    0.783E-04
RMM:  13    -0.413203819490E+03    0.38915E-05   -0.39710E-07  2200   0.991E-04    0.451E-04
RMM:  14    -0.413203815985E+03    0.35053E-05   -0.21639E-07  1441   0.755E-04    0.303E-04
RMM:  15    -0.413203811409E+03    0.45753E-05   -0.19837E-07  1354   0.727E-04    0.140E-04
RMM:  16    -0.413203808929E+03    0.24799E-05   -0.11778E-07  1265   0.646E-04    0.965E-05
RMM:  17    -0.413203804841E+03    0.40888E-05   -0.13220E-07  1417   0.666E-04    0.928E-05
RMM:  18    -0.413203803258E+03    0.15828E-05   -0.63626E-08   988   0.556E-04    0.674E-05
RMM:  19    -0.413203801989E+03    0.12690E-05   -0.42885E-08   901   0.531E-04    0.347E-05
RMM:  20    -0.413203801010E+03    0.97874E-06   -0.34151E-08   851   0.516E-04
   50 T=    68. E= -.41286840E+03 F= -.41320380E+03 E0= -.41318288E+03  EK= 0.33540E+00 SP= 0.00E+00 SK= 0.00E+00
       N       E                     dE             d eps       ncg     rms          rms(c)
RMM:   1    -0.413221502583E+03   -0.17701E-01   -0.66412E+00  4309   0.160E+00    0.937E-01
RMM:   2    -0.413203691436E+03    0.17811E-01   -0.12526E-01  4726   0.193E-01    0.696E-01
RMM:   3    -0.413230870503E+03   -0.27179E-01   -0.63308E-02  5133   0.196E-01    0.781E-01
RMM:   4    -0.413203236853E+03    0.27634E-01   -0.45428E-02  4934   0.199E-01    0.382E-01
RMM:   5    -0.413195200808E+03    0.80360E-02   -0.44874E-03  4738   0.898E-02    0.589E-02
RMM:   6    -0.413195044761E+03    0.15605E-03   -0.45659E-04  4654   0.285E-02    0.286E-02
[...]
RMM:  15    -0.413175476381E+03   -0.15228E-04   -0.25613E-06  2755   0.187E-03    0.648E-04
RMM:  16    -0.413175489031E+03   -0.12650E-04   -0.24089E-06  2535   0.160E-03    0.426E-04
RMM:  17    -0.413175498191E+03   -0.91598E-05   -0.17464E-06  2244   0.133E-03    0.273E-04
RMM:  18    -0.413175503769E+03   -0.55777E-05   -0.84739E-07  1882   0.101E-03    0.215E-04
RMM:  19    -0.413175507523E+03   -0.37543E-05   -0.40948E-07  1524   0.790E-04    0.132E-04
RMM:  20    -0.413175510659E+03   -0.31353E-05   -0.24451E-07  1370   0.696E-04    0.724E-05
RMM:  21    -0.413175512458E+03   -0.17998E-05   -0.13289E-07  1166   0.613E-04    0.558E-05
RMM:  22    -0.413175513410E+03   -0.95180E-06   -0.71988E-08  1019   0.568E-04
  139 T=    73. E= -.41281907E+03 F= -.41317551E+03 E0= -.41315315E+03  EK= 0.35644E+00 SP= 0.00E+00 SK= 0.00E+00
       N       E                     dE             d eps       ncg     rms          rms(c)
RMM:   1    -0.413176522114E+03   -0.10097E-02   -0.10015E+01  4290   0.368E+00    0.667E-01
RMM:   2    -0.413211549088E+03   -0.35027E-01   -0.48160E-01  5440   0.511E-01    0.819E-01
RMM:   3    -0.413197626256E+03    0.13923E-01   -0.34677E-02  5279   0.192E-01    0.690E-01
RMM:   4    -0.413194644437E+03    0.29818E-02   -0.58704E-03  5465   0.883E-02    0.565E-01
RMM:   5    -0.413196636065E+03   -0.19916E-02   -0.14394E-02  4531   0.149E-01    0.226E-01
RMM:   6    -0.413195975654E+03    0.66041E-03   -0.10961E-02  4987   0.125E-01    0.122E-01
RMM:   7    -0.413195248274E+03    0.72738E-03   -0.20131E-03  5204   0.569E-02    0.632E-02
RMM:   8    -0.413195152342E+03    0.95932E-04   -0.42820E-04  5767   0.233E-02    0.363E-02
RMM:   9    -0.413195102212E+03    0.50130E-04   -0.32945E-04  4821   0.189E-02    0.118E-02
RMM:  10    -0.413195102017E+03    0.19448E-06   -0.40500E-05  4851   0.722E-03    0.823E-03
RMM:  11    -0.413195105437E+03   -0.34200E-05   -0.97179E-06  3522   0.411E-03    0.397E-03
RMM:  12    -0.413195111948E+03   -0.65109E-05   -0.24902E-06  2708   0.251E-03    0.237E-03
RMM:  13    -0.413195122070E+03   -0.10121E-04   -0.19150E-06  2661   0.210E-03    0.121E-03
RMM:  14    -0.413195130967E+03   -0.88973E-05   -0.15137E-06  2599   0.171E-03    0.795E-04
RMM:  15    -0.413195139791E+03   -0.88245E-05   -0.14535E-06  2532   0.147E-03    0.530E-04
RMM:  16    -0.413195146485E+03   -0.66936E-05   -0.10215E-06  2122   0.117E-03    0.320E-04
RMM:  17    -0.413195153896E+03   -0.74106E-05   -0.12565E-06  2322   0.123E-03    0.292E-04
RMM:  18    -0.413195159112E+03   -0.52159E-05   -0.86210E-07  1721   0.971E-04    0.164E-04
RMM:  19    -0.413195161674E+03   -0.25627E-05   -0.35578E-07  1423   0.761E-04    0.951E-05
RMM:  20    -0.413195163594E+03   -0.19200E-05   -0.18801E-07  1220   0.666E-04    0.695E-05
RMM:  21    -0.413195165501E+03   -0.19072E-05   -0.13449E-07  1183   0.634E-04    0.604E-05
RMM:  22    -0.413195166242E+03   -0.74019E-06   -0.72205E-08  1005   0.580E-04
  140 T=    80. E= -.41280395E+03 F= -.41319517E+03 E0= -.41317290E+03  EK= 0.39121E+00 SP= 0.00E+00 SK= 0.00E+00
       N       E                     dE             d eps       ncg     rms          rms(c)
RMM:   1    -0.413145997488E+03    0.49168E-01   -0.79491E+00  4272   0.342E+00    0.712E-01
RMM:   2    -0.413135424936E+03    0.10573E-01   -0.33634E-01  5357   0.422E-01    0.478E-01
RMM:   3    -0.413170874522E+03   -0.35450E-01   -0.52882E-02  5318   0.231E-01    0.772E-01
RMM:   4    -0.413138552633E+03    0.32322E-01   -0.24287E-02  4994   0.165E-01    0.227E-01
RMM:   5    -0.413138557667E+03   -0.50340E-05   -0.83142E-03  5445   0.114E-01    0.128E-01
RMM:   6    -0.413138095327E+03    0.46234E-03   -0.15459E-03  4844   0.534E-02    0.363E-02
RMM:   7    -0.413138156680E+03   -0.61353E-04   -0.62988E-04  5949   0.267E-02    0.265E-02
RMM:   8    -0.413138165157E+03   -0.84774E-05   -0.10155E-04  5530   0.113E-02    0.158E-02
RMM:   9    -0.413138168068E+03   -0.29111E-05   -0.57427E-05  5403   0.872E-03    0.857E-03
RMM:  10    -0.413138174002E+03   -0.59339E-05   -0.19743E-05  4769   0.514E-03    0.598E-03
RMM:  11    -0.413138176381E+03   -0.23795E-05   -0.43903E-06  2984   0.317E-03    0.272E-03
RMM:  12    -0.413138178614E+03   -0.22328E-05   -0.25051E-06  2702   0.235E-03    0.169E-03
RMM:  13    -0.413138179726E+03   -0.11114E-05   -0.12250E-06  2505   0.168E-03    0.659E-04
RMM:  14    -0.413138179761E+03   -0.35339E-07   -0.61094E-07  2052   0.108E-03
  141 T=    64. E= -.41282364E+03 F= -.41313818E+03 E0= -.41311574E+03  EK= 0.31454E+00 SP= 0.00E+00 SK= 0.00E+00
       N       E                     dE             d eps       ncg     rms          rms(c)
RMM:   1    -0.412998910124E+03    0.13927E+00   -0.74122E+00  4280   0.333E+00    0.887E-01
RMM:   2    -0.412975895336E+03    0.23015E-01   -0.32028E-01  5441   0.475E-01    0.712E-01
RMM:   3    -0.413011260930E+03   -0.35366E-01   -0.76696E-02  5290   0.279E-01    0.967E-01
RMM:   4    -0.412972412781E+03    0.38848E-01   -0.30899E-02  4899   0.214E-01    0.281E-01
RMM:   5    -0.412972243694E+03    0.16909E-03   -0.13756E-02  5112   0.146E-01    0.125E-01
RMM:   6    -0.412971881960E+03    0.36173E-03   -0.21547E-03  5065   0.589E-02    0.528E-02
RMM:   7    -0.412971906341E+03   -0.24381E-04   -0.86839E-04  5689   0.322E-02    0.362E-02
RMM:   8    -0.412971900628E+03    0.57137E-05   -0.25219E-04  5245   0.183E-02    0.202E-02
RMM:   9    -0.412971911559E+03   -0.10931E-04   -0.61437E-05  4976   0.101E-02    0.103E-02
RMM:  10    -0.412971925916E+03   -0.14357E-04   -0.25149E-05  4735   0.592E-03    0.554E-03
RMM:  11    -0.412971934574E+03   -0.86582E-05   -0.67857E-06  3125   0.334E-03    0.336E-03
RMM:  12    -0.412971943082E+03   -0.85081E-05   -0.44665E-06  2913   0.293E-03    0.187E-03
RMM:  13    -0.412971946259E+03   -0.31770E-05   -0.23064E-06  2677   0.199E-03    0.111E-03
RMM:  14    -0.412971947122E+03   -0.86223E-06   -0.15271E-06  2444   0.148E-03
  142 T=    35. E= -.41280143E+03 F= -.41297195E+03 E0= -.41294941E+03  EK= 0.17052E+00 SP= 0.00E+00 SK= 0.00E+00
       N       E                     dE             d eps       ncg     rms          rms(c)
RMM:   1    -0.412916680196E+03    0.55266E-01   -0.29627E+00  4277   0.217E+00    0.381E-01
RMM:   2    -0.412921106430E+03   -0.44262E-02   -0.11583E-01  5399   0.250E-01    0.326E-01
RMM:   3    -0.412925120326E+03   -0.40139E-02   -0.13446E-02  5290   0.120E-01    0.395E-01
RMM:   4    -0.412920495229E+03    0.46251E-02   -0.54287E-03  4885   0.937E-02    0.143E-01
RMM:   5    -0.412920511828E+03   -0.16598E-04   -0.29181E-03  4765   0.711E-02    0.491E-02
RMM:   6    -0.412920447097E+03    0.64731E-04   -0.69733E-04  5048   0.325E-02    0.292E-02
RMM:   7    -0.412920409368E+03    0.37729E-04   -0.19657E-04  5224   0.167E-02    0.155E-02
RMM:   8    -0.412920418089E+03   -0.87211E-05   -0.37982E-05  4811   0.792E-03    0.886E-03
RMM:   9    -0.412920426160E+03   -0.80707E-05   -0.13706E-05  3736   0.465E-03    0.462E-03
RMM:  10    -0.412920431690E+03   -0.55304E-05   -0.49929E-06  3041   0.300E-03    0.272E-03
RMM:  11    -0.412920434984E+03   -0.32944E-05   -0.19969E-06  2646   0.210E-03    0.157E-03
RMM:  12    -0.412920437099E+03   -0.21143E-05   -0.15146E-06  2560   0.167E-03    0.784E-04
RMM:  13    -0.412920437357E+03   -0.25878E-06   -0.97895E-07  2182   0.124E-03
  143 T=    25. E= -.41279687E+03 F= -.41292044E+03 E0= -.41289803E+03  EK= 0.12356E+00 SP= 0.00E+00 SK= 0.00E+00
       N       E                     dE             d eps       ncg     rms          rms(c)
RMM:   1    -0.413052571187E+03   -0.13213E+00   -0.38109E+00  4264   0.257E+00    0.507E-01
RMM:   2    -0.413072141733E+03   -0.19571E-01   -0.22140E-01  5474   0.335E-01    0.509E-01
RMM:   3    -0.413070983195E+03    0.11585E-02   -0.22946E-02  5330   0.151E-01    0.474E-01
RMM:   4    -0.413068019288E+03    0.29639E-02   -0.89192E-03  5234   0.113E-01    0.244E-01
RMM:   5    -0.413068270566E+03   -0.25128E-03   -0.54873E-03  4771   0.101E-01    0.986E-02
RMM:   6    -0.413068142575E+03    0.12799E-03   -0.20086E-03  5142   0.546E-02    0.586E-02
RMM:   7    -0.413067974610E+03    0.16797E-03   -0.44831E-04  4939   0.276E-02    0.241E-02
RMM:   8    -0.413067970290E+03    0.43198E-05   -0.16812E-04  5871   0.147E-02    0.147E-02
RMM:   9    -0.413067969036E+03    0.12536E-05   -0.48277E-05  5231   0.788E-03    0.943E-03
RMM:  10    -0.413067966272E+03    0.27639E-05   -0.11860E-05  4082   0.452E-03    0.421E-03
RMM:  11    -0.413067966552E+03   -0.27969E-06   -0.64470E-06  3423   0.325E-03
  144 T=    53. E= -.41280964E+03 F= -.41306797E+03 E0= -.41304572E+03  EK= 0.25833E+00 SP= 0.00E+00 SK= 0.00E+00
       N       E                     dE             d eps       ncg     rms          rms(c)
RMM:   1    -0.413191269140E+03   -0.12330E+00   -0.74383E+00  4265   0.342E+00    0.611E-01
RMM:   2    -0.413236975821E+03   -0.45707E-01   -0.53048E-01  5485   0.509E-01    0.759E-01
RMM:   3    -0.413224658816E+03    0.12317E-01   -0.41504E-02  5324   0.204E-01    0.612E-01
RMM:   4    -0.413221506994E+03    0.31518E-02   -0.91690E-03  5387   0.112E-01    0.452E-01
RMM:   5    -0.413222579269E+03   -0.10723E-02   -0.82163E-03  4511   0.121E-01    0.218E-01
RMM:   6    -0.413222603606E+03   -0.24337E-04   -0.71278E-03  4916   0.106E-01    0.104E-01
RMM:   7    -0.413222102722E+03    0.50088E-03   -0.15655E-03  5185   0.501E-02    0.552E-02
RMM:   8    -0.413222043030E+03    0.59692E-04   -0.36170E-04  5824   0.221E-02    0.341E-02
RMM:   9    -0.413222006951E+03    0.36079E-04   -0.22206E-04  4549   0.166E-02    0.993E-03
RMM:  10    -0.413222011473E+03   -0.45218E-05   -0.47553E-05  5179   0.748E-03    0.746E-03
RMM:  11    -0.413222015675E+03   -0.42024E-05   -0.87441E-06  3468   0.393E-03    0.373E-03
RMM:  12    -0.413222022698E+03   -0.70227E-05   -0.24697E-06  2701   0.249E-03    0.211E-03
RMM:  13    -0.413222029807E+03   -0.71088E-05   -0.13066E-06  2581   0.170E-03    0.106E-03
RMM:  14    -0.413222037338E+03   -0.75310E-05   -0.11811E-06  2533   0.148E-03    0.697E-04
RMM:  15    -0.413222044573E+03   -0.72352E-05   -0.11317E-06  2296   0.130E-03    0.470E-04
RMM:  16    -0.413222050948E+03   -0.63753E-05   -0.10439E-06  2171   0.118E-03    0.320E-04
RMM:  17    -0.413222056503E+03   -0.55550E-05   -0.88777E-07  1987   0.106E-03    0.221E-04
RMM:  18    -0.413222060523E+03   -0.40203E-05   -0.60560E-07  1662   0.886E-04    0.139E-04
RMM:  19    -0.413222063246E+03   -0.27226E-05   -0.32981E-07  1410   0.747E-04    0.985E-05
RMM:  20    -0.413222065118E+03   -0.18719E-05   -0.17217E-07  1168   0.649E-04    0.565E-05
RMM:  21    -0.413222066304E+03   -0.11859E-05   -0.10044E-07  1061   0.600E-04    0.444E-05
RMM:  22    -0.413222067239E+03   -0.93538E-06   -0.62788E-08   983   0.576E-04
  145 T=    81. E= -.41282459E+03 F= -.41322207E+03 E0= -.41320019E+03  EK= 0.39748E+00 SP= 0.00E+00 SK= 0.00E+00
       N       E                     dE             d eps       ncg     rms          rms(c)
RMM:   1    -0.413165572201E+03    0.56494E-01   -0.75261E+00  4264   0.339E+00    0.457E-01
RMM:   2    -0.413190564270E+03   -0.24992E-01   -0.42717E-01  5450   0.433E-01    0.473E-01
RMM:   3    -0.413190688610E+03   -0.12434E-03   -0.26334E-02  5432   0.158E-01    0.472E-01
RMM:   4    -0.413187686026E+03    0.30026E-02   -0.47079E-03  5186   0.800E-02    0.340E-01
RMM:   5    -0.413189055259E+03   -0.13692E-02   -0.59853E-03  4666   0.100E-01    0.175E-01
RMM:   6    -0.413189006780E+03    0.48479E-04   -0.40293E-03  4689   0.854E-02    0.732E-02
RMM:   7    -0.413188875826E+03    0.13095E-03   -0.90778E-04  5570   0.359E-02    0.465E-02
RMM:   8    -0.413188822407E+03    0.53419E-04   -0.19658E-04  5682   0.161E-02    0.262E-02
RMM:   9    -0.413188807749E+03    0.14657E-04   -0.96297E-05  4735   0.109E-02    0.104E-02
RMM:  10    -0.413188812589E+03   -0.48402E-05   -0.38477E-05  4879   0.672E-03    0.549E-03
RMM:  11    -0.413188818213E+03   -0.56233E-05   -0.70384E-06  3146   0.334E-03    0.327E-03
RMM:  12    -0.413188824489E+03   -0.62762E-05   -0.21583E-06  2661   0.226E-03    0.196E-03
RMM:  13    -0.413188831129E+03   -0.66400E-05   -0.11415E-06  2547   0.161E-03    0.994E-04
RMM:  14    -0.413188838027E+03   -0.68976E-05   -0.10418E-06  2478   0.138E-03    0.707E-04
RMM:  15    -0.413188843935E+03   -0.59084E-05   -0.84873E-07  2154   0.116E-03    0.435E-04
RMM:  16    -0.413188849408E+03   -0.54734E-05   -0.80047E-07  2073   0.108E-03    0.288E-04
RMM:  17    -0.413188854413E+03   -0.50050E-05   -0.70080E-07  1875   0.957E-04    0.217E-04
RMM:  18    -0.413188859064E+03   -0.46505E-05   -0.61618E-07  1671   0.890E-04    0.120E-04
RMM:  19    -0.413188860764E+03   -0.16998E-05   -0.22753E-07  1233   0.677E-04    0.815E-05
RMM:  20    -0.413188862539E+03   -0.17753E-05   -0.13522E-07  1106   0.624E-04    0.467E-05
RMM:  21    -0.413188863584E+03   -0.10448E-05   -0.76818E-08  1010   0.587E-04    0.326E-05
RMM:  22    -0.413188864250E+03   -0.66655E-06   -0.46640E-08   945   0.566E-04
  146 T=    76. E= -.41281603E+03 F= -.41318886E+03 E0= -.41316729E+03  EK= 0.37283E+00 SP= 0.00E+00 SK= 0.00E+00
       N       E                     dE             d eps       ncg     rms          rms(c)
RMM:   1    -0.413020036008E+03    0.16883E+00   -0.59044E+00  4274   0.309E+00    0.715E-01
RMM:   2    -0.413024159859E+03   -0.41239E-02   -0.28575E-01  5411   0.395E-01    0.519E-01
RMM:   3    -0.413026629750E+03   -0.24699E-02   -0.17934E-02  5023   0.140E-01    0.231E-01
RMM:   4    -0.413034949541E+03   -0.83198E-02   -0.13647E-02  5342   0.124E-01    0.373E-01
RMM:   5    -0.413027697363E+03    0.72522E-02   -0.61993E-03  5145   0.848E-02    0.134E-01
RMM:   6    -0.413026950294E+03    0.74707E-03   -0.22864E-03  5361   0.585E-02    0.299E-02
RMM:   7    -0.413027007328E+03   -0.57034E-04   -0.56496E-04  6078   0.249E-02    0.300E-02
RMM:   8    -0.413026984638E+03    0.22690E-04   -0.10432E-04  5116   0.120E-02    0.161E-02
RMM:   9    -0.413026990638E+03   -0.59999E-05   -0.53653E-05  5445   0.871E-03    0.681E-03
RMM:  10    -0.413026997954E+03   -0.73157E-05   -0.14932E-05  4323   0.453E-03    0.574E-03
RMM:  11    -0.413027000950E+03   -0.29964E-05   -0.22999E-06  2672   0.254E-03    0.281E-03
RMM:  12    -0.413027002669E+03   -0.17185E-05   -0.13385E-06  2526   0.179E-03    0.121E-03
RMM:  13    -0.413027004655E+03   -0.19858E-05   -0.83675E-07  2277   0.142E-03    0.537E-04
RMM:  14    -0.413027006375E+03   -0.17207E-05   -0.53244E-07  2051   0.112E-03    0.252E-04
RMM:  15    -0.413027007525E+03   -0.11498E-05   -0.32041E-07  1685   0.901E-04    0.207E-04
RMM:  16    -0.413027008237E+03   -0.71192E-06   -0.19101E-07  1409   0.752E-04
  147 T=    44. E= -.41280882E+03 F= -.41302701E+03 E0= -.41300553E+03  EK= 0.21819E+00 SP= 0.00E+00 SK= 0.00E+00
       N       E                     dE             d eps       ncg     rms          rms(c)
RMM:   1    -0.412892838199E+03    0.13417E+00   -0.23495E+00  4272   0.203E+00    0.356E-01
RMM:   2    -0.412900630650E+03   -0.77925E-02   -0.10988E-01  5438   0.240E-01    0.288E-01
RMM:   3    -0.412906851955E+03   -0.62213E-02   -0.14449E-02  5428   0.118E-01    0.419E-01
RMM:   4    -0.412900916134E+03    0.59358E-02   -0.38991E-03  4878   0.757E-02    0.149E-01
RMM:   5    -0.412901740994E+03   -0.82486E-03   -0.51078E-03  5329   0.830E-02    0.958E-02
RMM:   6    -0.412901126575E+03    0.61442E-03   -0.16251E-03  5014   0.489E-02    0.330E-02
RMM:   7    -0.412901128508E+03   -0.19331E-05   -0.32293E-04  5833   0.204E-02    0.221E-02
RMM:   8    -0.412901126300E+03    0.22075E-05   -0.40368E-05  5081   0.713E-03    0.119E-02
RMM:   9    -0.412901135976E+03   -0.96762E-05   -0.24305E-05  4497   0.605E-03    0.481E-03
RMM:  10    -0.412901137112E+03   -0.11354E-05   -0.32637E-06  2778   0.249E-03    0.298E-03
RMM:  11    -0.412901139060E+03   -0.19478E-05   -0.16871E-06  2580   0.200E-03    0.146E-03
RMM:  12    -0.412901140987E+03   -0.19269E-05   -0.68082E-07  2468   0.140E-03    0.898E-04
RMM:  13    -0.412901142861E+03   -0.18749E-05   -0.41940E-07  1903   0.983E-04    0.448E-04
RMM:  14    -0.412901144202E+03   -0.13405E-05   -0.26683E-07  1640   0.819E-04    0.263E-04
RMM:  15    -0.412901145520E+03   -0.13178E-05   -0.22375E-07  1596   0.754E-04    0.147E-04
RMM:  16    -0.412901146225E+03   -0.70481E-06   -0.13956E-07  1306   0.644E-04
  148 T=    22. E= -.41279382E+03 F= -.41290115E+03 E0= -.41287970E+03  EK= 0.10733E+00 SP= 0.00E+00 SK= 0.00E+00
       N       E                     dE             d eps       ncg     rms          rms(c)
RMM:   1    -0.412994260077E+03   -0.93115E-01   -0.25075E+00  4273   0.178E+00    0.733E-01
RMM:   2    -0.413016465064E+03   -0.22205E-01   -0.13565E-01  5374   0.320E-01    0.790E-01
RMM:   3    -0.413006079712E+03    0.10385E-01   -0.29438E-02  5180   0.180E-01    0.663E-01
RMM:   4    -0.413000548098E+03    0.55316E-02   -0.23664E-02  5270   0.179E-01    0.319E-01
RMM:   5    -0.412999733208E+03    0.81489E-03   -0.13154E-02  4606   0.144E-01    0.137E-01
RMM:   6    -0.412999027310E+03    0.70590E-03   -0.30295E-03  4998   0.703E-02    0.681E-02
RMM:   7    -0.412998854575E+03    0.17274E-03   -0.39377E-04  5079   0.273E-02    0.368E-02
RMM:   8    -0.412998821788E+03    0.32786E-04   -0.13530E-04  4874   0.134E-02    0.190E-02
RMM:   9    -0.412998816116E+03    0.56719E-05   -0.10082E-04  4849   0.104E-02    0.884E-03
RMM:  10    -0.412998817023E+03   -0.90721E-06   -0.16782E-05  4234   0.484E-03    0.492E-03
RMM:  11    -0.412998821277E+03   -0.42533E-05   -0.66090E-06  3367   0.342E-03    0.292E-03
RMM:  12    -0.412998828315E+03   -0.70381E-05   -0.20503E-06  2653   0.237E-03    0.180E-03
RMM:  13    -0.412998834591E+03   -0.62756E-05   -0.11419E-06  2548   0.159E-03    0.107E-03
RMM:  14    -0.412998840543E+03   -0.59522E-05   -0.85926E-07  2351   0.124E-03    0.521E-04
RMM:  15    -0.412998847465E+03   -0.69224E-05   -0.10285E-06  2331   0.122E-03    0.373E-04
RMM:  16    -0.412998854294E+03   -0.68287E-05   -0.11407E-06  2201   0.120E-03    0.254E-04
RMM:  17    -0.412998857832E+03   -0.35376E-05   -0.49920E-07  1616   0.847E-04    0.183E-04
RMM:  18    -0.412998862217E+03   -0.43857E-05   -0.45917E-07  1638   0.824E-04    0.132E-04
RMM:  19    -0.412998864569E+03   -0.23513E-05   -0.22262E-07  1272   0.680E-04    0.706E-05
RMM:  20    -0.412998866479E+03   -0.19104E-05   -0.12433E-07  1109   0.618E-04    0.461E-05
RMM:  21    -0.412998867611E+03   -0.11320E-05   -0.67712E-08   984   0.579E-04    0.357E-05
RMM:  22    -0.412998867851E+03   -0.24036E-06   -0.29515E-08   839   0.546E-04
  149 T=    38. E= -.41281120E+03 F= -.41299887E+03 E0= -.41297748E+03  EK= 0.18767E+00 SP= 0.00E+00 SK= 0.00E+00
       N       E                     dE             d eps       ncg     rms          rms(c)
RMM:   1    -0.413100313783E+03   -0.10145E+00   -0.57700E+00  4273   0.244E+00    0.997E-01
RMM:   2    -0.413139997932E+03   -0.39684E-01   -0.30239E-01  5335   0.456E-01    0.111E+00
RMM:   3    -0.413118233415E+03    0.21765E-01   -0.50771E-02  5146   0.238E-01    0.921E-01
RMM:   4    -0.413108055794E+03    0.10178E-01   -0.35338E-02  5265   0.219E-01    0.495E-01
RMM:   5    -0.413107907126E+03    0.14867E-03   -0.28625E-02  4593   0.202E-01    0.209E-01
RMM:   6    -0.413106191438E+03    0.17157E-02   -0.66073E-03  4823   0.104E-01    0.105E-01
RMM:   7    -0.413105742239E+03    0.44920E-03   -0.78787E-04  4718   0.412E-02    0.535E-02
RMM:   8    -0.413105691564E+03    0.50675E-04   -0.28182E-04  4981   0.194E-02    0.264E-02
RMM:   9    -0.413105685104E+03    0.64602E-05   -0.16335E-04  5070   0.133E-02    0.898E-03
RMM:  10    -0.413105683870E+03    0.12333E-05   -0.25466E-05  4639   0.565E-03    0.532E-03
RMM:  11    -0.413105684588E+03   -0.71753E-06   -0.63006E-06  3135   0.333E-03
  150 T=    61. E= -.41280445E+03 F= -.41310568E+03 E0= -.41308433E+03  EK= 0.30123E+00 SP= 0.00E+00 SK= 0.00E+00
