       N       E                     dE             d eps       ncg     rms          rms(c)
RMM:   1     0.220073219755E+04    0.22007E+04   -0.52445E+04  2132   0.654E+02
RMM:   2     0.705251326439E+03   -0.14955E+04   -0.16260E+04  2132   0.177E+02
RMM:   3     0.137701216665E+03   -0.56755E+03   -0.65700E+03  2132   0.117E+02
RMM:   4    -0.159092210085E+03   -0.29679E+03   -0.27834E+03  2132   0.936E+01
RMM:   5    -0.287474173311E+03   -0.12838E+03   -0.11441E+03  2132   0.595E+01
RMM:   6    -0.349828566938E+03   -0.62354E+02   -0.55174E+02  2132   0.423E+01
RMM:   7    -0.382759864712E+03   -0.32931E+02   -0.30460E+02  2132   0.293E+01
RMM:   8    -0.404295082638E+03   -0.21535E+02   -0.18437E+02  2132   0.234E+01
RMM:   9    -0.436006397232E+03   -0.31711E+02   -0.30644E+02  6105   0.173E+01
RMM:  10    -0.441284583200E+03   -0.52782E+01   -0.63017E+01  6391   0.538E+00
RMM:  11    -0.442492620388E+03   -0.12080E+01   -0.11097E+01  6217   0.173E+00
RMM:  12    -0.442869087936E+03   -0.37647E+00   -0.26034E+00  6374   0.601E-01    0.134E+02
RMM:  13    -0.425597214326E+03    0.17272E+02   -0.80847E+01  4680   0.119E+01    0.712E+01
RMM:  14    -0.499371298201E+03   -0.73774E+02   -0.54061E+02  5418   0.232E+01    0.307E+01
RMM:  15    -0.414055010384E+03    0.85316E+02   -0.19424E+02  5055   0.162E+01    0.596E+00
RMM:  16    -0.414071187882E+03   -0.16177E-01   -0.39101E+01  6071   0.602E+00    0.428E+00
RMM:  17    -0.413233900261E+03    0.83729E+00   -0.22572E+00  5344   0.179E+00    0.248E+00
RMM:  18    -0.413161993424E+03    0.71907E-01   -0.92577E-01  5933   0.998E-01    0.157E+00
RMM:  19    -0.413166914080E+03   -0.49207E-02   -0.29741E-01  5767   0.572E-01    0.851E-01
RMM:  20    -0.413179742689E+03   -0.12829E-01   -0.17417E-01  5278   0.467E-01    0.495E-01
RMM:  21    -0.413167156129E+03    0.12587E-01   -0.32014E-02  5023   0.212E-01    0.245E-01
RMM:  22    -0.413165871165E+03    0.12850E-02   -0.13076E-02  6150   0.929E-02    0.153E-01
RMM:  23    -0.413164242386E+03    0.16288E-02   -0.51491E-03  5786   0.656E-02    0.816E-02
RMM:  24    -0.413162856566E+03    0.13858E-02   -0.22254E-03  5766   0.459E-02    0.352E-02
RMM:  25    -0.413162709043E+03    0.14752E-03   -0.76087E-04  5685   0.232E-02    0.272E-02
RMM:  26    -0.413162937970E+03   -0.22893E-03   -0.50755E-04  5777   0.241E-02    0.284E-02
RMM:  27    -0.413163350233E+03   -0.41226E-03   -0.17947E-04  4557   0.189E-02    0.143E-02
RMM:  28    -0.413163817378E+03   -0.46714E-03   -0.16631E-04  5233   0.188E-02    0.931E-03
RMM:  29    -0.413164174397E+03   -0.35702E-03   -0.95440E-05  4357   0.143E-02    0.381E-03
RMM:  30    -0.413164391113E+03   -0.21672E-03   -0.76400E-05  4134   0.972E-03    0.255E-03
RMM:  31    -0.413164488733E+03   -0.97620E-04   -0.42235E-05  3107   0.558E-03    0.195E-03
RMM:  32    -0.413164514908E+03   -0.26176E-04   -0.17900E-05  2926   0.287E-03    0.981E-04
RMM:  33    -0.413164523130E+03   -0.82215E-05   -0.79994E-06  2754   0.189E-03    0.631E-04
RMM:  34    -0.413164525740E+03   -0.26099E-05   -0.37192E-06  2517   0.138E-03    0.681E-04
RMM:  35    -0.413164525615E+03    0.12489E-06   -0.17984E-06  1733   0.953E-04
    1 T=    61. E= -.41286673E+03 F= -.41316453E+03 E0= -.41314203E+03  EK= 0.29780E+00 SP= 0.00E+00 SK= 0.00E+00
       N       E                     dE             d eps       ncg     rms          rms(c)
RMM:   1    -0.413157092763E+03    0.74330E-02   -0.10557E+01  3998   0.679E-01    0.885E-01
RMM:   2    -0.413166650186E+03   -0.95574E-02   -0.12943E-01  3891   0.972E-02    0.643E-01
RMM:   3    -0.413164565798E+03    0.20844E-02   -0.84821E-03  4879   0.429E-02    0.142E-01
RMM:   4    -0.413194560787E+03   -0.29995E-01   -0.31779E-02  5213   0.148E-01    0.721E-01
RMM:   5    -0.413164014525E+03    0.30546E-01   -0.14987E-02  4839   0.122E-01    0.420E-02
RMM:   6    -0.413164201066E+03   -0.18654E-03   -0.24943E-03  5836   0.480E-02    0.254E-02
RMM:   7    -0.413164219035E+03   -0.17969E-04   -0.34842E-04  5883   0.162E-02    0.171E-02
RMM:   8    -0.413164223440E+03   -0.44049E-05   -0.59584E-05  5068   0.759E-03    0.865E-03
RMM:   9    -0.413164226061E+03   -0.26210E-05   -0.12910E-05  3842   0.391E-03    0.604E-03
RMM:  10    -0.413164231243E+03   -0.51815E-05   -0.22814E-06  2616   0.203E-03    0.400E-03
RMM:  11    -0.413164238050E+03   -0.68077E-05   -0.17751E-06  2561   0.191E-03    0.186E-03
RMM:  12    -0.413164244586E+03   -0.65353E-05   -0.13907E-06  2518   0.167E-03    0.680E-04
RMM:  13    -0.413164245536E+03   -0.94979E-06   -0.50246E-07  2176   0.107E-03
    2 T=    61. E= -.41286650E+03 F= -.41316425E+03 E0= -.41314174E+03  EK= 0.29774E+00 SP= 0.00E+00 SK= 0.00E+00
       N       E                     dE             d eps       ncg     rms          rms(c)
RMM:   1    -0.413158068101E+03    0.61765E-02   -0.10582E+01  4193   0.681E-01    0.908E-01
RMM:   2    -0.413166616016E+03   -0.85479E-02   -0.12713E-01  3907   0.954E-02    0.637E-01
RMM:   3    -0.413164912384E+03    0.17036E-02   -0.85450E-03  4813   0.389E-02    0.144E-01
RMM:   4    -0.413187258618E+03   -0.22346E-01   -0.22688E-02  5185   0.126E-01    0.624E-01
RMM:   5    -0.413164644191E+03    0.22614E-01   -0.11056E-02  4839   0.104E-01    0.393E-02
RMM:   6    -0.413164784367E+03   -0.14018E-03   -0.18377E-03  5821   0.413E-02    0.250E-02
RMM:   7    -0.413164789456E+03   -0.50887E-05   -0.27348E-04  5793   0.151E-02    0.159E-02
RMM:   8    -0.413164786479E+03    0.29767E-05   -0.46493E-05  4919   0.704E-03    0.763E-03
RMM:   9    -0.413164785539E+03    0.94021E-06   -0.93031E-06  3512   0.348E-03
    3 T=    61. E= -.41286681E+03 F= -.41316479E+03 E0= -.41314229E+03  EK= 0.29798E+00 SP= 0.00E+00 SK= 0.00E+00
       N       E                     dE             d eps       ncg     rms          rms(c)
RMM:   1    -0.413157610332E+03    0.71761E-02   -0.10498E+01  4227   0.682E-01    0.892E-01
RMM:   2    -0.413166374497E+03   -0.87642E-02   -0.12626E-01  4351   0.940E-02    0.631E-01
RMM:   3    -0.413172297029E+03   -0.59225E-02   -0.14527E-02  5199   0.874E-02    0.396E-01
RMM:   4    -0.413182499924E+03   -0.10203E-01   -0.34492E-02  5099   0.161E-01    0.559E-01
RMM:   5    -0.413164621953E+03    0.17878E-01   -0.64318E-03  4659   0.937E-02    0.558E-02
RMM:   6    -0.413164553321E+03    0.68632E-04   -0.12129E-03  5339   0.354E-02    0.248E-02
RMM:   7    -0.413164570093E+03   -0.16772E-04   -0.25127E-04  5990   0.155E-02    0.157E-02
RMM:   8    -0.413164569180E+03    0.91312E-06   -0.47787E-05  5243   0.775E-03    0.669E-03
RMM:   9    -0.413164568502E+03    0.67778E-06   -0.10337E-05  3832   0.400E-03    0.364E-03
RMM:  10    -0.413164569468E+03   -0.96596E-06   -0.12256E-06  2525   0.193E-03
    4 T=    61. E= -.41286661E+03 F= -.41316457E+03 E0= -.41314208E+03  EK= 0.29796E+00 SP= 0.00E+00 SK= 0.00E+00
       N       E                     dE             d eps       ncg     rms          rms(c)
RMM:   1    -0.413157461790E+03    0.71067E-02   -0.10545E+01  4237   0.689E-01    0.883E-01
RMM:   2    -0.413166911200E+03   -0.94494E-02   -0.12952E-01  3868   0.917E-02    0.642E-01
RMM:   3    -0.413164916748E+03    0.19945E-02   -0.83330E-03  4895   0.387E-02    0.137E-01
RMM:   4    -0.413190463532E+03   -0.25547E-01   -0.26110E-02  5170   0.135E-01    0.667E-01
RMM:   5    -0.413164526188E+03    0.25937E-01   -0.12570E-02  4827   0.111E-01    0.405E-02
RMM:   6    -0.413164686766E+03   -0.16058E-03   -0.20980E-03  5793   0.440E-02    0.248E-02
RMM:   7    -0.413164700277E+03   -0.13511E-04   -0.29746E-04  5868   0.149E-02    0.155E-02
RMM:   8    -0.413164704691E+03   -0.44147E-05   -0.41197E-05  4814   0.648E-03    0.686E-03
RMM:   9    -0.413164708221E+03   -0.35301E-05   -0.91167E-06  3406   0.332E-03    0.520E-03
RMM:  10    -0.413164712495E+03   -0.42735E-05   -0.15001E-06  2556   0.187E-03    0.342E-03
RMM:  11    -0.413164718402E+03   -0.59073E-05   -0.13661E-06  2546   0.176E-03    0.154E-03
RMM:  12    -0.413164723470E+03   -0.50680E-05   -0.11314E-06  2499   0.153E-03    0.669E-04
RMM:  13    -0.413164723822E+03   -0.35224E-06   -0.32778E-07  2001   0.953E-04
    5 T=    61. E= -.41286664E+03 F= -.41316472E+03 E0= -.41314225E+03  EK= 0.29809E+00 SP= 0.00E+00 SK= 0.00E+00
       N       E                     dE             d eps       ncg     rms          rms(c)
RMM:   1    -0.413158352327E+03    0.63711E-02   -0.10586E+01  4253   0.694E-01    0.904E-01
RMM:   2    -0.413167056941E+03   -0.87046E-02   -0.12742E-01  4020   0.966E-02    0.639E-01
RMM:   3    -0.413165432766E+03    0.16242E-02   -0.84718E-03  4759   0.414E-02    0.143E-01
RMM:   4    -0.413188733201E+03   -0.23300E-01   -0.23590E-02  5162   0.128E-01    0.639E-01
RMM:   5    -0.413165057798E+03    0.23675E-01   -0.11614E-02  4829   0.106E-01    0.394E-02
RMM:   6    -0.413165200617E+03   -0.14282E-03   -0.19158E-03  5828   0.418E-02    0.250E-02
RMM:   7    -0.413165205021E+03   -0.44039E-05   -0.27838E-04  5795   0.150E-02    0.160E-02
RMM:   8    -0.413165201640E+03    0.33802E-05   -0.47063E-05  4912   0.706E-03    0.773E-03
RMM:   9    -0.413165200204E+03    0.14363E-05   -0.94990E-06  3546   0.357E-03    0.582E-03
RMM:  10    -0.413165200712E+03   -0.50783E-06   -0.13885E-06  2542   0.192E-03
    6 T=    61. E= -.41286683E+03 F= -.41316520E+03 E0= -.41314274E+03  EK= 0.29837E+00 SP= 0.00E+00 SK= 0.00E+00
       N       E                     dE             d eps       ncg     rms          rms(c)
RMM:   1    -0.413158143463E+03    0.70567E-02   -0.10532E+01  4257   0.696E-01    0.900E-01
RMM:   2    -0.413166781974E+03   -0.86385E-02   -0.12653E-01  4174   0.961E-02    0.632E-01
RMM:   3    -0.413167026369E+03   -0.24439E-03   -0.99048E-03  5102   0.578E-02    0.235E-01
RMM:   4    -0.413202684776E+03   -0.35658E-01   -0.45302E-02  5135   0.178E-01    0.803E-01
RMM:   5    -0.413164816087E+03    0.37869E-01   -0.16943E-02  4777   0.133E-01    0.549E-02
RMM:   6    -0.413164944559E+03   -0.12847E-03   -0.27798E-03  5651   0.521E-02    0.255E-02
RMM:   7    -0.413164965031E+03   -0.20472E-04   -0.38808E-04  6028   0.164E-02    0.167E-02
RMM:   8    -0.413164963876E+03    0.11549E-05   -0.61854E-05  5266   0.801E-03    0.777E-03
RMM:   9    -0.413164960456E+03    0.34195E-05   -0.10938E-05  3514   0.367E-03    0.377E-03
RMM:  10    -0.413164960373E+03    0.83193E-07   -0.25144E-06  2610   0.218E-03
    7 T=    61. E= -.41286653E+03 F= -.41316496E+03 E0= -.41314251E+03  EK= 0.29843E+00 SP= 0.00E+00 SK= 0.00E+00
       N       E                     dE             d eps       ncg     rms          rms(c)
RMM:   1    -0.413158354631E+03    0.66058E-02   -0.10534E+01  4265   0.705E-01    0.882E-01
RMM:   2    -0.413167717922E+03   -0.93633E-02   -0.12898E-01  4156   0.958E-02    0.640E-01
RMM:   3    -0.413166883502E+03    0.83442E-03   -0.92031E-03  5087   0.523E-02    0.201E-01
RMM:   4    -0.413209901760E+03   -0.43018E-01   -0.49796E-02  5149   0.186E-01    0.868E-01
RMM:   5    -0.413165286151E+03    0.44616E-01   -0.20657E-02  4798   0.145E-01    0.524E-02
RMM:   6    -0.413165482129E+03   -0.19598E-03   -0.33523E-03  5734   0.565E-02    0.254E-02
RMM:   7    -0.413165507571E+03   -0.25442E-04   -0.44159E-04  6000   0.175E-02    0.179E-02
RMM:   8    -0.413165511443E+03   -0.38719E-05   -0.68995E-05  5244   0.815E-03    0.891E-03
RMM:   9    -0.413165511750E+03   -0.30642E-06   -0.13525E-05  3793   0.400E-03    0.476E-03
RMM:  10    -0.413165515130E+03   -0.33808E-05   -0.28094E-06  2625   0.221E-03    0.322E-03
RMM:  11    -0.413165518429E+03   -0.32990E-05   -0.11945E-06  2522   0.167E-03    0.164E-03
RMM:  12    -0.413165521709E+03   -0.32794E-05   -0.10416E-06  2510   0.149E-03    0.420E-04
RMM:  13    -0.413165522932E+03   -0.12233E-05   -0.46587E-07  2133   0.106E-03    0.352E-04
RMM:  14    -0.413165523098E+03   -0.16615E-06   -0.21562E-07  1591   0.791E-04
    8 T=    61. E= -.41286676E+03 F= -.41316552E+03 E0= -.41314309E+03  EK= 0.29876E+00 SP= 0.00E+00 SK= 0.00E+00
       N       E                     dE             d eps       ncg     rms          rms(c)
RMM:   1    -0.413163290944E+03    0.22320E-02   -0.10637E+01  4279   0.742E-01    0.899E-01
RMM:   2    -0.413167737993E+03   -0.44470E-02   -0.12890E-01  4137   0.974E-02    0.642E-01
RMM:   3    -0.413166044733E+03    0.16933E-02   -0.85617E-03  4882   0.417E-02    0.147E-01
RMM:   4    -0.413195862168E+03   -0.29817E-01   -0.30708E-02  5155   0.146E-01    0.720E-01
RMM:   5    -0.413165508534E+03    0.30354E-01   -0.14748E-02  4813   0.120E-01    0.428E-02
RMM:   6    -0.413165688377E+03   -0.17984E-03   -0.24325E-03  5791   0.473E-02    0.262E-02
RMM:   7    -0.413165696702E+03   -0.83253E-05   -0.33842E-04  5833   0.160E-02    0.170E-02
RMM:   8    -0.413165695156E+03    0.15466E-05   -0.51191E-05  4993   0.726E-03    0.814E-03
RMM:   9    -0.413165693831E+03    0.13245E-05   -0.10984E-05  3654   0.370E-03    0.581E-03
RMM:  10    -0.413165694566E+03   -0.73513E-06   -0.16209E-06  2554   0.195E-03
    9 T=    61. E= -.41286665E+03 F= -.41316569E+03 E0= -.41314329E+03  EK= 0.29905E+00 SP= 0.00E+00 SK= 0.00E+00
       N       E                     dE             d eps       ncg     rms          rms(c)
RMM:   1    -0.413159049513E+03    0.66443E-02   -0.10574E+01  4293   0.711E-01    0.907E-01
RMM:   2    -0.413167498217E+03   -0.84487E-02   -0.12681E-01  4248   0.962E-02    0.634E-01
RMM:   3    -0.413168120020E+03   -0.62180E-03   -0.10274E-02  5104   0.608E-02    0.248E-01
RMM:   4    -0.413201484900E+03   -0.33365E-01   -0.44309E-02  5127   0.176E-01    0.782E-01
RMM:   5    -0.413165630567E+03    0.35854E-01   -0.15865E-02  4760   0.130E-01    0.545E-02
RMM:   6    -0.413165747865E+03   -0.11730E-03   -0.26558E-03  5634   0.507E-02    0.257E-02
RMM:   7    -0.413165764432E+03   -0.16566E-04   -0.37313E-04  6004   0.162E-02    0.168E-02
RMM:   8    -0.413165762123E+03    0.23081E-05   -0.60763E-05  5257   0.799E-03    0.778E-03
RMM:   9    -0.413165757191E+03    0.49325E-05   -0.10514E-05  3482   0.365E-03    0.373E-03
RMM:  10    -0.413165755956E+03    0.12350E-05   -0.24140E-06  2598   0.216E-03    0.262E-03
RMM:  11    -0.413165754222E+03    0.17341E-05   -0.11274E-06  2513   0.166E-03    0.134E-03
RMM:  12    -0.413165752330E+03    0.18914E-05   -0.71415E-07  2450   0.132E-03    0.412E-04
RMM:  13    -0.413165751493E+03    0.83705E-06   -0.34350E-07  1972   0.950E-04
   10 T=    61. E= -.41286646E+03 F= -.41316575E+03 E0= -.41314337E+03  EK= 0.29929E+00 SP= 0.00E+00 SK= 0.00E+00
       N       E                     dE             d eps       ncg     rms          rms(c)
RMM:   1    -0.413162483141E+03    0.32692E-02   -0.10560E+01  4286   0.735E-01    0.883E-01
RMM:   2    -0.413168639994E+03   -0.61569E-02   -0.12769E-01  4200   0.964E-02    0.637E-01
RMM:   3    -0.413166881478E+03    0.17585E-02   -0.83444E-03  4861   0.423E-02    0.145E-01
RMM:   4    -0.413197308069E+03   -0.30427E-01   -0.31468E-02  5147   0.147E-01    0.727E-01
RMM:   5    -0.413166317143E+03    0.30991E-01   -0.15131E-02  4806   0.121E-01    0.424E-02
RMM:   6    -0.413166502363E+03   -0.18522E-03   -0.24769E-03  5789   0.476E-02    0.258E-02
RMM:   7    -0.413166512158E+03   -0.97957E-05   -0.33488E-04  5811   0.160E-02    0.169E-02
RMM:   8    -0.413166511170E+03    0.98813E-06   -0.54095E-05  5013   0.742E-03    0.839E-03
RMM:   9    -0.413166509928E+03    0.12418E-05   -0.11743E-05  3752   0.384E-03    0.598E-03
RMM:  10    -0.413166511117E+03   -0.11885E-05   -0.17931E-06  2567   0.200E-03    0.393E-03
RMM:  11    -0.413166512921E+03   -0.18040E-05   -0.17298E-06  2565   0.199E-03    0.170E-03
RMM:  12    -0.413166514067E+03   -0.11459E-05   -0.11278E-06  2501   0.162E-03    0.688E-04
RMM:  13    -0.413166514140E+03   -0.73658E-07   -0.34622E-07  2114   0.101E-03
   11 T=    61. E= -.41286678E+03 F= -.41316651E+03 E0= -.41314415E+03  EK= 0.29973E+00 SP= 0.00E+00 SK= 0.00E+00
       N       E                     dE             d eps       ncg     rms          rms(c)
RMM:   1    -0.413164237176E+03    0.22769E-02   -0.10654E+01  4292   0.753E-01    0.894E-01
RMM:   2    -0.413168569776E+03   -0.43326E-02   -0.13294E-01  4202   0.969E-02    0.645E-01
RMM:   3    -0.413166673562E+03    0.18962E-02   -0.83328E-03  4824   0.397E-02    0.145E-01
RMM:   4    -0.413192668644E+03   -0.25995E-01   -0.26682E-02  5147   0.136E-01    0.673E-01
RMM:   5    -0.413166265980E+03    0.26403E-01   -0.12964E-02  4811   0.112E-01    0.399E-02
RMM:   6    -0.413166429776E+03   -0.16380E-03   -0.21114E-03  5810   0.437E-02    0.247E-02
RMM:   7    -0.413166438646E+03   -0.88697E-05   -0.28756E-04  5790   0.152E-02    0.160E-02
RMM:   8    -0.413166437215E+03    0.14316E-05   -0.51433E-05  4962   0.730E-03    0.812E-03
RMM:   9    -0.413166435887E+03    0.13280E-05   -0.10658E-05  3688   0.375E-03    0.595E-03
RMM:  10    -0.413166437002E+03   -0.11158E-05   -0.15598E-06  2553   0.194E-03    0.391E-03
RMM:  11    -0.413166438604E+03   -0.16020E-05   -0.18403E-06  2586   0.206E-03    0.168E-03
RMM:  12    -0.413166439419E+03   -0.81512E-06   -0.96458E-07  2469   0.154E-03
   12 T=    61. E= -.41286649E+03 F= -.41316644E+03 E0= -.41314411E+03  EK= 0.29995E+00 SP= 0.00E+00 SK= 0.00E+00
       N       E                     dE             d eps       ncg     rms          rms(c)
RMM:   1    -0.413160439166E+03    0.59994E-02   -0.10614E+01  4290   0.725E-01    0.912E-01
RMM:   2    -0.413168617545E+03   -0.81784E-02   -0.12709E-01  4215   0.922E-02    0.636E-01
RMM:   3    -0.413167238573E+03    0.13790E-02   -0.86089E-03  4897   0.371E-02    0.148E-01
RMM:   4    -0.413192093561E+03   -0.24855E-01   -0.25445E-02  5144   0.133E-01    0.658E-01
RMM:   5    -0.413166863825E+03    0.25230E-01   -0.12397E-02  4812   0.109E-01    0.406E-02
RMM:   6    -0.413167010813E+03   -0.14699E-03   -0.20143E-03  5819   0.427E-02    0.250E-02
RMM:   7    -0.413167013340E+03   -0.25276E-05   -0.26701E-04  5810   0.150E-02    0.156E-02
RMM:   8    -0.413167007074E+03    0.62661E-05   -0.53671E-05  4964   0.739E-03    0.844E-03
RMM:   9    -0.413167001926E+03    0.51479E-05   -0.10524E-05  3732   0.378E-03    0.625E-03
RMM:  10    -0.413166999284E+03    0.26425E-05   -0.15006E-06  2550   0.197E-03    0.402E-03
RMM:  11    -0.413166995451E+03    0.38330E-05   -0.17085E-06  2560   0.202E-03    0.182E-03
RMM:  12    -0.413166991834E+03    0.36169E-05   -0.10254E-06  2482   0.159E-03    0.685E-04
RMM:  13    -0.413166991350E+03    0.48428E-06   -0.33651E-07  2088   0.990E-04
   13 T=    61. E= -.41286655E+03 F= -.41316699E+03 E0= -.41314469E+03  EK= 0.30044E+00 SP= 0.00E+00 SK= 0.00E+00
       N       E                     dE             d eps       ncg     rms          rms(c)
RMM:   1    -0.413160525714E+03    0.64661E-02   -0.10537E+01  4299   0.724E-01    0.887E-01
RMM:   2    -0.413169646208E+03   -0.91205E-02   -0.12828E-01  4224   0.931E-02    0.636E-01
RMM:   3    -0.413167932729E+03    0.17135E-02   -0.82563E-03  4860   0.382E-02    0.143E-01
RMM:   4    -0.413193302637E+03   -0.25370E-01   -0.26089E-02  5140   0.134E-01    0.665E-01
RMM:   5    -0.413167518227E+03    0.25784E-01   -0.12730E-02  4810   0.110E-01    0.396E-02
RMM:   6    -0.413167666593E+03   -0.14837E-03   -0.19929E-03  5813   0.429E-02    0.245E-02
RMM:   7    -0.413167672693E+03   -0.60998E-05   -0.27518E-04  5779   0.151E-02    0.157E-02
RMM:   8    -0.413167669223E+03    0.34702E-05   -0.51807E-05  4960   0.729E-03    0.799E-03
RMM:   9    -0.413167666314E+03    0.29083E-05   -0.10455E-05  3680   0.374E-03    0.584E-03
RMM:  10    -0.413167665941E+03    0.37380E-06   -0.14779E-06  2543   0.192E-03
   14 T=    61. E= -.41286670E+03 F= -.41316767E+03 E0= -.41314540E+03  EK= 0.30097E+00 SP= 0.00E+00 SK= 0.00E+00
       N       E                     dE             d eps       ncg     rms          rms(c)
RMM:   1    -0.413160579260E+03    0.70871E-02   -0.10625E+01  4303   0.735E-01    0.891E-01
RMM:   2    -0.413170156530E+03   -0.95773E-02   -0.13050E-01  4283   0.974E-02    0.646E-01
RMM:   3    -0.413169618860E+03    0.53767E-03   -0.97475E-03  5072   0.566E-02    0.223E-01
RMM:   4    -0.413211152246E+03   -0.41533E-01   -0.50892E-02  5126   0.188E-01    0.858E-01
RMM:   5    -0.413167509613E+03    0.43643E-01   -0.19920E-02  4779   0.142E-01    0.541E-02
RMM:   6    -0.413167675924E+03   -0.16631E-03   -0.31691E-03  5696   0.554E-02    0.249E-02
RMM:   7    -0.413167699392E+03   -0.23468E-04   -0.42585E-04  5987   0.171E-02    0.172E-02
RMM:   8    -0.413167701311E+03   -0.19196E-05   -0.65714E-05  5253   0.809E-03    0.823E-03
RMM:   9    -0.413167699540E+03    0.17716E-05   -0.12900E-05  3696   0.389E-03    0.406E-03
RMM:  10    -0.413167700796E+03   -0.12570E-05   -0.27817E-06  2617   0.220E-03    0.282E-03
RMM:  11    -0.413167701828E+03   -0.10319E-05   -0.11046E-06  2508   0.163E-03    0.143E-03
RMM:  12    -0.413167702465E+03   -0.63701E-06   -0.80596E-07  2452   0.135E-03
   15 T=    61. E= -.41286639E+03 F= -.41316770E+03 E0= -.41314547E+03  EK= 0.30132E+00 SP= 0.00E+00 SK= 0.00E+00
       N       E                     dE             d eps       ncg     rms          rms(c)
RMM:   1    -0.413162137889E+03    0.55639E-02   -0.10652E+01  4298   0.736E-01    0.913E-01
RMM:   2    -0.413170621718E+03   -0.84838E-02   -0.12799E-01  4253   0.987E-02    0.639E-01
RMM:   3    -0.413169137872E+03    0.14838E-02   -0.87889E-03  4891   0.436E-02    0.157E-01
RMM:   4    -0.413201869097E+03   -0.32731E-01   -0.34001E-02  5141   0.153E-01    0.753E-01
RMM:   5    -0.413168539501E+03    0.33330E-01   -0.16269E-02  4807   0.125E-01    0.448E-02
RMM:   6    -0.413168733313E+03   -0.19381E-03   -0.26983E-03  5799   0.494E-02    0.276E-02
RMM:   7    -0.413168736441E+03   -0.31276E-05   -0.35714E-04  5805   0.168E-02    0.179E-02
RMM:   8    -0.413168729201E+03    0.72400E-05   -0.60296E-05  5033   0.782E-03    0.923E-03
RMM:   9    -0.413168723041E+03    0.61597E-05   -0.12765E-05  3875   0.401E-03    0.651E-03
RMM:  10    -0.413168719497E+03    0.35439E-05   -0.18617E-06  2563   0.207E-03    0.420E-03
RMM:  11    -0.413168715109E+03    0.43878E-05   -0.17029E-06  2551   0.201E-03    0.192E-03
RMM:  12    -0.413168710531E+03    0.45788E-05   -0.12198E-06  2505   0.173E-03    0.730E-04
RMM:  13    -0.413168709863E+03    0.66799E-06   -0.39176E-07  2201   0.109E-03
   16 T=    61. E= -.41286669E+03 F= -.41316871E+03 E0= -.41314651E+03  EK= 0.30202E+00 SP= 0.00E+00 SK= 0.00E+00
       N       E                     dE             d eps       ncg     rms          rms(c)
RMM:   1    -0.413162119978E+03    0.65906E-02   -0.10570E+01  4298   0.737E-01    0.893E-01
RMM:   2    -0.413171226030E+03   -0.91061E-02   -0.12837E-01  4266   0.991E-02    0.635E-01
RMM:   3    -0.413169433945E+03    0.17921E-02   -0.83856E-03  4872   0.427E-02    0.151E-01
RMM:   4    -0.413199843561E+03   -0.30410E-01   -0.31328E-02  5139   0.147E-01    0.726E-01
RMM:   5    -0.413168967652E+03    0.30876E-01   -0.15149E-02  4806   0.121E-01    0.426E-02
RMM:   6    -0.413169153604E+03   -0.18595E-03   -0.24813E-03  5801   0.472E-02    0.262E-02
RMM:   7    -0.413169159120E+03   -0.55160E-05   -0.32653E-04  5803   0.162E-02    0.170E-02
RMM:   8    -0.413169153668E+03    0.54519E-05   -0.58086E-05  5009   0.766E-03    0.888E-03
RMM:   9    -0.413169148637E+03    0.50310E-05   -0.12108E-05  3842   0.396E-03    0.631E-03
RMM:  10    -0.413169146350E+03    0.22867E-05   -0.17605E-06  2559   0.203E-03    0.409E-03
RMM:  11    -0.413169143152E+03    0.31987E-05   -0.18826E-06  2570   0.210E-03    0.178E-03
RMM:  12    -0.413169140271E+03    0.28802E-05   -0.10410E-06  2484   0.164E-03    0.704E-04
RMM:  13    -0.413169139891E+03    0.38037E-06   -0.34383E-07  2138   0.101E-03
   17 T=    62. E= -.41286660E+03 F= -.41316914E+03 E0= -.41314698E+03  EK= 0.30254E+00 SP= 0.00E+00 SK= 0.00E+00
       N       E                     dE             d eps       ncg     rms          rms(c)
RMM:   1    -0.413162702363E+03    0.64379E-02   -0.10647E+01  4296   0.755E-01    0.889E-01
RMM:   2    -0.413172070468E+03   -0.93681E-02   -0.13114E-01  4261   0.991E-02    0.647E-01
RMM:   3    -0.413170023095E+03    0.20474E-02   -0.85066E-03  4863   0.428E-02    0.145E-01
RMM:   4    -0.413200658678E+03   -0.30636E-01   -0.31798E-02  5131   0.148E-01    0.729E-01
RMM:   5    -0.413169439241E+03    0.31219E-01   -0.15305E-02  4801   0.121E-01    0.422E-02
RMM:   6    -0.413169630865E+03   -0.19162E-03   -0.25207E-03  5806   0.473E-02    0.255E-02
RMM:   7    -0.413169640598E+03   -0.97333E-05   -0.32804E-04  5791   0.160E-02    0.167E-02
RMM:   8    -0.413169638490E+03    0.21086E-05   -0.57893E-05  5008   0.763E-03    0.876E-03
RMM:   9    -0.413169635693E+03    0.27964E-05   -0.12534E-05  3876   0.400E-03    0.616E-03
RMM:  10    -0.413169635864E+03   -0.17045E-06   -0.18398E-06  2563   0.203E-03
   18 T=    62. E= -.41286655E+03 F= -.41316964E+03 E0= -.41314752E+03  EK= 0.30308E+00 SP= 0.00E+00 SK= 0.00E+00
       N       E                     dE             d eps       ncg     rms          rms(c)
RMM:   1    -0.413164088484E+03    0.55472E-02   -0.10685E+01  4305   0.747E-01    0.912E-01
RMM:   2    -0.413172660356E+03   -0.85719E-02   -0.12935E-01  4317   0.944E-02    0.643E-01
RMM:   3    -0.413173791858E+03   -0.11315E-02   -0.10827E-02  5104   0.640E-02    0.267E-01
RMM:   4    -0.413205532488E+03   -0.31741E-01   -0.45084E-02  5104   0.178E-01    0.770E-01
RMM:   5    -0.413170697075E+03    0.34835E-01   -0.15147E-02  4743   0.127E-01    0.541E-02
RMM:   6    -0.413170810890E+03   -0.11382E-03   -0.25215E-03  5634   0.492E-02    0.257E-02
RMM:   7    -0.413170824722E+03   -0.13831E-04   -0.35614E-04  6008   0.162E-02    0.169E-02
RMM:   8    -0.413170820350E+03    0.43720E-05   -0.60025E-05  5209   0.801E-03    0.776E-03
RMM:   9    -0.413170813484E+03    0.68660E-05   -0.10469E-05  3463   0.370E-03    0.359E-03
RMM:  10    -0.413170810781E+03    0.27027E-05   -0.23237E-06  2583   0.213E-03    0.249E-03
RMM:  11    -0.413170806878E+03    0.39031E-05   -0.10984E-06  2510   0.166E-03    0.129E-03
RMM:  12    -0.413170803258E+03    0.36199E-05   -0.61566E-07  2413   0.128E-03    0.403E-04
RMM:  13    -0.413170801612E+03    0.16457E-05   -0.30212E-07  1897   0.917E-04    0.251E-04
RMM:  14    -0.413170800161E+03    0.14520E-05   -0.18100E-07  1460   0.759E-04    0.172E-04
RMM:  15    -0.413170797301E+03    0.28598E-05   -0.17419E-07  1382   0.738E-04    0.876E-05
RMM:  16    -0.413170795542E+03    0.17587E-05   -0.11567E-07  1307   0.673E-04    0.855E-05
RMM:  17    -0.413170792872E+03    0.26698E-05   -0.12164E-07  1429   0.673E-04    0.507E-05
RMM:  18    -0.413170791395E+03    0.14772E-05   -0.66783E-08  1035   0.575E-04    0.284E-05
RMM:  19    -0.413170791041E+03    0.35437E-06   -0.30565E-08   793   0.531E-04
   19 T=    62. E= -.41286689E+03 F= -.41317079E+03 E0= -.41314871E+03  EK= 0.30391E+00 SP= 0.00E+00 SK= 0.00E+00
       N       E                     dE             d eps       ncg     rms          rms(c)
RMM:   1    -0.413164321531E+03    0.64699E-02   -0.10628E+01  4296   0.748E-01    0.902E-01
RMM:   2    -0.413172992409E+03   -0.86709E-02   -0.12865E-01  4256   0.975E-02    0.636E-01
RMM:   3    -0.413171767979E+03    0.12244E-02   -0.86620E-03  4945   0.445E-02    0.166E-01
RMM:   4    -0.413209680678E+03   -0.37913E-01   -0.40180E-02  5137   0.166E-01    0.809E-01
RMM:   5    -0.413170980060E+03    0.38701E-01   -0.18795E-02  4794   0.135E-01    0.477E-02
RMM:   6    -0.413171196136E+03   -0.21608E-03   -0.31448E-03  5784   0.530E-02    0.284E-02
RMM:   7    -0.413171201198E+03   -0.50626E-05   -0.40802E-04  5819   0.176E-02    0.188E-02
RMM:   8    -0.413171194200E+03    0.69983E-05   -0.65378E-05  5138   0.806E-03    0.948E-03
RMM:   9    -0.413171187335E+03    0.68650E-05   -0.14529E-05  4035   0.419E-03    0.633E-03
RMM:  10    -0.413171183660E+03    0.36750E-05   -0.21578E-06  2585   0.213E-03    0.412E-03
RMM:  11    -0.413171179870E+03    0.37905E-05   -0.13815E-06  2514   0.185E-03    0.203E-03
RMM:  12    -0.413171175370E+03    0.44994E-05   -0.11826E-06  2508   0.173E-03    0.645E-04
RMM:  13    -0.413171174323E+03    0.10474E-05   -0.40947E-07  2260   0.113E-03    0.474E-04
RMM:  14    -0.413171174166E+03    0.15713E-06   -0.19193E-07  1715   0.788E-04
   20 T=    62. E= -.41286658E+03 F= -.41317117E+03 E0= -.41314914E+03  EK= 0.30460E+00 SP= 0.00E+00 SK= 0.00E+00
       N       E                     dE             d eps       ncg     rms          rms(c)
RMM:   1    -0.413166581098E+03    0.45932E-02   -0.10688E+01  4294   0.789E-01    0.889E-01
RMM:   2    -0.413174760369E+03   -0.81793E-02   -0.13238E-01  4268   0.996E-02    0.647E-01
RMM:   3    -0.413172653834E+03    0.21065E-02   -0.85477E-03  4911   0.424E-02    0.147E-01
RMM:   4    -0.413204469683E+03   -0.31816E-01   -0.33088E-02  5138   0.151E-01    0.742E-01
RMM:   5    -0.413172090349E+03    0.32379E-01   -0.15912E-02  4802   0.123E-01    0.433E-02
RMM:   6    -0.413172278812E+03   -0.18846E-03   -0.26145E-03  5799   0.482E-02    0.262E-02
RMM:   7    -0.413172287561E+03   -0.87489E-05   -0.34616E-04  5779   0.164E-02    0.172E-02
RMM:   8    -0.413172284560E+03    0.30012E-05   -0.57695E-05  5022   0.765E-03    0.871E-03
RMM:   9    -0.413172280942E+03    0.36182E-05   -0.12608E-05  3848   0.397E-03    0.605E-03
RMM:  10    -0.413172280337E+03    0.60484E-06   -0.18407E-06  2562   0.202E-03
   21 T=    62. E= -.41286674E+03 F= -.41317228E+03 E0= -.41315029E+03  EK= 0.30554E+00 SP= 0.00E+00 SK= 0.00E+00
       N       E                     dE             d eps       ncg     rms          rms(c)
RMM:   1    -0.413166568065E+03    0.57129E-02   -0.10735E+01  4297   0.760E-01    0.910E-01
RMM:   2    -0.413175461479E+03   -0.88934E-02   -0.13082E-01  4309   0.996E-02    0.647E-01
RMM:   3    -0.413176123730E+03   -0.66225E-03   -0.10696E-02  5084   0.635E-02    0.261E-01
RMM:   4    -0.413210537971E+03   -0.34414E-01   -0.47303E-02  5110   0.182E-01    0.796E-01
RMM:   5    -0.413173200628E+03    0.37337E-01   -0.16475E-02  4750   0.132E-01    0.539E-02
RMM:   6    -0.413173327741E+03   -0.12711E-03   -0.27304E-03  5671   0.510E-02    0.258E-02
RMM:   7    -0.413173339268E+03   -0.11527E-04   -0.37296E-04  5989   0.165E-02    0.172E-02
RMM:   8    -0.413173334965E+03    0.43034E-05   -0.62472E-05  5201   0.811E-03    0.802E-03
RMM:   9    -0.413173328054E+03    0.69112E-05   -0.11575E-05  3589   0.383E-03    0.375E-03
RMM:  10    -0.413173325372E+03    0.26822E-05   -0.24256E-06  2588   0.216E-03    0.259E-03
RMM:  11    -0.413173321656E+03    0.37156E-05   -0.10588E-06  2500   0.164E-03    0.133E-03
RMM:  12    -0.413173317831E+03    0.38248E-05   -0.63163E-07  2410   0.129E-03    0.369E-04
RMM:  13    -0.413173315981E+03    0.18504E-05   -0.30979E-07  1915   0.930E-04    0.237E-04
RMM:  14    -0.413173314358E+03    0.16231E-05   -0.18357E-07  1461   0.763E-04    0.149E-04
RMM:  15    -0.413173311571E+03    0.27869E-05   -0.15728E-07  1381   0.732E-04    0.890E-05
RMM:  16    -0.413173309728E+03    0.18429E-05   -0.11154E-07  1342   0.675E-04    0.890E-05
RMM:  17    -0.413173307377E+03    0.23508E-05   -0.98322E-08  1329   0.648E-04    0.501E-05
RMM:  18    -0.413173305616E+03    0.17611E-05   -0.64806E-08  1079   0.584E-04    0.236E-05
RMM:  19    -0.413173305188E+03    0.42747E-06   -0.29251E-08   803   0.532E-04
   22 T=    62. E= -.41286682E+03 F= -.41317331E+03 E0= -.41315136E+03  EK= 0.30648E+00 SP= 0.00E+00 SK= 0.00E+00
       N       E                     dE             d eps       ncg     rms          rms(c)
RMM:   1    -0.413167341776E+03    0.59638E-02   -0.10714E+01  4295   0.767E-01    0.912E-01
RMM:   2    -0.413175993498E+03   -0.86517E-02   -0.12988E-01  4277   0.104E-01    0.640E-01
RMM:   3    -0.413174479885E+03    0.15136E-02   -0.88675E-03  4870   0.474E-02    0.163E-01
RMM:   4    -0.413210086283E+03   -0.35606E-01   -0.37224E-02  5136   0.160E-01    0.784E-01
RMM:   5    -0.413173811604E+03    0.36275E-01   -0.17718E-02  4791   0.131E-01    0.463E-02
RMM:   6    -0.413174019213E+03   -0.20761E-03   -0.29629E-03  5789   0.514E-02    0.285E-02
RMM:   7    -0.413174022620E+03   -0.34075E-05   -0.38267E-04  5781   0.173E-02    0.185E-02
RMM:   8    -0.413174014639E+03    0.79806E-05   -0.66380E-05  5100   0.816E-03    0.980E-03
RMM:   9    -0.413174006560E+03    0.80797E-05   -0.14140E-05  4039   0.423E-03    0.670E-03
RMM:  10    -0.413174001752E+03    0.48073E-05   -0.21343E-06  2589   0.214E-03    0.432E-03
RMM:  11    -0.413173996334E+03    0.54179E-05   -0.15959E-06  2520   0.200E-03    0.204E-03
RMM:  12    -0.413173990358E+03    0.59760E-05   -0.12019E-06  2496   0.177E-03    0.686E-04
RMM:  13    -0.413173989159E+03    0.11997E-05   -0.40881E-07  2240   0.113E-03    0.483E-04
RMM:  14    -0.413173988834E+03    0.32457E-06   -0.19411E-07  1741   0.796E-04
   23 T=    63. E= -.41286656E+03 F= -.41317399E+03 E0= -.41315209E+03  EK= 0.30743E+00 SP= 0.00E+00 SK= 0.00E+00
       N       E                     dE             d eps       ncg     rms          rms(c)
RMM:   1    -0.413168514463E+03    0.54747E-02   -0.10716E+01  4292   0.781E-01    0.892E-01
RMM:   2    -0.413178127586E+03   -0.96131E-02   -0.13254E-01  4272   0.104E-01    0.647E-01
RMM:   3    -0.413175789332E+03    0.23383E-02   -0.85114E-03  4795   0.448E-02    0.146E-01
RMM:   4    -0.413203951282E+03   -0.28162E-01   -0.28882E-02  5138   0.141E-01    0.699E-01
RMM:   5    -0.413175384191E+03    0.28567E-01   -0.14112E-02  4800   0.116E-01    0.414E-02
RMM:   6    -0.413175546820E+03   -0.16263E-03   -0.23110E-03  5815   0.453E-02    0.257E-02
RMM:   7    -0.413175551102E+03   -0.42821E-05   -0.30607E-04  5766   0.157E-02    0.164E-02
RMM:   8    -0.413175546567E+03    0.45354E-05   -0.56687E-05  5001   0.763E-03    0.863E-03
RMM:   9    -0.413175541769E+03    0.47977E-05   -0.12001E-05  3848   0.396E-03    0.612E-03
RMM:  10    -0.413175540002E+03    0.17669E-05   -0.16565E-06  2549   0.199E-03    0.401E-03
RMM:  11    -0.413175537261E+03    0.27409E-05   -0.18464E-06  2558   0.213E-03    0.170E-03
RMM:  12    -0.413175534957E+03    0.23048E-05   -0.93503E-07  2465   0.158E-03    0.657E-04
RMM:  13    -0.413175534645E+03    0.31135E-06   -0.31345E-07  2072   0.969E-04
   24 T=    63. E= -.41286685E+03 F= -.41317553E+03 E0= -.41315369E+03  EK= 0.30868E+00 SP= 0.00E+00 SK= 0.00E+00
       N       E                     dE             d eps       ncg     rms          rms(c)
RMM:   1    -0.413169573803E+03    0.59612E-02   -0.10806E+01  4297   0.786E-01    0.907E-01
RMM:   2    -0.413178987993E+03   -0.94142E-02   -0.13275E-01  4275   0.105E-01    0.652E-01
RMM:   3    -0.413176759602E+03    0.22284E-02   -0.86454E-03  4742   0.432E-02    0.142E-01
RMM:   4    -0.413199381690E+03   -0.22622E-01   -0.23118E-02  5141   0.127E-01    0.629E-01
RMM:   5    -0.413176391682E+03    0.22990E-01   -0.11338E-02  4805   0.104E-01    0.391E-02
RMM:   6    -0.413176515788E+03   -0.12411E-03   -0.18606E-03  5823   0.401E-02    0.235E-02
RMM:   7    -0.413176518342E+03   -0.25539E-05   -0.20685E-04  5705   0.134E-02    0.118E-02
RMM:   8    -0.413176515192E+03    0.31498E-05   -0.42137E-05  4913   0.645E-03    0.804E-03
RMM:   9    -0.413176510591E+03    0.46015E-05   -0.10442E-05  3792   0.361E-03    0.609E-03
RMM:  10    -0.413176508439E+03    0.21517E-05   -0.15242E-06  2544   0.204E-03    0.402E-03
RMM:  11    -0.413176504552E+03    0.38870E-05   -0.19002E-06  2560   0.213E-03    0.188E-03
RMM:  12    -0.413176500274E+03    0.42783E-05   -0.95999E-07  2467   0.163E-03    0.723E-04
RMM:  13    -0.413176499762E+03    0.51219E-06   -0.30446E-07  2089   0.980E-04
   25 T=    63. E= -.41286677E+03 F= -.41317650E+03 E0= -.41315470E+03  EK= 0.30973E+00 SP= 0.00E+00 SK= 0.00E+00
       N       E                     dE             d eps       ncg     rms          rms(c)
RMM:   1    -0.413171566832E+03    0.49334E-02   -0.10824E+01  4295   0.794E-01    0.921E-01
RMM:   2    -0.413179661485E+03   -0.80947E-02   -0.13199E-01  4275   0.103E-01    0.645E-01
RMM:   3    -0.413178016490E+03    0.16450E-02   -0.87861E-03  4707   0.429E-02    0.148E-01
RMM:   4    -0.413197329413E+03   -0.19313E-01   -0.19650E-02  5149   0.117E-01    0.582E-01
RMM:   5    -0.413177763120E+03    0.19566E-01   -0.97512E-03  4813   0.959E-02    0.387E-02
RMM:   6    -0.413177854698E+03   -0.91578E-04   -0.15739E-03  5826   0.370E-02    0.232E-02
RMM:   7    -0.413177848351E+03    0.63467E-05   -0.17377E-04  5673   0.127E-02    0.111E-02
RMM:   8    -0.413177842188E+03    0.61633E-05   -0.35877E-05  4850   0.607E-03    0.776E-03
RMM:   9    -0.413177836270E+03    0.59184E-05   -0.81064E-06  3488   0.330E-03    0.591E-03
RMM:  10    -0.413177832068E+03    0.42013E-05   -0.12584E-06  2531   0.194E-03    0.382E-03
RMM:  11    -0.413177824262E+03    0.78068E-05   -0.16229E-06  2533   0.204E-03    0.178E-03
RMM:  12    -0.413177816445E+03    0.78170E-05   -0.85620E-07  2441   0.155E-03    0.692E-04
RMM:  13    -0.413177815883E+03    0.56136E-06   -0.26994E-07  2011   0.925E-04
   26 T=    63. E= -.41286678E+03 F= -.41317782E+03 E0= -.41315607E+03  EK= 0.31103E+00 SP= 0.00E+00 SK= 0.00E+00
       N       E                     dE             d eps       ncg     rms          rms(c)
RMM:   1    -0.413172548161E+03    0.52683E-02   -0.10783E+01  4298   0.791E-01    0.898E-01
RMM:   2    -0.413181759898E+03   -0.92117E-02   -0.13295E-01  4283   0.103E-01    0.647E-01
RMM:   3    -0.413179779818E+03    0.19801E-02   -0.85151E-03  4620   0.426E-02    0.138E-01
RMM:   4    -0.413194434662E+03   -0.14655E-01   -0.15011E-02  5146   0.102E-01    0.508E-01
RMM:   5    -0.413179586694E+03    0.14848E-01   -0.74253E-03  4823   0.834E-02    0.354E-02
RMM:   6    -0.413179646188E+03   -0.59494E-04   -0.12195E-03  5847   0.319E-02    0.210E-02
RMM:   7    -0.413179644401E+03    0.17872E-05   -0.13841E-04  5553   0.114E-02    0.972E-03
RMM:   8    -0.413179637771E+03    0.66298E-05   -0.25984E-05  4610   0.527E-03    0.645E-03
RMM:   9    -0.413179636496E+03    0.12755E-05   -0.65724E-06  3249   0.302E-03    0.543E-03
RMM:  10    -0.413179633311E+03    0.31847E-05   -0.99887E-07  2512   0.181E-03    0.341E-03
RMM:  11    -0.413179628703E+03    0.46085E-05   -0.12829E-06  2514   0.182E-03    0.166E-03
RMM:  12    -0.413179624543E+03    0.41599E-05   -0.71690E-07  2391   0.138E-03    0.608E-04
RMM:  13    -0.413179623591E+03    0.95241E-06   -0.22830E-07  1877   0.850E-04
   27 T=    64. E= -.41286696E+03 F= -.41317962E+03 E0= -.41315792E+03  EK= 0.31267E+00 SP= 0.00E+00 SK= 0.00E+00
       N       E                     dE             d eps       ncg     rms          rms(c)
RMM:   1    -0.413181223826E+03   -0.15993E-02   -0.10979E+01  4294   0.867E-01    0.905E-01
RMM:   2    -0.413183128926E+03   -0.19051E-02   -0.14929E-01  4272   0.112E-01    0.660E-01
RMM:   3    -0.413180888619E+03    0.22403E-02   -0.83457E-03  4502   0.427E-02    0.152E-01
RMM:   4    -0.413190406853E+03   -0.95182E-02   -0.10150E-02  5141   0.849E-02    0.412E-01
RMM:   5    -0.413180760361E+03    0.96465E-02   -0.48367E-03  4826   0.673E-02    0.330E-02
RMM:   6    -0.413180787482E+03   -0.27121E-04   -0.80586E-04  5835   0.260E-02    0.194E-02
RMM:   7    -0.413180790523E+03   -0.30404E-05   -0.14404E-04  5528   0.117E-02    0.122E-02
RMM:   8    -0.413180778482E+03    0.12040E-04   -0.26619E-05  4593   0.581E-03    0.561E-03
RMM:   9    -0.413180776996E+03    0.14864E-05   -0.49877E-06  3000   0.288E-03    0.449E-03
RMM:  10    -0.413180774658E+03    0.23375E-05   -0.95694E-07  2490   0.176E-03    0.267E-03
RMM:  11    -0.413180771663E+03    0.29954E-05   -0.71333E-07  2466   0.142E-03    0.134E-03
RMM:  12    -0.413180768152E+03    0.35111E-05   -0.52030E-07  2272   0.115E-03    0.477E-04
RMM:  13    -0.413180767188E+03    0.96438E-06   -0.18975E-07  1639   0.784E-04
   28 T=    64. E= -.41286664E+03 F= -.41318077E+03 E0= -.41315912E+03  EK= 0.31412E+00 SP= 0.00E+00 SK= 0.00E+00
       N       E                     dE             d eps       ncg     rms          rms(c)
RMM:   1    -0.413176547166E+03    0.42210E-02   -0.10955E+01  4291   0.818E-01    0.929E-01
RMM:   2    -0.413184679459E+03   -0.81323E-02   -0.13418E-01  4270   0.107E-01    0.652E-01
RMM:   3    -0.413182875309E+03    0.18042E-02   -0.91388E-03  4531   0.463E-02    0.145E-01
RMM:   4    -0.413194679789E+03   -0.11804E-01   -0.12110E-02  5155   0.924E-02    0.457E-01
RMM:   5    -0.413182783478E+03    0.11896E-01   -0.60242E-03  4832   0.750E-02    0.357E-02
RMM:   6    -0.413182817327E+03   -0.33849E-04   -0.97473E-04  5848   0.292E-02    0.215E-02
RMM:   7    -0.413182815847E+03    0.14804E-05   -0.17006E-04  5556   0.129E-02    0.133E-02
RMM:   8    -0.413182801010E+03    0.14836E-04   -0.29293E-05  4666   0.609E-03    0.617E-03
RMM:   9    -0.413182797304E+03    0.37060E-05   -0.58452E-06  3125   0.301E-03    0.491E-03
RMM:  10    -0.413182791754E+03    0.55499E-05   -0.10250E-06  2498   0.183E-03    0.287E-03
RMM:  11    -0.413182785047E+03    0.67071E-05   -0.77767E-07  2472   0.151E-03    0.142E-03
RMM:  12    -0.413182777491E+03    0.75560E-05   -0.54341E-07  2336   0.122E-03    0.499E-04
RMM:  13    -0.413182775651E+03    0.18403E-05   -0.21504E-07  1820   0.826E-04    0.279E-04
RMM:  14    -0.413182773931E+03    0.17200E-05   -0.10887E-07  1241   0.666E-04    0.206E-04
RMM:  15    -0.413182767972E+03    0.59590E-05   -0.12315E-07  1419   0.711E-04    0.154E-04
RMM:  16    -0.413182767199E+03    0.77261E-06   -0.46094E-08   893   0.589E-04
   29 T=    64. E= -.41286684E+03 F= -.41318277E+03 E0= -.41316117E+03  EK= 0.31592E+00 SP= 0.00E+00 SK= 0.00E+00
       N       E                     dE             d eps       ncg     rms          rms(c)
RMM:   1    -0.413177598299E+03    0.51697E-02   -0.10902E+01  4288   0.817E-01    0.907E-01
RMM:   2    -0.413186990217E+03   -0.93919E-02   -0.13536E-01  4267   0.110E-01    0.650E-01
RMM:   3    -0.413184726356E+03    0.22639E-02   -0.88029E-03  4483   0.457E-02    0.139E-01
RMM:   4    -0.413193132774E+03   -0.84064E-02   -0.88790E-03  5154   0.801E-02    0.387E-01
RMM:   5    -0.413184653757E+03    0.84790E-02   -0.42770E-03  4831   0.634E-02    0.338E-02
RMM:   6    -0.413184676055E+03   -0.22299E-04   -0.72311E-04  5821   0.254E-02    0.220E-02
RMM:   7    -0.413184673618E+03    0.24372E-05   -0.18206E-04  5422   0.131E-02    0.135E-02
RMM:   8    -0.413184660212E+03    0.13406E-04   -0.19943E-05  4306   0.552E-03    0.557E-03
RMM:   9    -0.413184657740E+03    0.24723E-05   -0.37614E-06  2861   0.254E-03    0.409E-03
RMM:  10    -0.413184653937E+03    0.38034E-05   -0.11301E-06  2489   0.178E-03    0.230E-03
RMM:  11    -0.413184649470E+03    0.44662E-05   -0.74824E-07  2453   0.146E-03    0.109E-03
RMM:  12    -0.413184645801E+03    0.36691E-05   -0.40315E-07  2207   0.108E-03    0.481E-04
RMM:  13    -0.413184644402E+03    0.13992E-05   -0.17882E-07  1606   0.765E-04    0.228E-04
RMM:  14    -0.413184642310E+03    0.20925E-05   -0.10667E-07  1189   0.672E-04    0.134E-04
RMM:  15    -0.413184639066E+03    0.32438E-05   -0.93977E-08  1250   0.667E-04    0.808E-05
RMM:  16    -0.413184638054E+03    0.10122E-05   -0.49285E-08   963   0.594E-04    0.618E-05
RMM:  17    -0.413184635100E+03    0.29536E-05   -0.62687E-08  1168   0.623E-04    0.421E-05
RMM:  18    -0.413184633680E+03    0.14198E-05   -0.34770E-08   928   0.568E-04    0.240E-05
RMM:  19    -0.413184633239E+03    0.44098E-06   -0.15097E-08   704   0.528E-04
   30 T=    65. E= -.41286682E+03 F= -.41318463E+03 E0= -.41316308E+03  EK= 0.31781E+00 SP= 0.00E+00 SK= 0.00E+00
       N       E                     dE             d eps       ncg     rms          rms(c)
RMM:   1    -0.413186970315E+03   -0.23366E-02   -0.11108E+01  4290   0.921E-01    0.909E-01
RMM:   2    -0.413189377076E+03   -0.24068E-02   -0.14354E-01  4278   0.124E-01    0.664E-01
RMM:   3    -0.413186271355E+03    0.31057E-02   -0.89738E-03  4376   0.487E-02    0.136E-01
RMM:   4    -0.413189524862E+03   -0.32535E-02   -0.39541E-03  5143   0.534E-02    0.240E-01
RMM:   5    -0.413186312797E+03    0.32121E-02   -0.16024E-03  4816   0.394E-02    0.311E-02
RMM:   6    -0.413186317676E+03   -0.48796E-05   -0.34469E-04  5723   0.183E-02    0.217E-02
RMM:   7    -0.413186309696E+03    0.79800E-05   -0.14877E-04  5153   0.118E-02    0.115E-02
RMM:   8    -0.413186302850E+03    0.68463E-05   -0.10469E-05  3704   0.433E-03    0.504E-03
RMM:   9    -0.413186301861E+03    0.98892E-06   -0.15978E-06  2534   0.191E-03
   31 T=    65. E= -.41286655E+03 F= -.41318630E+03 E0= -.41316480E+03  EK= 0.31975E+00 SP= 0.00E+00 SK= 0.00E+00
       N       E                     dE             d eps       ncg     rms          rms(c)
RMM:   1    -0.413182404869E+03    0.38980E-02   -0.11105E+01  4291   0.843E-01    0.935E-01
RMM:   2    -0.413191234774E+03   -0.88299E-02   -0.13851E-01  4282   0.124E-01    0.660E-01
RMM:   3    -0.413188960728E+03    0.22740E-02   -0.93236E-03  4430   0.514E-02    0.144E-01
RMM:   4    -0.413192737863E+03   -0.37771E-02   -0.45010E-03  5140   0.589E-02    0.259E-01
RMM:   5    -0.413188995197E+03    0.37427E-02   -0.18800E-03  4822   0.428E-02    0.351E-02
RMM:   6    -0.413188989353E+03    0.58439E-05   -0.40896E-04  5647   0.203E-02    0.263E-02
RMM:   7    -0.413188970128E+03    0.19226E-04   -0.15550E-04  5103   0.117E-02    0.112E-02
RMM:   8    -0.413188963595E+03    0.65328E-05   -0.14739E-05  4075   0.460E-03    0.521E-03
RMM:   9    -0.413188961105E+03    0.24900E-05   -0.19992E-06  2574   0.195E-03    0.294E-03
RMM:  10    -0.413188952660E+03    0.84445E-05   -0.92460E-07  2474   0.156E-03    0.139E-03
RMM:  11    -0.413188946890E+03    0.57706E-05   -0.45682E-07  2259   0.110E-03    0.689E-04
RMM:  12    -0.413188942025E+03    0.48647E-05   -0.26239E-07  1888   0.888E-04    0.288E-04
RMM:  13    -0.413188938561E+03    0.34641E-05   -0.13838E-07  1262   0.705E-04    0.173E-04
RMM:  14    -0.413188933444E+03    0.51168E-05   -0.11456E-07  1271   0.683E-04    0.132E-04
RMM:  15    -0.413188927680E+03    0.57645E-05   -0.11121E-07  1427   0.684E-04    0.103E-04
RMM:  16    -0.413188925883E+03    0.17970E-05   -0.55296E-08  1016   0.570E-04    0.800E-05
RMM:  17    -0.413188922321E+03    0.35618E-05   -0.59291E-08  1121   0.584E-04    0.342E-05
RMM:  18    -0.413188921421E+03    0.89999E-06   -0.28078E-08   802   0.517E-04
   32 T=    66. E= -.41286686E+03 F= -.41318892E+03 E0= -.41316747E+03  EK= 0.32206E+00 SP= 0.00E+00 SK= 0.00E+00
       N       E                     dE             d eps       ncg     rms          rms(c)
RMM:   1    -0.413184054384E+03    0.48679E-02   -0.11074E+01  4290   0.857E-01    0.922E-01
RMM:   2    -0.413193237970E+03   -0.91836E-02   -0.13987E-01  4276   0.127E-01    0.656E-01
RMM:   3    -0.413190800217E+03    0.24378E-02   -0.90044E-03  4265   0.462E-02    0.144E-01
RMM:   4    -0.413191996844E+03   -0.11966E-02   -0.20273E-03  5087   0.388E-02    0.143E-01
RMM:   5    -0.413190902245E+03    0.10946E-02   -0.56191E-04  4764   0.242E-02    0.326E-02
RMM:   6    -0.413190896038E+03    0.62076E-05   -0.21623E-04  5501   0.153E-02    0.238E-02
RMM:   7    -0.413190876620E+03    0.19417E-04   -0.14173E-04  4914   0.113E-02    0.123E-02
RMM:   8    -0.413190871542E+03    0.50789E-05   -0.10511E-05  3628   0.416E-03    0.498E-03
RMM:   9    -0.413190869923E+03    0.16184E-05   -0.19055E-06  2432   0.186E-03    0.238E-03
RMM:  10    -0.413190862977E+03    0.69466E-05   -0.76994E-07  2340   0.141E-03    0.105E-03
RMM:  11    -0.413190859307E+03    0.36696E-05   -0.31122E-07  1939   0.929E-04    0.487E-04
RMM:  12    -0.413190854937E+03    0.43695E-05   -0.18743E-07  1531   0.782E-04    0.216E-04
RMM:  13    -0.413190851867E+03    0.30704E-05   -0.92537E-08   990   0.649E-04    0.129E-04
RMM:  14    -0.413190847967E+03    0.39003E-05   -0.73026E-08  1022   0.639E-04    0.103E-04
RMM:  15    -0.413190843135E+03    0.48316E-05   -0.82582E-08  1220   0.642E-04    0.645E-05
RMM:  16    -0.413190841348E+03    0.17874E-05   -0.36116E-08   775   0.538E-04    0.480E-05
RMM:  17    -0.413190839631E+03    0.17162E-05   -0.25473E-08   676   0.522E-04    0.220E-05
RMM:  18    -0.413190838962E+03    0.66972E-06   -0.14131E-08   563   0.502E-04
   33 T=    66. E= -.41286660E+03 F= -.41319084E+03 E0= -.41316944E+03  EK= 0.32424E+00 SP= 0.00E+00 SK= 0.00E+00
       N       E                     dE             d eps       ncg     rms          rms(c)
RMM:   1    -0.413204055402E+03   -0.13216E-01   -0.11360E+01  4296   0.995E-01    0.912E-01
RMM:   2    -0.413195783838E+03    0.82716E-02   -0.16328E-01  4270   0.139E-01    0.671E-01
RMM:   3    -0.413193393094E+03    0.23907E-02   -0.85358E-03  4296   0.534E-02    0.164E-01
RMM:   4    -0.413195632592E+03   -0.22395E-02   -0.33316E-03  5106   0.504E-02    0.200E-01
RMM:   5    -0.413193424478E+03    0.22081E-02   -0.10854E-03  4787   0.333E-02    0.320E-02
RMM:   6    -0.413193417984E+03    0.64942E-05   -0.27070E-04  5652   0.170E-02    0.227E-02
RMM:   7    -0.413193407003E+03    0.10981E-04   -0.14938E-04  5025   0.116E-02    0.115E-02
RMM:   8    -0.413193400942E+03    0.60606E-05   -0.93438E-06  3526   0.411E-03    0.472E-03
RMM:   9    -0.413193399939E+03    0.10028E-05   -0.15725E-06  2498   0.186E-03    0.259E-03
RMM:  10    -0.413193396588E+03    0.33514E-05   -0.94510E-07  2453   0.151E-03    0.124E-03
RMM:  11    -0.413193394530E+03    0.20576E-05   -0.38287E-07  2106   0.101E-03    0.653E-04
RMM:  12    -0.413193392042E+03    0.24880E-05   -0.24347E-07  1649   0.816E-04    0.246E-04
RMM:  13    -0.413193390170E+03    0.18725E-05   -0.13105E-07  1175   0.679E-04    0.155E-04
RMM:  14    -0.413193388112E+03    0.20571E-05   -0.96435E-08  1075   0.645E-04    0.125E-04
RMM:  15    -0.413193385325E+03    0.27871E-05   -0.91586E-08  1171   0.639E-04    0.614E-05
RMM:  16    -0.413193384385E+03    0.94035E-06   -0.42421E-08   827   0.558E-04
   34 T=    67. E= -.41286664E+03 F= -.41319338E+03 E0= -.41317203E+03  EK= 0.32675E+00 SP= 0.00E+00 SK= 0.00E+00
       N       E                     dE             d eps       ncg     rms          rms(c)
RMM:   1    -0.413189657758E+03    0.37276E-02   -0.11287E+01  4303   0.895E-01    0.939E-01
RMM:   2    -0.413198588309E+03   -0.89306E-02   -0.14460E-01  4269   0.131E-01    0.670E-01
RMM:   3    -0.413196159003E+03    0.24293E-02   -0.92711E-03  4316   0.515E-02    0.146E-01
RMM:   4    -0.413197748388E+03   -0.15894E-02   -0.24648E-03  5128   0.415E-02    0.169E-01
RMM:   5    -0.413196202266E+03    0.15461E-02   -0.78802E-04  4789   0.284E-02    0.336E-02
RMM:   6    -0.413196194594E+03    0.76716E-05   -0.25140E-04  5542   0.162E-02    0.247E-02
RMM:   7    -0.413196175858E+03    0.18737E-04   -0.15814E-04  4942   0.116E-02    0.131E-02
RMM:   8    -0.413196170882E+03    0.49758E-05   -0.10592E-05  3382   0.393E-03    0.481E-03
RMM:   9    -0.413196168969E+03    0.19130E-05   -0.17217E-06  2474   0.186E-03    0.254E-03
RMM:  10    -0.413196161607E+03    0.73622E-05   -0.88502E-07  2433   0.151E-03    0.120E-03
RMM:  11    -0.413196158512E+03    0.30951E-05   -0.32772E-07  2027   0.968E-04    0.667E-04
RMM:  12    -0.413196153430E+03    0.50820E-05   -0.22596E-07  1698   0.827E-04    0.235E-04
RMM:  13    -0.413196149862E+03    0.35674E-05   -0.11128E-07  1165   0.670E-04    0.134E-04
RMM:  14    -0.413196145570E+03    0.42921E-05   -0.88225E-08  1125   0.650E-04    0.110E-04
RMM:  15    -0.413196140706E+03    0.48637E-05   -0.81272E-08  1242   0.641E-04    0.691E-05
RMM:  16    -0.413196138238E+03    0.24681E-05   -0.46611E-08   984   0.570E-04    0.490E-05
RMM:  17    -0.413196136472E+03    0.17659E-05   -0.29872E-08   829   0.535E-04    0.236E-05
RMM:  18    -0.413196135844E+03    0.62784E-06   -0.17066E-08   661   0.507E-04
   35 T=    67. E= -.41286685E+03 F= -.41319614E+03 E0= -.41317483E+03  EK= 0.32928E+00 SP= 0.00E+00 SK= 0.00E+00
       N       E                     dE             d eps       ncg     rms          rms(c)
RMM:   1    -0.413194505375E+03    0.16311E-02   -0.11314E+01  4298   0.950E-01    0.939E-01
RMM:   2    -0.413200367956E+03   -0.58626E-02   -0.14703E-01  4252   0.132E-01    0.664E-01
RMM:   3    -0.413198336717E+03    0.20312E-02   -0.93785E-03  4631   0.544E-02    0.164E-01
RMM:   4    -0.413220215725E+03   -0.21879E-01   -0.21998E-02  5169   0.125E-01    0.619E-01
RMM:   5    -0.413198180576E+03    0.22035E-01   -0.11141E-02  4804   0.103E-01    0.417E-02
RMM:   6    -0.413198192062E+03   -0.11486E-04   -0.18212E-03  5844   0.406E-02    0.263E-02
RMM:   7    -0.413198199094E+03   -0.70316E-05   -0.26797E-04  5661   0.153E-02    0.156E-02
RMM:   8    -0.413198185477E+03    0.13617E-04   -0.50358E-05  4952   0.754E-03    0.818E-03
RMM:   9    -0.413198181777E+03    0.37003E-05   -0.11589E-05  3953   0.405E-03    0.586E-03
RMM:  10    -0.413198175622E+03    0.61548E-05   -0.14904E-06  2545   0.209E-03    0.347E-03
RMM:  11    -0.413198170464E+03    0.51582E-05   -0.97266E-07  2489   0.161E-03    0.197E-03
RMM:  12    -0.413198161052E+03    0.94119E-05   -0.10500E-06  2486   0.169E-03    0.889E-04
RMM:  13    -0.413198157540E+03    0.35120E-05   -0.38559E-07  2194   0.110E-03    0.526E-04
RMM:  14    -0.413198156841E+03    0.69968E-06   -0.16876E-07  1583   0.760E-04
   36 T=    68. E= -.41286652E+03 F= -.41319816E+03 E0= -.41317689E+03  EK= 0.33164E+00 SP= 0.00E+00 SK= 0.00E+00
       N       E                     dE             d eps       ncg     rms          rms(c)
RMM:   1    -0.413208254695E+03   -0.10097E-01   -0.11489E+01  4304   0.105E+00    0.922E-01
RMM:   2    -0.413204267683E+03    0.39870E-02   -0.15790E-01  4248   0.139E-01    0.675E-01
RMM:   3    -0.413201401068E+03    0.28666E-02   -0.90724E-03  4610   0.542E-02    0.163E-01
RMM:   4    -0.413221136908E+03   -0.19736E-01   -0.20012E-02  5158   0.119E-01    0.589E-01
RMM:   5    -0.413201254504E+03    0.19882E-01   -0.10019E-02  4803   0.978E-02    0.407E-02
RMM:   6    -0.413201261907E+03   -0.74034E-05   -0.16518E-03  5836   0.387E-02    0.264E-02
RMM:   7    -0.413201272069E+03   -0.10162E-04   -0.26901E-04  5631   0.151E-02    0.155E-02
RMM:   8    -0.413201259482E+03    0.12587E-04   -0.49783E-05  4987   0.760E-03    0.765E-03
RMM:   9    -0.413201257061E+03    0.24219E-05   -0.97669E-06  3664   0.383E-03    0.498E-03
RMM:  10    -0.413201253106E+03    0.39547E-05   -0.14618E-06  2541   0.199E-03    0.304E-03
RMM:  11    -0.413201248822E+03    0.42842E-05   -0.96616E-07  2493   0.159E-03    0.152E-03
RMM:  12    -0.413201243240E+03    0.55817E-05   -0.80911E-07  2422   0.142E-03    0.651E-04
RMM:  13    -0.413201241113E+03    0.21272E-05   -0.31567E-07  2036   0.966E-04    0.404E-04
RMM:  14    -0.413201240257E+03    0.85607E-06   -0.14957E-07  1397   0.718E-04
   37 T=    68. E= -.41286679E+03 F= -.41320124E+03 E0= -.41318002E+03  EK= 0.33445E+00 SP= 0.00E+00 SK= 0.00E+00
       N       E                     dE             d eps       ncg     rms          rms(c)
RMM:   1    -0.413202404903E+03   -0.11638E-02   -0.11530E+01  4305   0.103E+00    0.943E-01
RMM:   2    -0.413206814055E+03   -0.44092E-02   -0.15354E-01  4248   0.128E-01    0.679E-01
RMM:   3    -0.413203974100E+03    0.28400E-02   -0.96268E-03  4801   0.535E-02    0.174E-01
RMM:   4    -0.413240179916E+03   -0.36206E-01   -0.37038E-02  5156   0.161E-01    0.791E-01
RMM:   5    -0.413203493150E+03    0.36687E-01   -0.18449E-02  4800   0.133E-01    0.479E-02
RMM:   6    -0.413203563349E+03   -0.70199E-04   -0.29893E-03  5830   0.512E-02    0.288E-02
RMM:   7    -0.413203577540E+03   -0.14190E-04   -0.35623E-04  5773   0.168E-02    0.161E-02
RMM:   8    -0.413203569225E+03    0.83150E-05   -0.62341E-05  5060   0.793E-03    0.998E-03
RMM:   9    -0.413203565961E+03    0.32637E-05   -0.20842E-05  4531   0.497E-03    0.674E-03
RMM:  10    -0.413203559873E+03    0.60875E-05   -0.28048E-06  2651   0.256E-03    0.402E-03
RMM:  11    -0.413203555852E+03    0.40214E-05   -0.14097E-06  2503   0.191E-03    0.240E-03
RMM:  12    -0.413203547197E+03    0.86545E-05   -0.14524E-06  2506   0.201E-03    0.100E-03
RMM:  13    -0.413203543580E+03    0.36175E-05   -0.55035E-07  2363   0.132E-03    0.712E-04
RMM:  14    -0.413203543305E+03    0.27505E-06   -0.22798E-07  1910   0.861E-04
   38 T=    69. E= -.41286653E+03 F= -.41320354E+03 E0= -.41318236E+03  EK= 0.33701E+00 SP= 0.00E+00 SK= 0.00E+00
       N       E                     dE             d eps       ncg     rms          rms(c)
RMM:   1    -0.413211537188E+03   -0.79936E-02   -0.11629E+01  4303   0.109E+00    0.956E-01
RMM:   2    -0.413208850282E+03    0.26869E-02   -0.15915E-01  4256   0.125E-01    0.674E-01
RMM:   3    -0.413206979296E+03    0.18710E-02   -0.99542E-03  5006   0.544E-02    0.209E-01
RMM:   4    -0.413256647240E+03   -0.49668E-01   -0.53404E-02  5140   0.192E-01    0.924E-01
RMM:   5    -0.413206003172E+03    0.50644E-01   -0.25063E-02  4786   0.156E-01    0.553E-02
RMM:   6    -0.413206127745E+03   -0.12457E-03   -0.40671E-03  5826   0.602E-02    0.317E-02
RMM:   7    -0.413206142375E+03   -0.14630E-04   -0.45529E-04  5783   0.188E-02    0.180E-02
RMM:   8    -0.413206139246E+03    0.31286E-05   -0.80915E-05  5180   0.855E-03    0.114E-02
RMM:   9    -0.413206128566E+03    0.10680E-04   -0.25472E-05  4615   0.536E-03    0.696E-03
RMM:  10    -0.413206121879E+03    0.66871E-05   -0.43921E-06  2810   0.295E-03    0.414E-03
RMM:  11    -0.413206115860E+03    0.60189E-05   -0.17153E-06  2514   0.214E-03    0.243E-03
RMM:  12    -0.413206104831E+03    0.11029E-04   -0.13155E-06  2493   0.198E-03    0.787E-04
RMM:  13    -0.413206099882E+03    0.49492E-05   -0.54437E-07  2375   0.132E-03    0.617E-04
RMM:  14    -0.413206098858E+03    0.10242E-05   -0.24043E-07  1959   0.885E-04    0.383E-04
RMM:  15    -0.413206095362E+03    0.34953E-05   -0.12052E-07  1350   0.703E-04    0.172E-04
RMM:  16    -0.413206090505E+03    0.48572E-05   -0.94815E-08  1345   0.679E-04    0.187E-04
RMM:  17    -0.413206088717E+03    0.17883E-05   -0.51553E-08   984   0.599E-04    0.125E-04
RMM:  18    -0.413206083088E+03    0.56291E-05   -0.77253E-08  1444   0.658E-04    0.176E-04
RMM:  19    -0.413206081836E+03    0.12514E-05   -0.28547E-08   854   0.531E-04    0.104E-04
RMM:  20    -0.413206080698E+03    0.11389E-05   -0.25803E-08   864   0.533E-04    0.310E-05
RMM:  21    -0.413206080464E+03    0.23373E-06   -0.13292E-08   721   0.515E-04
   39 T=    69. E= -.41286649E+03 F= -.41320608E+03 E0= -.41318494E+03  EK= 0.33959E+00 SP= 0.00E+00 SK= 0.00E+00
       N       E                     dE             d eps       ncg     rms          rms(c)
RMM:   1    -0.413212273401E+03   -0.61927E-02   -0.11617E+01  4309   0.114E+00    0.934E-01
RMM:   2    -0.413212312492E+03   -0.39091E-04   -0.15896E-01  4262   0.129E-01    0.679E-01
RMM:   3    -0.413210552185E+03    0.17603E-02   -0.10216E-02  5040   0.597E-02    0.227E-01
RMM:   4    -0.413263052012E+03   -0.52500E-01   -0.59600E-02  5129   0.203E-01    0.953E-01
RMM:   5    -0.413208932240E+03    0.54120E-01   -0.26246E-02  4777   0.160E-01    0.572E-02
RMM:   6    -0.413209061891E+03   -0.12965E-03   -0.42431E-03  5806   0.616E-02    0.314E-02
RMM:   7    -0.413209080282E+03   -0.18392E-04   -0.50491E-04  5874   0.195E-02    0.200E-02
RMM:   8    -0.413209081504E+03   -0.12215E-05   -0.10950E-04  5257   0.100E-02    0.130E-02
RMM:   9    -0.413209069358E+03    0.12146E-04   -0.24579E-05  4590   0.568E-03    0.610E-03
RMM:  10    -0.413209065395E+03    0.39634E-05   -0.49836E-06  2881   0.288E-03    0.375E-03
RMM:  11    -0.413209062077E+03    0.33175E-05   -0.15072E-06  2504   0.202E-03    0.217E-03
RMM:  12    -0.413209056298E+03    0.57792E-05   -0.10757E-06  2488   0.176E-03    0.706E-04
RMM:  13    -0.413209053310E+03    0.29879E-05   -0.47934E-07  2335   0.122E-03    0.446E-04
RMM:  14    -0.413209052228E+03    0.10825E-05   -0.22674E-07  1860   0.851E-04    0.296E-04
RMM:  15    -0.413209049254E+03    0.29732E-05   -0.13085E-07  1371   0.711E-04    0.135E-04
RMM:  16    -0.413209047187E+03    0.20674E-05   -0.79148E-08  1092   0.642E-04    0.103E-04
RMM:  17    -0.413209045383E+03    0.18034E-05   -0.58335E-08  1046   0.619E-04    0.687E-05
RMM:  18    -0.413209043039E+03    0.23446E-05   -0.49139E-08  1054   0.617E-04    0.475E-05
RMM:  19    -0.413209041127E+03    0.19118E-05   -0.38019E-08  1026   0.599E-04    0.337E-05
RMM:  20    -0.413209040527E+03    0.59975E-06   -0.19487E-08   781   0.558E-04
   40 T=    70. E= -.41286677E+03 F= -.41320904E+03 E0= -.41318793E+03  EK= 0.34227E+00 SP= 0.00E+00 SK= 0.00E+00
       N       E                     dE             d eps       ncg     rms          rms(c)
RMM:   1    -0.413236288909E+03   -0.27248E-01   -0.11974E+01  4307   0.127E+00    0.945E-01
RMM:   2    -0.413214456816E+03    0.21832E-01   -0.18558E-01  4269   0.141E-01    0.692E-01
RMM:   3    -0.413213059133E+03    0.13977E-02   -0.10096E-02  5050   0.621E-02    0.269E-01
RMM:   4    -0.413269670773E+03   -0.56612E-01   -0.66011E-02  5123   0.214E-01    0.993E-01
RMM:   5    -0.413210919006E+03    0.58752E-01   -0.28335E-02  4769   0.168E-01    0.611E-02
RMM:   6    -0.413211063706E+03   -0.14470E-03   -0.46168E-03  5796   0.642E-02    0.319E-02
RMM:   7    -0.413211085605E+03   -0.21899E-04   -0.55968E-04  5901   0.203E-02    0.217E-02
RMM:   8    -0.413211086116E+03   -0.51146E-06   -0.11940E-04  5277   0.105E-02    0.133E-02
RMM:   9    -0.413211073750E+03    0.12366E-04   -0.24636E-05  4559   0.579E-03    0.558E-03
RMM:  10    -0.413211070049E+03    0.37012E-05   -0.56781E-06  2955   0.293E-03    0.347E-03
RMM:  11    -0.413211066800E+03    0.32486E-05   -0.14727E-06  2506   0.198E-03    0.197E-03
RMM:  12    -0.413211061754E+03    0.50461E-05   -0.89973E-07  2471   0.162E-03    0.639E-04
RMM:  13    -0.413211058946E+03    0.28079E-05   -0.43589E-07  2277   0.114E-03    0.343E-04
RMM:  14    -0.413211057371E+03    0.15751E-05   -0.22664E-07  1799   0.837E-04    0.239E-04
RMM:  15    -0.413211054411E+03    0.29606E-05   -0.13754E-07  1309   0.711E-04    0.111E-04
RMM:  16    -0.413211052589E+03    0.18216E-05   -0.89275E-08  1132   0.658E-04    0.793E-05
RMM:  17    -0.413211050731E+03    0.18577E-05   -0.68961E-08  1115   0.638E-04    0.596E-05
RMM:  18    -0.413211048684E+03    0.20478E-05   -0.53661E-08  1055   0.620E-04    0.303E-05
RMM:  19    -0.413211047016E+03    0.16676E-05   -0.41087E-08  1031   0.601E-04    0.287E-05
RMM:  20    -0.413211046492E+03    0.52448E-06   -0.23200E-08   818   0.561E-04
   41 T=    70. E= -.41286650E+03 F= -.41321105E+03 E0= -.41318997E+03  EK= 0.34455E+00 SP= 0.00E+00 SK= 0.00E+00
       N       E                     dE             d eps       ncg     rms          rms(c)
RMM:   1    -0.413215757756E+03   -0.47107E-02   -0.11786E+01  4309   0.121E+00    0.970E-01
RMM:   2    -0.413216468069E+03   -0.71031E-03   -0.16083E-01  4293   0.137E-01    0.683E-01
RMM:   3    -0.413217239972E+03   -0.77190E-03   -0.12548E-02  5076   0.743E-02    0.304E-01
RMM:   4    -0.413254654088E+03   -0.37414E-01   -0.52861E-02  5093   0.193E-01    0.837E-01
RMM:   5    -0.413213644106E+03    0.41010E-01   -0.18407E-02  4737   0.140E-01    0.574E-02
RMM:   6    -0.413213704447E+03   -0.60342E-04   -0.31684E-03  5757   0.535E-02    0.314E-02
RMM:   7    -0.413213711944E+03   -0.74963E-05   -0.41577E-04  5808   0.183E-02    0.208E-02
RMM:   8    -0.413213708273E+03    0.36709E-05   -0.10761E-04  5193   0.103E-02    0.118E-02
RMM:   9    -0.413213694286E+03    0.13987E-04   -0.19884E-05  4418   0.546E-03    0.472E-03
RMM:  10    -0.413213688920E+03    0.53663E-05   -0.41021E-06  2806   0.260E-03    0.298E-03
RMM:  11    -0.413213683067E+03    0.58525E-05   -0.12311E-06  2499   0.184E-03    0.161E-03
RMM:  12    -0.413213675154E+03    0.79131E-05   -0.69232E-07  2436   0.146E-03    0.582E-04
RMM:  13    -0.413213670965E+03    0.41894E-05   -0.34059E-07  2099   0.101E-03    0.290E-04
RMM:  14    -0.413213668223E+03    0.27413E-05   -0.18341E-07  1557   0.776E-04    0.181E-04
RMM:  15    -0.413213662463E+03    0.57601E-05   -0.13128E-07  1337   0.717E-04    0.127E-04
RMM:  16    -0.413213660159E+03    0.23041E-05   -0.84682E-08  1174   0.655E-04    0.834E-05
RMM:  17    -0.413213656663E+03    0.34957E-05   -0.71537E-08  1233   0.648E-04    0.628E-05
RMM:  18    -0.413213653967E+03    0.26960E-05   -0.55213E-08  1150   0.611E-04    0.360E-05
RMM:  19    -0.413213652274E+03    0.16935E-05   -0.37844E-08   997   0.569E-04    0.311E-05
RMM:  20    -0.413213651977E+03    0.29653E-06   -0.18121E-08   738   0.533E-04
   42 T=    71. E= -.41286670E+03 F= -.41321365E+03 E0= -.41319261E+03  EK= 0.34695E+00 SP= 0.00E+00 SK= 0.00E+00
       N       E                     dE             d eps       ncg     rms          rms(c)
RMM:   1    -0.413221432893E+03   -0.77806E-02   -0.11778E+01  4310   0.129E+00    0.946E-01
RMM:   2    -0.413218678172E+03    0.27547E-02   -0.16583E-01  4300   0.148E-01    0.684E-01
RMM:   3    -0.413220351363E+03   -0.16732E-02   -0.13027E-02  5090   0.800E-02    0.333E-01
RMM:   4    -0.413254380879E+03   -0.34030E-01   -0.52515E-02  5084   0.194E-01    0.813E-01
RMM:   5    -0.413215808397E+03    0.38572E-01   -0.16896E-02  4720   0.136E-01    0.570E-02
RMM:   6    -0.413215856295E+03   -0.47898E-04   -0.29425E-03  5743   0.517E-02    0.306E-02
RMM:   7    -0.413215863254E+03   -0.69586E-05   -0.40034E-04  5788   0.180E-02    0.208E-02
RMM:   8    -0.413215860523E+03    0.27305E-05   -0.10277E-04  5171   0.102E-02    0.112E-02
RMM:   9    -0.413215848748E+03    0.11775E-04   -0.19419E-05  4370   0.540E-03    0.436E-03
RMM:  10    -0.413215845113E+03    0.36347E-05   -0.38179E-06  2756   0.252E-03    0.275E-03
RMM:  11    -0.413215840484E+03    0.46290E-05   -0.12484E-06  2496   0.182E-03    0.147E-03
RMM:  12    -0.413215835019E+03    0.54657E-05   -0.65534E-07  2434   0.139E-03    0.555E-04
RMM:  13    -0.413215831997E+03    0.30219E-05   -0.32215E-07  1955   0.964E-04    0.260E-04
RMM:  14    -0.413215829582E+03    0.24148E-05   -0.18179E-07  1470   0.766E-04    0.156E-04
RMM:  15    -0.413215824972E+03    0.46098E-05   -0.13895E-07  1294   0.720E-04    0.113E-04
RMM:  16    -0.413215823418E+03    0.15541E-05   -0.86668E-08  1137   0.656E-04    0.753E-05
RMM:  17    -0.413215820288E+03    0.31298E-05   -0.77601E-08  1242   0.658E-04    0.594E-05
RMM:  18    -0.413215818000E+03    0.22880E-05   -0.57803E-08  1138   0.612E-04    0.397E-05
RMM:  19    -0.413215817046E+03    0.95426E-06   -0.31336E-08   862   0.559E-04
   43 T=    71. E= -.41286676E+03 F= -.41321582E+03 E0= -.41319480E+03  EK= 0.34905E+00 SP= 0.00E+00 SK= 0.00E+00
       N       E                     dE             d eps       ncg     rms          rms(c)
RMM:   1    -0.413242365901E+03   -0.26548E-01   -0.12094E+01  4311   0.144E+00    0.947E-01
RMM:   2    -0.413220435067E+03    0.21931E-01   -0.19409E-01  4307   0.169E-01    0.701E-01
RMM:   3    -0.413222907886E+03   -0.24728E-02   -0.13536E-02  5093   0.878E-02    0.383E-01
RMM:   4    -0.413255475171E+03   -0.32567E-01   -0.54836E-02  5071   0.199E-01    0.814E-01
RMM:   5    -0.413217169129E+03    0.38306E-01   -0.16778E-02  4715   0.137E-01    0.599E-02
RMM:   6    -0.413217190612E+03   -0.21482E-04   -0.28378E-03  5702   0.513E-02    0.308E-02
RMM:   7    -0.413217195982E+03   -0.53701E-05   -0.38368E-04  5850   0.179E-02    0.214E-02
RMM:   8    -0.413217193579E+03    0.24033E-05   -0.99060E-05  5190   0.101E-02    0.109E-02
RMM:   9    -0.413217183403E+03    0.10176E-04   -0.21084E-05  4418   0.557E-03    0.416E-03
RMM:  10    -0.413217180952E+03    0.24509E-05   -0.39085E-06  2772   0.249E-03    0.249E-03
RMM:  11    -0.413217177318E+03    0.36339E-05   -0.15066E-06  2528   0.188E-03    0.140E-03
RMM:  12    -0.413217173844E+03    0.34741E-05   -0.62942E-07  2444   0.137E-03    0.597E-04
RMM:  13    -0.413217171516E+03    0.23279E-05   -0.31726E-07  1797   0.926E-04    0.264E-04
RMM:  14    -0.413217169306E+03    0.22101E-05   -0.19496E-07  1431   0.771E-04    0.148E-04
RMM:  15    -0.413217166322E+03    0.29842E-05   -0.15127E-07  1344   0.722E-04    0.918E-05
RMM:  16    -0.413217164607E+03    0.17144E-05   -0.97628E-08  1182   0.660E-04    0.681E-05
RMM:  17    -0.413217162416E+03    0.21916E-05   -0.78899E-08  1208   0.641E-04    0.482E-05
RMM:  18    -0.413217160289E+03    0.21273E-05   -0.61206E-08  1108   0.604E-04    0.405E-05
RMM:  19    -0.413217159682E+03    0.60626E-06   -0.32758E-08   843   0.555E-04
   44 T=    71. E= -.41286653E+03 F= -.41321716E+03 E0= -.41319617E+03  EK= 0.35063E+00 SP= 0.00E+00 SK= 0.00E+00
       N       E                     dE             d eps       ncg     rms          rms(c)
RMM:   1    -0.413230408504E+03   -0.13248E-01   -0.11973E+01  4309   0.147E+00    0.977E-01
RMM:   2    -0.413221459321E+03    0.89492E-02   -0.17067E-01  4366   0.172E-01    0.693E-01
RMM:   3    -0.413229907498E+03   -0.84482E-02   -0.19357E-02  5126   0.111E-01    0.480E-01
RMM:   4    -0.413239385537E+03   -0.94780E-02   -0.41946E-02  5034   0.178E-01    0.604E-01
RMM:   5    -0.413219005381E+03    0.20380E-01   -0.76492E-03  4610   0.102E-01    0.528E-02
RMM:   6    -0.413218972183E+03    0.33199E-04   -0.15307E-03  5519   0.378E-02    0.289E-02
RMM:   7    -0.413218970102E+03    0.20803E-05   -0.23758E-04  5611   0.150E-02    0.196E-02
RMM:   8    -0.413218962743E+03    0.73590E-05   -0.98091E-05  5074   0.102E-02    0.944E-03
RMM:   9    -0.413218949213E+03    0.13530E-04   -0.14781E-05  4193   0.519E-03    0.381E-03
RMM:  10    -0.413218945357E+03    0.38565E-05   -0.24720E-06  2666   0.217E-03    0.219E-03
RMM:  11    -0.413218938421E+03    0.69361E-05   -0.11092E-06  2479   0.171E-03    0.120E-03
RMM:  12    -0.413218932401E+03    0.60199E-05   -0.50826E-07  2387   0.126E-03    0.574E-04
RMM:  13    -0.413218928846E+03    0.35548E-05   -0.23344E-07  1733   0.843E-04    0.284E-04
RMM:  14    -0.413218925293E+03    0.35523E-05   -0.13135E-07  1275   0.686E-04    0.150E-04
RMM:  15    -0.413218919976E+03    0.53179E-05   -0.10753E-07  1208   0.671E-04    0.118E-04
RMM:  16    -0.413218917541E+03    0.24350E-05   -0.67311E-08  1071   0.619E-04    0.979E-05
RMM:  17    -0.413218913740E+03    0.38006E-05   -0.62658E-08  1184   0.623E-04    0.622E-05
RMM:  18    -0.413218910799E+03    0.29411E-05   -0.46296E-08  1064   0.584E-04    0.409E-05
RMM:  19    -0.413218910081E+03    0.71780E-06   -0.22793E-08   791   0.529E-04
   45 T=    72. E= -.41286689E+03 F= -.41321891E+03 E0= -.41319794E+03  EK= 0.35202E+00 SP= 0.00E+00 SK= 0.00E+00
       N       E                     dE             d eps       ncg     rms          rms(c)
RMM:   1    -0.413257076588E+03   -0.38166E-01   -0.12139E+01  4309   0.166E+00    0.959E-01
RMM:   2    -0.413221812215E+03    0.35264E-01   -0.18033E-01  4396   0.185E-01    0.689E-01
RMM:   3    -0.413233138921E+03   -0.11327E-01   -0.21439E-02  5126   0.121E-01    0.535E-01
RMM:   4    -0.413236229347E+03   -0.30904E-02   -0.40850E-02  5018   0.177E-01    0.556E-01
RMM:   5    -0.413219408418E+03    0.16821E-01   -0.62789E-03  4575   0.967E-02    0.525E-02
RMM:   6    -0.413219354948E+03    0.53469E-04   -0.11938E-03  5352   0.342E-02    0.280E-02
RMM:   7    -0.413219350936E+03    0.40124E-05   -0.18938E-04  5578   0.135E-02    0.185E-02
RMM:   8    -0.413219345701E+03    0.52345E-05   -0.10748E-04  5110   0.105E-02    0.100E-02
RMM:   9    -0.413219331295E+03    0.14407E-04   -0.16719E-05  4340   0.551E-03    0.392E-03
RMM:  10    -0.413219328262E+03    0.30324E-05   -0.27483E-06  2700   0.221E-03    0.222E-03
RMM:  11    -0.413219321989E+03    0.62730E-05   -0.12519E-06  2485   0.180E-03    0.123E-03
RMM:  12    -0.413219317441E+03    0.45482E-05   -0.52923E-07  2404   0.129E-03    0.657E-04
RMM:  13    -0.413219313957E+03    0.34837E-05   -0.24071E-07  1735   0.865E-04    0.326E-04
RMM:  14    -0.413219310513E+03    0.34439E-05   -0.12849E-07  1277   0.688E-04    0.168E-04
RMM:  15    -0.413219306369E+03    0.41444E-05   -0.97678E-08  1165   0.658E-04    0.115E-04
RMM:  16    -0.413219304139E+03    0.22305E-05   -0.60008E-08  1001   0.609E-04    0.103E-04
RMM:  17    -0.413219301336E+03    0.28024E-05   -0.51961E-08  1035   0.601E-04    0.590E-05
RMM:  18    -0.413219298122E+03    0.32144E-05   -0.52337E-08  1102   0.599E-04    0.478E-05
RMM:  19    -0.413219297668E+03    0.45336E-06   -0.17138E-08   678   0.511E-04
   46 T=    72. E= -.41286670E+03 F= -.41321930E+03 E0= -.41319834E+03  EK= 0.35260E+00 SP= 0.00E+00 SK= 0.00E+00
       N       E                     dE             d eps       ncg     rms          rms(c)
RMM:   1    -0.413240988488E+03   -0.21690E-01   -0.12015E+01  4309   0.167E+00    0.948E-01
RMM:   2    -0.413222222728E+03    0.18766E-01   -0.19126E-01  4375   0.204E-01    0.703E-01
RMM:   3    -0.413233824951E+03   -0.11602E-01   -0.21775E-02  5124   0.127E-01    0.554E-01
RMM:   4    -0.413237683975E+03   -0.38590E-02   -0.43749E-02  5009   0.183E-01    0.580E-01
RMM:   5    -0.413219214758E+03    0.18469E-01   -0.70271E-03  4574   0.102E-01    0.547E-02
RMM:   6    -0.413219152460E+03    0.62298E-04   -0.12978E-03  5374   0.358E-02    0.287E-02
RMM:   7    -0.413219149352E+03    0.31086E-05   -0.20469E-04  5629   0.139E-02    0.199E-02
RMM:   8    -0.413219143216E+03    0.61351E-05   -0.10879E-04  5123   0.105E-02    0.995E-03
RMM:   9    -0.413219130363E+03    0.12853E-04   -0.17777E-05  4346   0.563E-03    0.392E-03
RMM:  10    -0.413219128290E+03    0.20726E-05   -0.28361E-06  2709   0.224E-03    0.226E-03
RMM:  11    -0.413219123982E+03    0.43081E-05   -0.14323E-06  2507   0.186E-03    0.133E-03
RMM:  12    -0.413219120913E+03    0.30693E-05   -0.55978E-07  2422   0.134E-03    0.691E-04
RMM:  13    -0.413219118256E+03    0.26567E-05   -0.27182E-07  1748   0.903E-04    0.332E-04
RMM:  14    -0.413219115770E+03    0.24867E-05   -0.15511E-07  1340   0.725E-04    0.179E-04
RMM:  15    -0.413219112827E+03    0.29423E-05   -0.12162E-07  1252   0.689E-04    0.116E-04
RMM:  16    -0.413219111090E+03    0.17373E-05   -0.76232E-08  1102   0.623E-04    0.104E-04
RMM:  17    -0.413219109238E+03    0.18521E-05   -0.57302E-08  1030   0.598E-04    0.571E-05
RMM:  18    -0.413219106828E+03    0.24100E-05   -0.59149E-08  1059   0.596E-04    0.448E-05
RMM:  19    -0.413219106538E+03    0.28987E-06   -0.20468E-08   689   0.523E-04
   47 T=    72. E= -.41286660E+03 F= -.41321911E+03 E0= -.41319817E+03  EK= 0.35251E+00 SP= 0.00E+00 SK= 0.00E+00
       N       E                     dE             d eps       ncg     rms          rms(c)
RMM:   1    -0.413262002400E+03   -0.42896E-01   -0.12193E+01  4305   0.185E+00    0.973E-01
RMM:   2    -0.413221117807E+03    0.40885E-01   -0.19945E-01  4447   0.209E-01    0.700E-01
RMM:   3    -0.413240120674E+03   -0.19003E-01   -0.28223E-02  5148   0.147E-01    0.663E-01
RMM:   4    -0.413229695346E+03    0.10425E-01   -0.40247E-02  4982   0.179E-01    0.473E-01
RMM:   5    -0.413218503847E+03    0.11191E-01   -0.49068E-03  4524   0.912E-02    0.565E-02
RMM:   6    -0.413218384918E+03    0.11893E-03   -0.60410E-04  4851   0.290E-02    0.291E-02
RMM:   7    -0.413218378879E+03    0.60391E-05   -0.18189E-04  5944   0.135E-02    0.153E-02
RMM:   8    -0.413218371105E+03    0.77736E-05   -0.10177E-04  5192   0.110E-02    0.126E-02
RMM:   9    -0.413218358711E+03    0.12394E-04   -0.20038E-05  4482   0.562E-03    0.469E-03
RMM:  10    -0.413218355028E+03    0.36828E-05   -0.35628E-06  2782   0.278E-03    0.227E-03
RMM:  11    -0.413218349694E+03    0.53339E-05   -0.20662E-06  2504   0.229E-03    0.150E-03
RMM:  12    -0.413218345233E+03    0.44613E-05   -0.80299E-07  2406   0.161E-03    0.916E-04
RMM:  13    -0.413218341525E+03    0.37078E-05   -0.34810E-07  2171   0.105E-03    0.575E-04
RMM:  14    -0.413218336073E+03    0.54522E-05   -0.21220E-07  1835   0.826E-04    0.365E-04
RMM:  15    -0.413218332228E+03    0.38449E-05   -0.11171E-07  1181   0.639E-04    0.170E-04
RMM:  16    -0.413218330215E+03    0.20131E-05   -0.70805E-08  1015   0.589E-04    0.940E-05
RMM:  17    -0.413218326905E+03    0.33096E-05   -0.73548E-08  1110   0.607E-04    0.832E-05
RMM:  18    -0.413218325420E+03    0.14850E-05   -0.36091E-08   862   0.561E-04    0.574E-05
RMM:  19    -0.413218324709E+03    0.71086E-06   -0.19342E-08   706   0.532E-04
   48 T=    72. E= -.41286683E+03 F= -.41321832E+03 E0= -.41319739E+03  EK= 0.35150E+00 SP= 0.00E+00 SK= 0.00E+00
       N       E                     dE             d eps       ncg     rms          rms(c)
RMM:   1    -0.413263280047E+03   -0.44955E-01   -0.12058E+01  4304   0.198E+00    0.965E-01
RMM:   2    -0.413218109651E+03    0.45170E-01   -0.19819E-01  4484   0.222E-01    0.690E-01
RMM:   3    -0.413243774187E+03   -0.25665E-01   -0.34064E-02  5161   0.163E-01    0.746E-01
RMM:   4    -0.413223288070E+03    0.20486E-01   -0.39566E-02  4950   0.181E-01    0.408E-01
RMM:   5    -0.413215618334E+03    0.76697E-02   -0.46779E-03  4630   0.898E-02    0.648E-02
RMM:   6    -0.413215421460E+03    0.19687E-03   -0.47278E-04  4682   0.295E-02    0.326E-02
RMM:   7    -0.413215423393E+03   -0.19336E-05   -0.22516E-04  5771   0.158E-02    0.228E-02
RMM:   8    -0.413215393704E+03    0.29690E-04   -0.81890E-05  5004   0.102E-02    0.880E-03
RMM:   9    -0.413215384610E+03    0.90944E-05   -0.14714E-05  4046   0.482E-03    0.441E-03
RMM:  10    -0.413215379914E+03    0.46956E-05   -0.20079E-06  2581   0.228E-03    0.249E-03
RMM:  11    -0.413215373290E+03    0.66243E-05   -0.10207E-06  2483   0.167E-03    0.156E-03
RMM:  12    -0.413215369615E+03    0.36743E-05   -0.37225E-07  2329   0.110E-03    0.786E-04
RMM:  13    -0.413215363850E+03    0.57654E-05   -0.30997E-07  1926   0.918E-04    0.411E-04
RMM:  14    -0.413215359401E+03    0.44486E-05   -0.18951E-07  1547   0.755E-04    0.332E-04
RMM:  15    -0.413215355004E+03    0.43970E-05   -0.13820E-07  1197   0.671E-04    0.139E-04
RMM:  16    -0.413215352678E+03    0.23262E-05   -0.85711E-08  1147   0.625E-04    0.103E-04
RMM:  17    -0.413215349876E+03    0.28019E-05   -0.75488E-08  1191   0.618E-04    0.751E-05
RMM:  18    -0.413215348640E+03    0.12361E-05   -0.41865E-08   939   0.557E-04    0.612E-05
RMM:  19    -0.413215347308E+03    0.13319E-05   -0.37361E-08   944   0.554E-04    0.304E-05
RMM:  20    -0.413215346805E+03    0.50338E-06   -0.22995E-08   802   0.523E-04
   49 T=    71. E= -.41286644E+03 F= -.41321535E+03 E0= -.41319442E+03  EK= 0.34890E+00 SP= 0.00E+00 SK= 0.00E+00
       N       E                     dE             d eps       ncg     rms          rms(c)
RMM:   1    -0.413240170093E+03   -0.24823E-01   -0.11735E+01  4303   0.200E+00    0.937E-01
RMM:   2    -0.413215070574E+03    0.25100E-01   -0.19770E-01  4502   0.231E-01    0.696E-01
RMM:   3    -0.413240322394E+03   -0.25252E-01   -0.33671E-02  5161   0.164E-01    0.751E-01
RMM:   4    -0.413220308531E+03    0.20014E-01   -0.40879E-02  4945   0.184E-01    0.419E-01
RMM:   5    -0.413212045094E+03    0.82634E-02   -0.51876E-03  4661   0.941E-02    0.677E-02
RMM:   6    -0.413211820415E+03    0.22468E-03   -0.52033E-04  4676   0.311E-02    0.330E-02
RMM:   7    -0.413211820809E+03   -0.39423E-06   -0.23042E-04  5780   0.159E-02    0.228E-02
RMM:   8    -0.413211792761E+03    0.28049E-04   -0.80410E-05  5038   0.995E-03    0.933E-03
RMM:   9    -0.413211785056E+03    0.77045E-05   -0.15945E-05  4146   0.501E-03    0.445E-03
RMM:  10    -0.413211781295E+03    0.37608E-05   -0.24501E-06  2619   0.237E-03    0.257E-03
RMM:  11    -0.413211776759E+03    0.45359E-05   -0.10197E-06  2489   0.169E-03    0.161E-03
RMM:  12    -0.413211774098E+03    0.26616E-05   -0.39237E-07  2355   0.112E-03    0.826E-04
RMM:  13    -0.413211769989E+03    0.41092E-05   -0.36712E-07  2056   0.963E-04    0.466E-04
RMM:  14    -0.413211766944E+03    0.30448E-05   -0.21384E-07  1498   0.767E-04    0.324E-04
[...]
RMM:   5    -0.412978042974E+03   -0.12140E-02   -0.23531E-02  4981   0.192E-01    0.245E-01
RMM:   6    -0.412976318449E+03    0.17245E-02   -0.12668E-02  5079   0.136E-01    0.130E-01
RMM:   7    -0.412975644656E+03    0.67379E-03   -0.16096E-03  4812   0.582E-02    0.720E-02
RMM:   8    -0.412975586941E+03    0.57715E-04   -0.64437E-04  5538   0.305E-02    0.374E-02
RMM:   9    -0.412975569732E+03    0.17209E-04   -0.27777E-04  4816   0.201E-02    0.165E-02
RMM:  10    -0.412975571659E+03   -0.19267E-05   -0.69311E-05  5689   0.975E-03    0.115E-02
RMM:  11    -0.412975570916E+03    0.74358E-06   -0.20462E-05  4507   0.581E-03    0.561E-03
RMM:  12    -0.412975573365E+03   -0.24496E-05   -0.56286E-06  3124   0.326E-03    0.301E-03
RMM:  13    -0.412975574392E+03   -0.10270E-05   -0.15013E-06  2556   0.203E-03    0.158E-03
RMM:  14    -0.412975574775E+03   -0.38304E-06   -0.81171E-07  2449   0.146E-03
  140 T=   135. E= -.41231044E+03 F= -.41297557E+03 E0= -.41295199E+03  EK= 0.66514E+00 SP= 0.00E+00 SK= 0.00E+00
       N       E                     dE             d eps       ncg     rms          rms(c)
RMM:   1    -0.413057854294E+03   -0.82280E-01   -0.11392E+01  4283   0.626E+00    0.833E-01
RMM:   2    -0.413033228362E+03    0.24626E-01   -0.34815E-01  5355   0.636E-01    0.832E-01
RMM:   3    -0.413029843674E+03    0.33847E-02   -0.67698E-02  5589   0.278E-01    0.771E-01
RMM:   4    -0.413016803247E+03    0.13040E-01   -0.29628E-02  5299   0.199E-01    0.392E-01
RMM:   5    -0.413016840696E+03   -0.37450E-04   -0.21940E-02  5054   0.185E-01    0.237E-01
RMM:   6    -0.413015759892E+03    0.10808E-02   -0.99431E-03  5138   0.124E-01    0.129E-01
RMM:   7    -0.413015110619E+03    0.64927E-03   -0.13294E-03  4574   0.546E-02    0.579E-02
RMM:   8    -0.413015091324E+03    0.19295E-04   -0.68564E-04  5798   0.295E-02    0.311E-02
RMM:   9    -0.413015083658E+03    0.76660E-05   -0.22248E-04  5312   0.179E-02    0.178E-02
RMM:  10    -0.413015077863E+03    0.57942E-05   -0.48716E-05  5525   0.869E-03    0.946E-03
RMM:  11    -0.413015078262E+03   -0.39885E-06   -0.22318E-05  4942   0.560E-03    0.630E-03
RMM:  12    -0.413015078318E+03   -0.55967E-07   -0.47339E-06  3028   0.317E-03
  141 T=   143. E= -.41231367E+03 F= -.41301508E+03 E0= -.41299181E+03  EK= 0.70141E+00 SP= 0.00E+00 SK= 0.00E+00
       N       E                     dE             d eps       ncg     rms          rms(c)
RMM:   1    -0.413156146587E+03   -0.14107E+00   -0.12794E+01  4282   0.672E+00    0.900E-01
RMM:   2    -0.413121507285E+03    0.34639E-01   -0.36831E-01  5316   0.690E-01    0.931E-01
RMM:   3    -0.413117045770E+03    0.44615E-02   -0.73882E-02  5579   0.293E-01    0.850E-01
RMM:   4    -0.413102512427E+03    0.14533E-01   -0.34248E-02  5320   0.214E-01    0.460E-01
RMM:   5    -0.413102685584E+03   -0.17316E-03   -0.20805E-02  4977   0.187E-01    0.255E-01
RMM:   6    -0.413102113018E+03    0.57257E-03   -0.12176E-02  5117   0.135E-01    0.147E-01
RMM:   7    -0.413101052622E+03    0.10604E-02   -0.21298E-03  4709   0.660E-02    0.581E-02
RMM:   8    -0.413101041755E+03    0.10866E-04   -0.78489E-04  5863   0.314E-02    0.334E-02
RMM:   9    -0.413101025982E+03    0.15774E-04   -0.21124E-04  5159   0.176E-02    0.156E-02
RMM:  10    -0.413101026359E+03   -0.37721E-06   -0.52774E-05  5648   0.885E-03    0.955E-03
RMM:  11    -0.413101030160E+03   -0.38010E-05   -0.17496E-05  4596   0.524E-03    0.594E-03
RMM:  12    -0.413101034620E+03   -0.44599E-05   -0.37860E-06  2879   0.297E-03    0.245E-03
RMM:  13    -0.413101038324E+03   -0.37040E-05   -0.16945E-06  2595   0.202E-03    0.122E-03
RMM:  14    -0.413101042236E+03   -0.39126E-05   -0.95167E-07  2448   0.153E-03    0.853E-04
RMM:  15    -0.413101046223E+03   -0.39865E-05   -0.66563E-07  2290   0.120E-03    0.466E-04
RMM:  16    -0.413101049486E+03   -0.32632E-05   -0.46044E-07  1902   0.948E-04    0.258E-04
RMM:  17    -0.413101054681E+03   -0.51945E-05   -0.79723E-07  2294   0.112E-03    0.337E-04
RMM:  18    -0.413101057165E+03   -0.24848E-05   -0.33702E-07  1444   0.777E-04    0.150E-04
RMM:  19    -0.413101059722E+03   -0.25563E-05   -0.30826E-07  1634   0.778E-04    0.974E-05
RMM:  20    -0.413101061170E+03   -0.14487E-05   -0.16429E-07  1233   0.652E-04    0.754E-05
RMM:  21    -0.413101062569E+03   -0.13985E-05   -0.11149E-07  1128   0.615E-04    0.407E-05
RMM:  22    -0.413101063521E+03   -0.95211E-06   -0.69130E-08  1026   0.582E-04
  142 T=   160. E= -.41231588E+03 F= -.41310106E+03 E0= -.41307823E+03  EK= 0.78518E+00 SP= 0.00E+00 SK= 0.00E+00
       N       E                     dE             d eps       ncg     rms          rms(c)
RMM:   1    -0.413263528059E+03   -0.16247E+00   -0.14916E+01  4271   0.738E+00    0.875E-01
RMM:   2    -0.413219109963E+03    0.44418E-01   -0.41755E-01  5292   0.758E-01    0.933E-01
RMM:   3    -0.413217310400E+03    0.17996E-02   -0.69729E-02  5659   0.287E-01    0.872E-01
RMM:   4    -0.413203712606E+03    0.13598E-01   -0.24253E-02  5313   0.185E-01    0.534E-01
RMM:   5    -0.413205402371E+03   -0.16898E-02   -0.19559E-02  4874   0.184E-01    0.292E-01
RMM:   6    -0.413204501793E+03    0.90058E-03   -0.13736E-02  4967   0.145E-01    0.148E-01
RMM:   7    -0.413203376035E+03    0.11258E-02   -0.28808E-03  4960   0.728E-02    0.662E-02
RMM:   8    -0.413203317613E+03    0.58423E-04   -0.75226E-04  5757   0.323E-02    0.397E-02
RMM:   9    -0.413203278609E+03    0.39004E-04   -0.24952E-04  4806   0.197E-02    0.146E-02
RMM:  10    -0.413203284225E+03   -0.56157E-05   -0.77703E-05  5821   0.105E-02    0.108E-02
RMM:  11    -0.413203288955E+03   -0.47306E-05   -0.14370E-05  4264   0.497E-03    0.636E-03
RMM:  12    -0.413203297286E+03   -0.83305E-05   -0.60199E-06  3270   0.362E-03    0.276E-03
RMM:  13    -0.413203304307E+03   -0.70213E-05   -0.22330E-06  2671   0.236E-03    0.165E-03
RMM:  14    -0.413203311380E+03   -0.70726E-05   -0.12457E-06  2550   0.176E-03    0.104E-03
RMM:  15    -0.413203318349E+03   -0.69693E-05   -0.10099E-06  2490   0.143E-03    0.648E-04
RMM:  16    -0.413203325669E+03   -0.73204E-05   -0.10578E-06  2386   0.129E-03    0.467E-04
RMM:  17    -0.413203331851E+03   -0.61818E-05   -0.88224E-07  2141   0.113E-03    0.312E-04
RMM:  18    -0.413203336154E+03   -0.43030E-05   -0.60034E-07  1944   0.947E-04    0.193E-04
RMM:  19    -0.413203341416E+03   -0.52617E-05   -0.71385E-07  2003   0.994E-04    0.117E-04
RMM:  20    -0.413203343734E+03   -0.23178E-05   -0.26669E-07  1309   0.711E-04    0.796E-05
RMM:  21    -0.413203345526E+03   -0.17921E-05   -0.14898E-07  1158   0.649E-04    0.523E-05
RMM:  22    -0.413203346280E+03   -0.75385E-06   -0.76815E-08  1026   0.597E-04
  143 T=   180. E= -.41231740E+03 F= -.41320335E+03 E0= -.41318094E+03  EK= 0.88595E+00 SP= 0.00E+00 SK= 0.00E+00
       N       E                     dE             d eps       ncg     rms          rms(c)
RMM:   1    -0.413366969653E+03   -0.16362E+00   -0.17385E+01  4264   0.797E+00    0.927E-01
RMM:   2    -0.413307546993E+03    0.59423E-01   -0.44787E-01  5264   0.815E-01    0.959E-01
RMM:   3    -0.413311742466E+03   -0.41955E-02   -0.65547E-02  5756   0.280E-01    0.943E-01
RMM:   4    -0.413298833283E+03    0.12909E-01   -0.18611E-02  5220   0.164E-01    0.643E-01
RMM:   5    -0.413301868180E+03   -0.30349E-02   -0.27069E-02  4797   0.215E-01    0.318E-01
RMM:   6    -0.413299392792E+03    0.24754E-02   -0.15353E-02  4860   0.156E-01    0.144E-01
RMM:   7    -0.413298563401E+03    0.82939E-03   -0.32811E-03  5294   0.743E-02    0.822E-02
RMM:   8    -0.413298392318E+03    0.17108E-03   -0.64508E-04  5214   0.327E-02    0.449E-02
RMM:   9    -0.413298333064E+03    0.59254E-04   -0.35621E-04  4700   0.233E-02    0.155E-02
RMM:  10    -0.413298340345E+03   -0.72814E-05   -0.10356E-04  5915   0.116E-02    0.116E-02
RMM:  11    -0.413298342869E+03   -0.25241E-05   -0.16690E-05  4383   0.515E-03    0.674E-03
RMM:  12    -0.413298349970E+03   -0.71002E-05   -0.74735E-06  3562   0.388E-03    0.302E-03
RMM:  13    -0.413298356445E+03   -0.64755E-05   -0.19657E-06  2642   0.230E-03    0.180E-03
RMM:  14    -0.413298362538E+03   -0.60932E-05   -0.11182E-06  2537   0.168E-03    0.107E-03
RMM:  15    -0.413298369917E+03   -0.73788E-05   -0.10944E-06  2508   0.148E-03    0.635E-04
RMM:  16    -0.413298375794E+03   -0.58772E-05   -0.82425E-07  2259   0.118E-03    0.436E-04
RMM:  17    -0.413298380607E+03   -0.48126E-05   -0.63017E-07  2051   0.102E-03    0.302E-04
RMM:  18    -0.413298386910E+03   -0.63027E-05   -0.97683E-07  2270   0.114E-03    0.219E-04
RMM:  19    -0.413298391010E+03   -0.41005E-05   -0.53669E-07  1608   0.874E-04    0.122E-04
RMM:  20    -0.413298393352E+03   -0.23422E-05   -0.27469E-07  1433   0.735E-04    0.777E-05
RMM:  21    -0.413298394849E+03   -0.14964E-05   -0.14518E-07  1177   0.636E-04    0.463E-05
RMM:  22    -0.413298395829E+03   -0.98026E-06   -0.81116E-08  1044   0.587E-04
  144 T=   199. E= -.41231903E+03 F= -.41329840E+03 E0= -.41327638E+03  EK= 0.97937E+00 SP= 0.00E+00 SK= 0.00E+00
       N       E                     dE             d eps       ncg     rms          rms(c)
RMM:   1    -0.413443816154E+03   -0.14542E+00   -0.19464E+01  4264   0.841E+00    0.956E-01
RMM:   2    -0.413369566979E+03    0.74249E-01   -0.44945E-01  5231   0.848E-01    0.962E-01
RMM:   3    -0.413375997770E+03   -0.64308E-02   -0.64779E-02  5819   0.279E-01    0.967E-01
RMM:   4    -0.413363756945E+03    0.12241E-01   -0.16603E-02  5168   0.156E-01    0.678E-01
RMM:   5    -0.413367919177E+03   -0.41622E-02   -0.34150E-02  4842   0.237E-01    0.323E-01
RMM:   6    -0.413364182114E+03    0.37371E-02   -0.17467E-02  4860   0.166E-01    0.151E-01
RMM:   7    -0.413363489958E+03    0.69216E-03   -0.35420E-03  5419   0.759E-02    0.913E-02
RMM:   8    -0.413363288452E+03    0.20151E-03   -0.71185E-04  5134   0.344E-02    0.481E-02
RMM:   9    -0.413363211230E+03    0.77222E-04   -0.36010E-04  4657   0.237E-02    0.175E-02
RMM:  10    -0.413363216960E+03   -0.57298E-05   -0.13646E-04  5942   0.131E-02    0.121E-02
RMM:  11    -0.413363216606E+03    0.35327E-06   -0.19395E-05  4558   0.546E-03    0.740E-03
RMM:  12    -0.413363218220E+03   -0.16136E-05   -0.96830E-06  3964   0.419E-03    0.336E-03
RMM:  13    -0.413363220583E+03   -0.23634E-05   -0.18576E-06  2620   0.226E-03    0.197E-03
RMM:  14    -0.413363222904E+03   -0.23203E-05   -0.93286E-07  2491   0.162E-03    0.122E-03
RMM:  15    -0.413363226021E+03   -0.31168E-05   -0.71433E-07  2415   0.135E-03    0.592E-04
RMM:  16    -0.413363228661E+03   -0.26408E-05   -0.47557E-07  2017   0.101E-03    0.336E-04
RMM:  17    -0.413363230894E+03   -0.22328E-05   -0.35286E-07  1775   0.874E-04    0.229E-04
RMM:  18    -0.413363233763E+03   -0.28688E-05   -0.45183E-07  1961   0.893E-04    0.160E-04
RMM:  19    -0.413363236244E+03   -0.24814E-05   -0.31968E-07  1500   0.779E-04    0.115E-04
RMM:  20    -0.413363237796E+03   -0.15518E-05   -0.21685E-07  1399   0.697E-04    0.671E-05
RMM:  21    -0.413363238799E+03   -0.10033E-05   -0.12930E-07  1200   0.616E-04    0.391E-05
RMM:  22    -0.413363239772E+03   -0.97207E-06   -0.85338E-08  1083   0.573E-04
  145 T=   213. E= -.41231687E+03 F= -.41336324E+03 E0= -.41334159E+03  EK= 0.10464E+01 SP= 0.00E+00 SK= 0.00E+00
       N       E                     dE             d eps       ncg     rms          rms(c)
RMM:   1    -0.413519996859E+03   -0.15676E+00   -0.20783E+01  4264   0.876E+00    0.890E-01
RMM:   2    -0.413443534882E+03    0.76462E-01   -0.46422E-01  5243   0.869E-01    0.889E-01
RMM:   3    -0.413443476519E+03    0.58363E-04   -0.79222E-02  5735   0.313E-01    0.879E-01
RMM:   4    -0.413427401332E+03    0.16075E-01   -0.26158E-02  5250   0.194E-01    0.552E-01
RMM:   5    -0.413428926806E+03   -0.15255E-02   -0.20482E-02  4936   0.184E-01    0.280E-01
RMM:   6    -0.413428506613E+03    0.42019E-03   -0.19374E-02  4990   0.170E-01    0.175E-01
RMM:   7    -0.413426943325E+03    0.15633E-02   -0.34032E-03  4795   0.820E-02    0.748E-02
RMM:   8    -0.413426924062E+03    0.19263E-04   -0.10707E-03  5954   0.374E-02    0.434E-02
RMM:   9    -0.413426866207E+03    0.57855E-04   -0.31606E-04  4562   0.227E-02    0.165E-02
RMM:  10    -0.413426867025E+03   -0.81720E-06   -0.10180E-04  5829   0.117E-02    0.111E-02
RMM:  11    -0.413426864450E+03    0.25742E-05   -0.17660E-05  4442   0.528E-03    0.668E-03
RMM:  12    -0.413426863185E+03    0.12657E-05   -0.67651E-06  3395   0.364E-03    0.286E-03
RMM:  13    -0.413426863075E+03    0.10994E-06   -0.16742E-06  2572   0.210E-03
  146 T=   227. E= -.41231080E+03 F= -.41342686E+03 E0= -.41340556E+03  EK= 0.11161E+01 SP= 0.00E+00 SK= 0.00E+00
       N       E                     dE             d eps       ncg     rms          rms(c)
RMM:   1    -0.413696539844E+03   -0.26968E+00   -0.22927E+01  4277   0.923E+00    0.129E+00
RMM:   2    -0.413631318734E+03    0.65221E-01   -0.65806E-01  5336   0.102E+00    0.133E+00
RMM:   3    -0.413615002457E+03    0.16316E-01   -0.16724E-01  5514   0.455E-01    0.124E+00
RMM:   4    -0.413566370706E+03    0.48632E-01   -0.92980E-02  5194   0.358E-01    0.577E-01
RMM:   5    -0.413565229307E+03    0.11414E-02   -0.30473E-02  5098   0.227E-01    0.312E-01
RMM:   6    -0.413564418573E+03    0.81073E-03   -0.24597E-02  5057   0.189E-01    0.201E-01
RMM:   7    -0.413562688828E+03    0.17297E-02   -0.38689E-03  4658   0.916E-02    0.830E-02
RMM:   8    -0.413562678158E+03    0.10669E-04   -0.95126E-04  5616   0.375E-02    0.495E-02
RMM:   9    -0.413562663305E+03    0.14853E-04   -0.39583E-04  4910   0.253E-02    0.245E-02
RMM:  10    -0.413562653525E+03    0.97806E-05   -0.84048E-05  5365   0.115E-02    0.154E-02
RMM:  11    -0.413562650818E+03    0.27066E-05   -0.55768E-05  5475   0.873E-03    0.768E-03
RMM:  12    -0.413562648803E+03    0.20150E-05   -0.88423E-06  3655   0.408E-03    0.500E-03
RMM:  13    -0.413562647245E+03    0.15584E-05   -0.30876E-06  2784   0.274E-03    0.213E-03
RMM:  14    -0.413562646169E+03    0.10755E-05   -0.99863E-07  2477   0.175E-03    0.105E-03
RMM:  15    -0.413562645173E+03    0.99608E-06   -0.65743E-07  2303   0.133E-03
  147 T=   255. E= -.41231142E+03 F= -.41356265E+03 E0= -.41354161E+03  EK= 0.12512E+01 SP= 0.00E+00 SK= 0.00E+00
       N       E                     dE             d eps       ncg     rms          rms(c)
RMM:   1    -0.414010696978E+03   -0.44805E+00   -0.27735E+01  4290   0.990E+00    0.184E+00
RMM:   2    -0.413897120795E+03    0.11358E+00   -0.10641E+00  5376   0.130E+00    0.201E+00
RMM:   3    -0.413866592039E+03    0.30529E-01   -0.30178E-01  5426   0.614E-01    0.184E+00
RMM:   4    -0.413765639289E+03    0.10095E+00   -0.16647E-01  5166   0.483E-01    0.834E-01
RMM:   5    -0.413764628204E+03    0.10111E-02   -0.64990E-02  5280   0.328E-01    0.426E-01
RMM:   6    -0.413760767891E+03    0.38603E-02   -0.44734E-02  5087   0.250E-01    0.243E-01
RMM:   7    -0.413758188727E+03    0.25792E-02   -0.67186E-03  4798   0.119E-01    0.108E-01
RMM:   8    -0.413758065820E+03    0.12291E-03   -0.11545E-03  5206   0.467E-02    0.641E-02
RMM:   9    -0.413758042853E+03    0.22967E-04   -0.57266E-04  5022   0.305E-02    0.326E-02
RMM:  10    -0.413758026390E+03    0.16463E-04   -0.15752E-04  5308   0.158E-02    0.176E-02
RMM:  11    -0.413758024319E+03    0.20706E-05   -0.10239E-04  5808   0.117E-02    0.101E-02
RMM:  12    -0.413758022435E+03    0.18836E-05   -0.18767E-05  4733   0.545E-03    0.747E-03
RMM:  13    -0.413758019679E+03    0.27560E-05   -0.73308E-06  3712   0.382E-03    0.323E-03
RMM:  14    -0.413758018538E+03    0.11414E-05   -0.22686E-06  2624   0.239E-03    0.122E-03
RMM:  15    -0.413758017177E+03    0.13613E-05   -0.10498E-06  2475   0.173E-03    0.646E-04
RMM:  16    -0.413758015312E+03    0.18648E-05   -0.72361E-07  2414   0.140E-03    0.439E-04
RMM:  17    -0.413758013698E+03    0.16140E-05   -0.42386E-07  2307   0.108E-03    0.341E-04
RMM:  18    -0.413758011814E+03    0.18843E-05   -0.25583E-07  1728   0.839E-04    0.292E-04
RMM:  19    -0.413758007576E+03    0.42375E-05   -0.28960E-07  1587   0.813E-04    0.142E-04
RMM:  20    -0.413758005653E+03    0.19229E-05   -0.14522E-07  1264   0.670E-04    0.131E-04
RMM:  21    -0.413758003671E+03    0.19818E-05   -0.10569E-07  1136   0.623E-04    0.729E-05
RMM:  22    -0.413758001848E+03    0.18237E-05   -0.85682E-08  1147   0.604E-04    0.538E-05
RMM:  23    -0.413758001191E+03    0.65684E-06   -0.41466E-08   936   0.557E-04
  148 T=   292. E= -.41232345E+03 F= -.41375800E+03 E0= -.41373699E+03  EK= 0.14345E+01 SP= 0.00E+00 SK= 0.00E+00
       N       E                     dE             d eps       ncg     rms          rms(c)
RMM:   1    -0.414290589065E+03   -0.53259E+00   -0.34257E+01  4290   0.106E+01    0.199E+00
RMM:   2    -0.413957979590E+03    0.33261E+00   -0.13382E+00  5399   0.148E+00    0.217E+00
RMM:   3    -0.413980699769E+03   -0.22720E-01   -0.31948E-01  5527   0.634E-01    0.209E+00
RMM:   4    -0.413868890221E+03    0.11181E+00   -0.14587E-01  5232   0.449E-01    0.116E+00
RMM:   5    -0.413860345942E+03    0.85443E-02   -0.82351E-02  4667   0.401E-01    0.398E-01
RMM:   6    -0.413859385935E+03    0.96001E-03   -0.50694E-02  5174   0.268E-01    0.259E-01
RMM:   7    -0.413855311556E+03    0.40744E-02   -0.98157E-03  4941   0.133E-01    0.126E-01
RMM:   8    -0.413855054513E+03    0.25704E-03   -0.17091E-03  5322   0.546E-02    0.809E-02
RMM:   9    -0.413854914285E+03    0.14023E-03   -0.91580E-04  4498   0.401E-02    0.250E-02
RMM:  10    -0.413854926387E+03   -0.12102E-04   -0.29924E-04  5878   0.203E-02    0.170E-02
RMM:  11    -0.413854923213E+03    0.31737E-05   -0.48091E-05  5043   0.842E-03    0.814E-03
RMM:  12    -0.413854924240E+03   -0.10263E-05   -0.15638E-05  4358   0.498E-03    0.415E-03
RMM:  13    -0.413854925584E+03   -0.13442E-05   -0.34543E-06  2837   0.284E-03    0.230E-03
RMM:  14    -0.413854925842E+03   -0.25825E-06   -0.11676E-06  2538   0.178E-03
  149 T=   307. E= -.41234824E+03 F= -.41385493E+03 E0= -.41383393E+03  EK= 0.15067E+01 SP= 0.00E+00 SK= 0.00E+00
       N       E                     dE             d eps       ncg     rms          rms(c)
RMM:   1    -0.414031708288E+03   -0.17678E+00   -0.35192E+01  4282   0.105E+01    0.244E+00
RMM:   2    -0.413606756747E+03    0.42495E+00   -0.13234E+00  5387   0.147E+00    0.244E+00
RMM:   3    -0.413611059023E+03   -0.43023E-02   -0.21426E-01  5430   0.540E-01    0.193E+00
RMM:   4    -0.413762848894E+03   -0.15179E+00   -0.28317E-01  5344   0.509E-01    0.215E+00
RMM:   5    -0.413581719985E+03    0.18113E+00   -0.18893E-01  4471   0.584E-01    0.527E-01
RMM:   6    -0.413575542228E+03    0.61778E-02   -0.45973E-02  5374   0.262E-01    0.214E-01
RMM:   7    -0.413574962713E+03    0.57951E-03   -0.89291E-03  5514   0.107E-01    0.139E-01
RMM:   8    -0.413574624115E+03    0.33860E-03   -0.24052E-03  5223   0.563E-02    0.912E-02
RMM:   9    -0.413574392827E+03    0.23129E-03   -0.12719E-03  4519   0.482E-02    0.308E-02
RMM:  10    -0.413574412288E+03   -0.19462E-04   -0.42294E-04  5971   0.240E-02    0.203E-02
RMM:  11    -0.413574412864E+03   -0.57623E-06   -0.89313E-05  5332   0.107E-02    0.118E-02
RMM:  12    -0.413574416361E+03   -0.34969E-05   -0.23100E-05  4710   0.616E-03    0.631E-03
RMM:  13    -0.413574420490E+03   -0.41283E-05   -0.57175E-06  3145   0.367E-03    0.373E-03
RMM:  14    -0.413574423215E+03   -0.27255E-05   -0.16860E-06  2609   0.219E-03    0.169E-03
RMM:  15    -0.413574425228E+03   -0.20129E-05   -0.93596E-07  2518   0.151E-03    0.714E-04
RMM:  16    -0.413574426794E+03   -0.15662E-05   -0.60380E-07  2194   0.115E-03    0.386E-04
RMM:  17    -0.413574428111E+03   -0.13172E-05   -0.47139E-07  2021   0.100E-03    0.229E-04
RMM:  18    -0.413574429058E+03   -0.94621E-06   -0.34584E-07  1713   0.862E-04
  150 T=   249. E= -.41234914E+03 F= -.41357443E+03 E0= -.41355364E+03  EK= 0.12253E+01 SP= 0.00E+00 SK= 0.00E+00
