       N       E                     dE             d eps       ncg     rms          rms(c)
RMM:   1     0.220124298916E+04    0.22012E+04   -0.52442E+04  2132   0.654E+02
RMM:   2     0.705717020091E+03   -0.14955E+04   -0.16261E+04  2132   0.177E+02
RMM:   3     0.137945923973E+03   -0.56777E+03   -0.65698E+03  2132   0.117E+02
RMM:   4    -0.159383889017E+03   -0.29733E+03   -0.27863E+03  2132   0.936E+01
RMM:   5    -0.287513144355E+03   -0.12813E+03   -0.11444E+03  2132   0.595E+01
RMM:   6    -0.349979728626E+03   -0.62467E+02   -0.55123E+02  2132   0.423E+01
RMM:   7    -0.382822476654E+03   -0.32843E+02   -0.30370E+02  2132   0.293E+01
RMM:   8    -0.404259751766E+03   -0.21437E+02   -0.18407E+02  2132   0.233E+01
RMM:   9    -0.435973671048E+03   -0.31714E+02   -0.30601E+02  6100   0.173E+01
RMM:  10    -0.441307324219E+03   -0.53337E+01   -0.63241E+01  6393   0.539E+00
RMM:  11    -0.442513958290E+03   -0.12066E+01   -0.11163E+01  6214   0.173E+00
RMM:  12    -0.442886387570E+03   -0.37243E+00   -0.26999E+00  6367   0.599E-01    0.134E+02
RMM:  13    -0.425505285273E+03    0.17381E+02   -0.80357E+01  4675   0.119E+01    0.712E+01
RMM:  14    -0.498043336602E+03   -0.72538E+02   -0.53293E+02  5417   0.231E+01    0.305E+01
RMM:  15    -0.415657479575E+03    0.82386E+02   -0.19739E+02  5086   0.163E+01    0.685E+00
RMM:  16    -0.414037381474E+03    0.16201E+01   -0.39251E+01  6078   0.607E+00    0.428E+00
RMM:  17    -0.413216387280E+03    0.82099E+00   -0.24554E+00  5380   0.186E+00    0.245E+00
RMM:  18    -0.413169950919E+03    0.46436E-01   -0.81794E-01  5970   0.927E-01    0.164E+00
RMM:  19    -0.413168444287E+03    0.15066E-02   -0.27164E-01  5701   0.556E-01    0.868E-01
RMM:  20    -0.413186189427E+03   -0.17745E-01   -0.25228E-01  5522   0.527E-01    0.589E-01
RMM:  21    -0.413167495305E+03    0.18694E-01   -0.33844E-02  4991   0.231E-01    0.275E-01
RMM:  22    -0.413165034089E+03    0.24612E-02   -0.18748E-02  5958   0.123E-01    0.135E-01
RMM:  23    -0.413164046857E+03    0.98723E-03   -0.58617E-03  6036   0.687E-02    0.833E-02
RMM:  24    -0.413162960862E+03    0.10860E-02   -0.15813E-03  5226   0.401E-02    0.461E-02
RMM:  25    -0.413162581038E+03    0.37982E-03   -0.82552E-04  5319   0.268E-02    0.334E-02
RMM:  26    -0.413162775089E+03   -0.19405E-03   -0.86259E-04  5826   0.300E-02    0.337E-02
RMM:  27    -0.413163196344E+03   -0.42125E-03   -0.18440E-04  4548   0.193E-02    0.192E-02
RMM:  28    -0.413163655669E+03   -0.45933E-03   -0.18077E-04  5258   0.188E-02    0.839E-03
RMM:  29    -0.413164042533E+03   -0.38686E-03   -0.10248E-04  4454   0.150E-02    0.458E-03
RMM:  30    -0.413164267749E+03   -0.22522E-03   -0.73008E-05  4147   0.993E-03    0.361E-03
RMM:  31    -0.413164398698E+03   -0.13095E-03   -0.50761E-05  3148   0.681E-03    0.295E-03
RMM:  32    -0.413164425832E+03   -0.27134E-04   -0.19654E-05  2973   0.303E-03    0.165E-03
RMM:  33    -0.413164440271E+03   -0.14439E-04   -0.82783E-06  2804   0.232E-03    0.539E-04
RMM:  34    -0.413164443572E+03   -0.33011E-05   -0.45513E-06  2642   0.162E-03    0.733E-04
RMM:  35    -0.413164443685E+03   -0.11246E-06   -0.21156E-06  2293   0.119E-03
    1 T=    61. E= -.41286662E+03 F= -.41316444E+03 E0= -.41314195E+03  EK= 0.29782E+00 SP= 0.00E+00 SK= 0.00E+00
       N       E                     dE             d eps       ncg     rms          rms(c)
RMM:   1    -0.413154386557E+03    0.10057E-01   -0.11192E+01  3998   0.701E-01    0.887E-01
RMM:   2    -0.413165437866E+03   -0.11051E-01   -0.13810E-01  3887   0.100E-01    0.640E-01
RMM:   3    -0.413164005400E+03    0.14325E-02   -0.62373E-03  4686   0.352E-02    0.155E-01
RMM:   4    -0.413180141740E+03   -0.16136E-01   -0.16820E-02  5216   0.108E-01    0.532E-01
RMM:   5    -0.413163736481E+03    0.16405E-01   -0.81447E-03  4853   0.888E-02    0.267E-02
RMM:   6    -0.413163836688E+03   -0.10021E-03   -0.12975E-03  5844   0.347E-02    0.145E-02
RMM:   7    -0.413163850730E+03   -0.14042E-04   -0.16218E-04  5686   0.107E-02    0.109E-02
RMM:   8    -0.413163857308E+03   -0.65779E-05   -0.19458E-05  3759   0.413E-03    0.644E-03
RMM:   9    -0.413163864430E+03   -0.71215E-05   -0.37102E-06  2722   0.239E-03    0.413E-03
RMM:  10    -0.413163872936E+03   -0.85064E-05   -0.17994E-06  2547   0.188E-03    0.207E-03
RMM:  11    -0.413163880160E+03   -0.72234E-05   -0.12373E-06  2524   0.152E-03    0.945E-04
RMM:  12    -0.413163883586E+03   -0.34269E-05   -0.63722E-07  2290   0.111E-03    0.378E-04
RMM:  13    -0.413163885667E+03   -0.20809E-05   -0.37647E-07  1699   0.828E-04    0.212E-04
RMM:  14    -0.413163888146E+03   -0.24783E-05   -0.31401E-07  1432   0.753E-04    0.147E-04
RMM:  15    -0.413163889673E+03   -0.15274E-05   -0.22565E-07  1237   0.683E-04    0.814E-05
RMM:  16    -0.413163890500E+03   -0.82713E-06   -0.17565E-07  1156   0.640E-04
    2 T=    61. E= -.41286614E+03 F= -.41316389E+03 E0= -.41314139E+03  EK= 0.29775E+00 SP= 0.00E+00 SK= 0.00E+00
       N       E                     dE             d eps       ncg     rms          rms(c)
RMM:   1    -0.413155606238E+03    0.82834E-02   -0.11228E+01  4184   0.707E-01    0.912E-01
RMM:   2    -0.413165461346E+03   -0.98551E-02   -0.13526E-01  3897   0.959E-02    0.633E-01
RMM:   3    -0.413164886234E+03    0.57511E-03   -0.67767E-03  4886   0.384E-02    0.171E-01
RMM:   4    -0.413194680289E+03   -0.29794E-01   -0.30239E-02  5181   0.145E-01    0.719E-01
RMM:   5    -0.413164474191E+03    0.30206E-01   -0.14668E-02  4830   0.120E-01    0.370E-02
RMM:   6    -0.413164650860E+03   -0.17667E-03   -0.23511E-03  5798   0.468E-02    0.184E-02
RMM:   7    -0.413164664041E+03   -0.13181E-04   -0.27646E-04  5889   0.138E-02    0.136E-02
RMM:   8    -0.413164664893E+03   -0.85264E-06   -0.35001E-05  4341   0.514E-03    0.861E-03
RMM:   9    -0.413164664290E+03    0.60326E-06   -0.54615E-06  2920   0.266E-03
    3 T=    61. E= -.41286662E+03 F= -.41316466E+03 E0= -.41314217E+03  EK= 0.29804E+00 SP= 0.00E+00 SK= 0.00E+00
       N       E                     dE             d eps       ncg     rms          rms(c)
RMM:   1    -0.413155060868E+03    0.96040E-02   -0.11141E+01  4227   0.705E-01    0.895E-01
RMM:   2    -0.413165554856E+03   -0.10494E-01   -0.13409E-01  4142   0.971E-02    0.627E-01
RMM:   3    -0.413167665081E+03   -0.21102E-02   -0.89100E-03  5176   0.637E-02    0.288E-01
RMM:   4    -0.413195242878E+03   -0.27578E-01   -0.41363E-02  5140   0.171E-01    0.731E-01
RMM:   5    -0.413164268563E+03    0.30974E-01   -0.13142E-02  4738   0.122E-01    0.537E-02
RMM:   6    -0.413164327080E+03   -0.58517E-04   -0.22290E-03  5590   0.468E-02    0.160E-02
RMM:   7    -0.413164352136E+03   -0.25056E-04   -0.30804E-04  6045   0.150E-02    0.118E-02
RMM:   8    -0.413164355403E+03   -0.32670E-05   -0.38508E-05  4638   0.545E-03    0.744E-03
RMM:   9    -0.413164357400E+03   -0.19970E-05   -0.65964E-06  3036   0.352E-03    0.356E-03
RMM:  10    -0.413164359384E+03   -0.19844E-05   -0.19594E-06  2555   0.219E-03    0.212E-03
RMM:  11    -0.413164361543E+03   -0.21586E-05   -0.99376E-07  2538   0.155E-03    0.976E-04
RMM:  12    -0.413164362704E+03   -0.11606E-05   -0.46182E-07  2082   0.104E-03    0.449E-04
RMM:  13    -0.413164363982E+03   -0.12782E-05   -0.38202E-07  1815   0.897E-04    0.228E-04
RMM:  14    -0.413164364545E+03   -0.56352E-06   -0.20902E-07  1359   0.724E-04
    4 T=    61. E= -.41286636E+03 F= -.41316436E+03 E0= -.41314188E+03  EK= 0.29801E+00 SP= 0.00E+00 SK= 0.00E+00
       N       E                     dE             d eps       ncg     rms          rms(c)
RMM:   1    -0.413154834790E+03    0.95292E-02   -0.11179E+01  4235   0.711E-01    0.884E-01
RMM:   2    -0.413165820644E+03   -0.10986E-01   -0.13829E-01  3899   0.947E-02    0.639E-01
RMM:   3    -0.413164806501E+03    0.10141E-02   -0.63165E-03  4968   0.357E-02    0.166E-01
RMM:   4    -0.413196695642E+03   -0.31889E-01   -0.32682E-02  5161   0.151E-01    0.744E-01
RMM:   5    -0.413164254321E+03    0.32441E-01   -0.15710E-02  4815   0.124E-01    0.368E-02
RMM:   6    -0.413164440102E+03   -0.18578E-03   -0.25063E-03  5783   0.483E-02    0.164E-02
RMM:   7    -0.413164459690E+03   -0.19588E-04   -0.29004E-04  5882   0.139E-02    0.129E-02
RMM:   8    -0.413164464727E+03   -0.50371E-05   -0.36080E-05  4320   0.516E-03    0.823E-03
RMM:   9    -0.413164469085E+03   -0.43576E-05   -0.54592E-06  2895   0.268E-03    0.564E-03
RMM:  10    -0.413164476204E+03   -0.71197E-05   -0.22518E-06  2568   0.218E-03    0.271E-03
RMM:  11    -0.413164481968E+03   -0.57636E-05   -0.14541E-06  2542   0.177E-03    0.135E-03
RMM:  12    -0.413164485367E+03   -0.33995E-05   -0.73191E-07  2433   0.132E-03    0.480E-04
RMM:  13    -0.413164486880E+03   -0.15131E-05   -0.32958E-07  1990   0.928E-04    0.292E-04
RMM:  14    -0.413164488607E+03   -0.17264E-05   -0.23993E-07  1546   0.787E-04    0.183E-04
RMM:  15    -0.413164490110E+03   -0.15027E-05   -0.20261E-07  1424   0.732E-04    0.128E-04
RMM:  16    -0.413164490474E+03   -0.36475E-06   -0.10317E-07  1129   0.638E-04
    5 T=    61. E= -.41286635E+03 F= -.41316449E+03 E0= -.41314201E+03  EK= 0.29814E+00 SP= 0.00E+00 SK= 0.00E+00
       N       E                     dE             d eps       ncg     rms          rms(c)
RMM:   1    -0.413155864243E+03    0.86259E-02   -0.11236E+01  4248   0.716E-01    0.907E-01
RMM:   2    -0.413166114967E+03   -0.10251E-01   -0.13517E-01  3952   0.953E-02    0.635E-01
RMM:   3    -0.413165340340E+03    0.77463E-03   -0.65622E-03  4862   0.363E-02    0.168E-01
RMM:   4    -0.413193211728E+03   -0.27871E-01   -0.28199E-02  5163   0.140E-01    0.696E-01
RMM:   5    -0.413164943820E+03    0.28268E-01   -0.13823E-02  4817   0.116E-01    0.352E-02
RMM:   6    -0.413165106937E+03   -0.16312E-03   -0.21827E-03  5790   0.450E-02    0.178E-02
RMM:   7    -0.413165118600E+03   -0.11663E-04   -0.25372E-04  5840   0.132E-02    0.131E-02
RMM:   8    -0.413165119643E+03   -0.10424E-05   -0.32097E-05  4255   0.499E-03    0.835E-03
RMM:   9    -0.413165119256E+03    0.38713E-06   -0.50751E-06  2861   0.263E-03
    6 T=    61. E= -.41286663E+03 F= -.41316512E+03 E0= -.41314266E+03  EK= 0.29849E+00 SP= 0.00E+00 SK= 0.00E+00
       N       E                     dE             d eps       ncg     rms          rms(c)
RMM:   1    -0.413155511311E+03    0.96083E-02   -0.11176E+01  4266   0.722E-01    0.902E-01
RMM:   2    -0.413165403416E+03   -0.98921E-02   -0.13462E-01  4225   0.995E-02    0.628E-01
RMM:   3    -0.413167583988E+03   -0.21806E-02   -0.88517E-03  5143   0.617E-02    0.279E-01
RMM:   4    -0.413196693172E+03   -0.29109E-01   -0.41808E-02  5128   0.172E-01    0.744E-01
RMM:   5    -0.413164511826E+03    0.32181E-01   -0.13856E-02  4749   0.124E-01    0.532E-02
RMM:   6    -0.413164584021E+03   -0.72194E-04   -0.23070E-03  5609   0.475E-02    0.160E-02
RMM:   7    -0.413164609284E+03   -0.25263E-04   -0.31426E-04  6038   0.150E-02    0.120E-02
RMM:   8    -0.413164611395E+03   -0.21117E-05   -0.39044E-05  4599   0.548E-03    0.756E-03
RMM:   9    -0.413164610216E+03    0.11791E-05   -0.62755E-06  2943   0.342E-03    0.353E-03
RMM:  10    -0.413164610252E+03   -0.35539E-07   -0.20592E-06  2552   0.219E-03
    7 T=    61. E= -.41286613E+03 F= -.41316461E+03 E0= -.41314216E+03  EK= 0.29848E+00 SP= 0.00E+00 SK= 0.00E+00
       N       E                     dE             d eps       ncg     rms          rms(c)
RMM:   1    -0.413155581346E+03    0.90289E-02   -0.11172E+01  4272   0.724E-01    0.883E-01
RMM:   2    -0.413166660132E+03   -0.11079E-01   -0.13753E-01  4054   0.953E-02    0.637E-01
RMM:   3    -0.413165996396E+03    0.66374E-03   -0.65475E-03  5033   0.411E-02    0.184E-01
RMM:   4    -0.413208250877E+03   -0.42254E-01   -0.44599E-02  5150   0.175E-01    0.853E-01
RMM:   5    -0.413165158959E+03    0.43092E-01   -0.20717E-02  4804   0.143E-01    0.445E-02
RMM:   6    -0.413165374597E+03   -0.21564E-03   -0.32880E-03  5770   0.554E-02    0.165E-02
RMM:   7    -0.413165404264E+03   -0.29667E-04   -0.39128E-04  5953   0.158E-02    0.137E-02
RMM:   8    -0.413165408816E+03   -0.45525E-05   -0.45418E-05  4444   0.560E-03    0.871E-03
RMM:   9    -0.413165412142E+03   -0.33255E-05   -0.67637E-06  2962   0.276E-03    0.584E-03
RMM:  10    -0.413165417870E+03   -0.57288E-05   -0.27145E-06  2592   0.232E-03    0.273E-03
RMM:  11    -0.413165422159E+03   -0.42884E-05   -0.14976E-06  2543   0.180E-03    0.128E-03
RMM:  12    -0.413165424735E+03   -0.25760E-05   -0.82820E-07  2456   0.136E-03    0.426E-04
RMM:  13    -0.413165426193E+03   -0.14585E-05   -0.40353E-07  2041   0.976E-04    0.297E-04
RMM:  14    -0.413165427485E+03   -0.12912E-05   -0.31509E-07  1669   0.831E-04    0.206E-04
RMM:  15    -0.413165428092E+03   -0.60692E-06   -0.19465E-07  1352   0.723E-04
    8 T=    61. E= -.41286663E+03 F= -.41316543E+03 E0= -.41314300E+03  EK= 0.29879E+00 SP= 0.00E+00 SK= 0.00E+00
       N       E                     dE             d eps       ncg     rms          rms(c)
RMM:   1    -0.413156101246E+03    0.93262E-02   -0.11240E+01  4284   0.729E-01    0.901E-01
RMM:   2    -0.413166563012E+03   -0.10462E-01   -0.13663E-01  4129   0.102E-01    0.638E-01
RMM:   3    -0.413165719681E+03    0.84333E-03   -0.65328E-03  4862   0.385E-02    0.168E-01
RMM:   4    -0.413195444136E+03   -0.29724E-01   -0.30268E-02  5153   0.145E-01    0.719E-01
RMM:   5    -0.413165202152E+03    0.30242E-01   -0.14819E-02  4809   0.120E-01    0.355E-02
RMM:   6    -0.413165382645E+03   -0.18049E-03   -0.23324E-03  5798   0.465E-02    0.174E-02
RMM:   7    -0.413165394584E+03   -0.11939E-04   -0.26855E-04  5857   0.136E-02    0.132E-02
RMM:   8    -0.413165395774E+03   -0.11902E-05   -0.33783E-05  4299   0.510E-03    0.849E-03
RMM:   9    -0.413165395624E+03    0.14989E-06   -0.53507E-06  2893   0.268E-03
    9 T=    61. E= -.41286637E+03 F= -.41316540E+03 E0= -.41314299E+03  EK= 0.29902E+00 SP= 0.00E+00 SK= 0.00E+00
       N       E                     dE             d eps       ncg     rms          rms(c)
RMM:   1    -0.413156556308E+03    0.88395E-02   -0.11226E+01  4293   0.734E-01    0.910E-01
RMM:   2    -0.413166209416E+03   -0.96531E-02   -0.13474E-01  4256   0.984E-02    0.629E-01
RMM:   3    -0.413169129796E+03   -0.29204E-02   -0.95168E-03  5138   0.666E-02    0.299E-01
RMM:   4    -0.413194126481E+03   -0.24997E-01   -0.39427E-02  5113   0.167E-01    0.705E-01
RMM:   5    -0.413165551774E+03    0.28575E-01   -0.12069E-02  4733   0.117E-01    0.524E-02
RMM:   6    -0.413165596694E+03   -0.44919E-04   -0.20287E-03  5577   0.445E-02    0.168E-02
RMM:   7    -0.413165615649E+03   -0.18955E-04   -0.28136E-04  6041   0.145E-02    0.120E-02
RMM:   8    -0.413165616168E+03   -0.51885E-06   -0.34973E-05  4569   0.532E-03    0.745E-03
RMM:   9    -0.413165612307E+03    0.38609E-05   -0.66846E-06  3034   0.358E-03    0.355E-03
RMM:  10    -0.413165610955E+03    0.13513E-05   -0.19092E-06  2551   0.216E-03    0.210E-03
RMM:  11    -0.413165609471E+03    0.14840E-05   -0.95762E-07  2527   0.153E-03    0.957E-04
RMM:  12    -0.413165608594E+03    0.87748E-06   -0.44637E-07  2086   0.103E-03
   10 T=    61. E= -.41286629E+03 F= -.41316561E+03 E0= -.41314322E+03  EK= 0.29932E+00 SP= 0.00E+00 SK= 0.00E+00
       N       E                     dE             d eps       ncg     rms          rms(c)
RMM:   1    -0.413156719262E+03    0.88902E-02   -0.11178E+01  4289   0.737E-01    0.885E-01
RMM:   2    -0.413167729393E+03   -0.11010E-01   -0.13650E-01  4180   0.954E-02    0.634E-01
RMM:   3    -0.413166687085E+03    0.10423E-02   -0.61899E-03  4889   0.380E-02    0.167E-01
RMM:   4    -0.413196048599E+03   -0.29362E-01   -0.29970E-02  5149   0.144E-01    0.715E-01
RMM:   5    -0.413166135641E+03    0.29913E-01   -0.14708E-02  4808   0.119E-01    0.348E-02
RMM:   6    -0.413166316531E+03   -0.18089E-03   -0.23314E-03  5800   0.462E-02    0.170E-02
RMM:   7    -0.413166331070E+03   -0.14539E-04   -0.26422E-04  5835   0.134E-02    0.130E-02
RMM:   8    -0.413166333333E+03   -0.22636E-05   -0.34392E-05  4352   0.513E-03    0.861E-03
RMM:   9    -0.413166333910E+03   -0.57684E-06   -0.54689E-06  2909   0.271E-03
   11 T=    61. E= -.41286657E+03 F= -.41316633E+03 E0= -.41314397E+03  EK= 0.29976E+00 SP= 0.00E+00 SK= 0.00E+00
       N       E                     dE             d eps       ncg     rms          rms(c)
RMM:   1    -0.413156689681E+03    0.96437E-02   -0.11258E+01  4295   0.744E-01    0.896E-01
RMM:   2    -0.413167323855E+03   -0.10634E-01   -0.13824E-01  4266   0.988E-02    0.641E-01
RMM:   3    -0.413169848188E+03   -0.25243E-02   -0.92787E-03  5141   0.665E-02    0.301E-01
RMM:   4    -0.413198432057E+03   -0.28584E-01   -0.44251E-02  5111   0.177E-01    0.746E-01
RMM:   5    -0.413166018507E+03    0.32414E-01   -0.13703E-02  4723   0.124E-01    0.534E-02
RMM:   6    -0.413166089741E+03   -0.71234E-04   -0.23264E-03  5601   0.472E-02    0.147E-02
RMM:   7    -0.413166116254E+03   -0.26513E-04   -0.31262E-04  6026   0.150E-02    0.114E-02
RMM:   8    -0.413166119510E+03   -0.32558E-05   -0.38983E-05  4615   0.543E-03    0.723E-03
RMM:   9    -0.413166121749E+03   -0.22396E-05   -0.67582E-06  3037   0.355E-03    0.369E-03
RMM:  10    -0.413166123568E+03   -0.18188E-05   -0.21229E-06  2553   0.223E-03    0.220E-03
RMM:  11    -0.413166125217E+03   -0.16494E-05   -0.11409E-06  2544   0.159E-03    0.983E-04
RMM:  12    -0.413166125942E+03   -0.72421E-06   -0.48803E-07  2153   0.106E-03
   12 T=    61. E= -.41286610E+03 F= -.41316613E+03 E0= -.41314379E+03  EK= 0.30002E+00 SP= 0.00E+00 SK= 0.00E+00
       N       E                     dE             d eps       ncg     rms          rms(c)
RMM:   1    -0.413157769561E+03    0.83557E-02   -0.11286E+01  4299   0.748E-01    0.915E-01
RMM:   2    -0.413167571581E+03   -0.98020E-02   -0.13489E-01  4198   0.935E-02    0.632E-01
RMM:   3    -0.413167119198E+03    0.45238E-03   -0.67815E-03  4924   0.361E-02    0.173E-01
RMM:   4    -0.413197114580E+03   -0.29995E-01   -0.30510E-02  5148   0.145E-01    0.721E-01
RMM:   5    -0.413166685576E+03    0.30429E-01   -0.14956E-02  4808   0.120E-01    0.368E-02
RMM:   6    -0.413166864999E+03   -0.17942E-03   -0.23713E-03  5813   0.464E-02    0.190E-02
RMM:   7    -0.413166874289E+03   -0.92905E-05   -0.26756E-04  5847   0.136E-02    0.138E-02
RMM:   8    -0.413166872408E+03    0.18812E-05   -0.35317E-05  4401   0.522E-03    0.909E-03
RMM:   9    -0.413166868040E+03    0.43683E-05   -0.56695E-06  2931   0.273E-03    0.621E-03
RMM:  10    -0.413166863707E+03    0.43332E-05   -0.20910E-06  2550   0.215E-03    0.303E-03
RMM:  11    -0.413166860504E+03    0.32021E-05   -0.15517E-06  2542   0.185E-03    0.150E-03
RMM:  12    -0.413166857977E+03    0.25278E-05   -0.74487E-07  2439   0.138E-03    0.513E-04
RMM:  13    -0.413166857095E+03    0.88171E-06   -0.32391E-07  2048   0.943E-04
   13 T=    61. E= -.41286626E+03 F= -.41316686E+03 E0= -.41314456E+03  EK= 0.30059E+00 SP= 0.00E+00 SK= 0.00E+00
       N       E                     dE             d eps       ncg     rms          rms(c)
RMM:   1    -0.413157896914E+03    0.89611E-02   -0.11201E+01  4297   0.755E-01    0.889E-01
RMM:   2    -0.413168407071E+03   -0.10510E-01   -0.13694E-01  4215   0.968E-02    0.632E-01
RMM:   3    -0.413167635490E+03    0.77158E-03   -0.62866E-03  4859   0.365E-02    0.168E-01
RMM:   4    -0.413195578916E+03   -0.27943E-01   -0.28532E-02  5142   0.140E-01    0.698E-01
RMM:   5    -0.413167129993E+03    0.28449E-01   -0.13980E-02  4809   0.116E-01    0.341E-02
RMM:   6    -0.413167298753E+03   -0.16876E-03   -0.22074E-03  5809   0.448E-02    0.170E-02
RMM:   7    -0.413167310005E+03   -0.11252E-04   -0.24973E-04  5813   0.132E-02    0.128E-02
RMM:   8    -0.413167310040E+03   -0.35041E-07   -0.32631E-05  4305   0.505E-03    0.843E-03
RMM:   9    -0.413167308387E+03    0.16533E-05   -0.51083E-06  2873   0.266E-03    0.582E-03
RMM:  10    -0.413167307494E+03    0.89343E-06   -0.20355E-06  2550   0.213E-03
   14 T=    61. E= -.41286623E+03 F= -.41316731E+03 E0= -.41314504E+03  EK= 0.30107E+00 SP= 0.00E+00 SK= 0.00E+00
       N       E                     dE             d eps       ncg     rms          rms(c)
RMM:   1    -0.413157800361E+03    0.95080E-02   -0.11293E+01  4306   0.757E-01    0.892E-01
RMM:   2    -0.413169163075E+03   -0.11363E-01   -0.13952E-01  4286   0.992E-02    0.643E-01
RMM:   3    -0.413170980279E+03   -0.18172E-02   -0.89304E-03  5124   0.649E-02    0.292E-01
RMM:   4    -0.413202682340E+03   -0.31702E-01   -0.46394E-02  5109   0.180E-01    0.776E-01
RMM:   5    -0.413167474093E+03    0.35208E-01   -0.15137E-02  4737   0.128E-01    0.508E-02
RMM:   6    -0.413167568953E+03   -0.94860E-04   -0.24630E-03  5630   0.488E-02    0.139E-02
RMM:   7    -0.413167595450E+03   -0.26496E-04   -0.31523E-04  6018   0.149E-02    0.113E-02
RMM:   8    -0.413167598796E+03   -0.33463E-05   -0.38589E-05  4535   0.539E-03    0.695E-03
RMM:   9    -0.413167600623E+03   -0.18277E-05   -0.58700E-06  2863   0.319E-03    0.342E-03
RMM:  10    -0.413167602397E+03   -0.17739E-05   -0.23310E-06  2570   0.216E-03    0.200E-03
RMM:  11    -0.413167603580E+03   -0.11831E-05   -0.10270E-06  2531   0.148E-03    0.837E-04
RMM:  12    -0.413167604211E+03   -0.63045E-06   -0.48948E-07  1950   0.103E-03
   15 T=    61. E= -.41286615E+03 F= -.41316760E+03 E0= -.41314537E+03  EK= 0.30145E+00 SP= 0.00E+00 SK= 0.00E+00
       N       E                     dE             d eps       ncg     rms          rms(c)
RMM:   1    -0.413159632207E+03    0.79714E-02   -0.11340E+01  4302   0.770E-01    0.917E-01
RMM:   2    -0.413169399180E+03   -0.97670E-02   -0.13633E-01  4239   0.101E-01    0.635E-01
RMM:   3    -0.413168857867E+03    0.54131E-03   -0.67994E-03  4913   0.389E-02    0.175E-01
RMM:   4    -0.413201075819E+03   -0.32218E-01   -0.32991E-02  5144   0.151E-01    0.747E-01
RMM:   5    -0.413168289033E+03    0.32787E-01   -0.16046E-02  4806   0.125E-01    0.378E-02
RMM:   6    -0.413168477346E+03   -0.18831E-03   -0.25585E-03  5800   0.483E-02    0.190E-02
RMM:   7    -0.413168485386E+03   -0.80399E-05   -0.28955E-04  5859   0.143E-02    0.140E-02
RMM:   8    -0.413168482297E+03    0.30891E-05   -0.37675E-05  4455   0.539E-03    0.936E-03
RMM:   9    -0.413168476848E+03    0.54485E-05   -0.59290E-06  2951   0.280E-03    0.645E-03
RMM:  10    -0.413168471357E+03    0.54916E-05   -0.21777E-06  2553   0.224E-03    0.315E-03
RMM:  11    -0.413168467241E+03    0.41154E-05   -0.16039E-06  2531   0.191E-03    0.155E-03
RMM:  12    -0.413168464258E+03    0.29830E-05   -0.75491E-07  2434   0.141E-03    0.522E-04
RMM:  13    -0.413168463125E+03    0.11330E-05   -0.33703E-07  2097   0.965E-04    0.318E-04
RMM:  14    -0.413168461461E+03    0.16644E-05   -0.21084E-07  1638   0.788E-04    0.184E-04
RMM:  15    -0.413168459071E+03    0.23900E-05   -0.18895E-07  1507   0.739E-04    0.138E-04
RMM:  16    -0.413168458445E+03    0.62617E-06   -0.80035E-08  1069   0.617E-04
   16 T=    61. E= -.41286638E+03 F= -.41316846E+03 E0= -.41314626E+03  EK= 0.30208E+00 SP= 0.00E+00 SK= 0.00E+00
       N       E                     dE             d eps       ncg     rms          rms(c)
RMM:   1    -0.413159413855E+03    0.90452E-02   -0.11249E+01  4293   0.762E-01    0.896E-01
RMM:   2    -0.413170024695E+03   -0.10611E-01   -0.13724E-01  4243   0.990E-02    0.631E-01
RMM:   3    -0.413169202161E+03    0.82253E-03   -0.64386E-03  4894   0.417E-02    0.177E-01
RMM:   4    -0.413203852245E+03   -0.34650E-01   -0.35574E-02  5144   0.156E-01    0.773E-01
RMM:   5    -0.413168678563E+03    0.35174E-01   -0.17289E-02  4799   0.129E-01    0.384E-02
RMM:   6    -0.413168879376E+03   -0.20081E-03   -0.27543E-03  5785   0.498E-02    0.185E-02
RMM:   7    -0.413168892012E+03   -0.12636E-04   -0.31109E-04  5874   0.146E-02    0.140E-02
RMM:   8    -0.413168890657E+03    0.13547E-05   -0.39455E-05  4443   0.541E-03    0.925E-03
RMM:   9    -0.413168886954E+03    0.37034E-05   -0.62121E-06  2960   0.277E-03    0.641E-03
RMM:  10    -0.413168883393E+03    0.35607E-05   -0.22199E-06  2553   0.223E-03    0.307E-03
RMM:  11    -0.413168881068E+03    0.23253E-05   -0.15587E-06  2526   0.188E-03    0.154E-03
RMM:  12    -0.413168879256E+03    0.18121E-05   -0.75874E-07  2446   0.142E-03    0.519E-04
RMM:  13    -0.413168878536E+03    0.71971E-06   -0.33812E-07  2107   0.971E-04
   17 T=    62. E= -.41286623E+03 F= -.41316888E+03 E0= -.41314672E+03  EK= 0.30265E+00 SP= 0.00E+00 SK= 0.00E+00
       N       E                     dE             d eps       ncg     rms          rms(c)
RMM:   1    -0.413159609485E+03    0.92698E-02   -0.11333E+01  4297   0.770E-01    0.890E-01
RMM:   2    -0.413171086233E+03   -0.11477E-01   -0.13994E-01  4248   0.100E-01    0.644E-01
RMM:   3    -0.413169759317E+03    0.13269E-02   -0.62309E-03  4882   0.377E-02    0.168E-01
RMM:   4    -0.413200084343E+03   -0.30325E-01   -0.31124E-02  5149   0.146E-01    0.726E-01
RMM:   5    -0.413169210075E+03    0.30874E-01   -0.15191E-02  4805   0.121E-01    0.352E-02
RMM:   6    -0.413169396031E+03   -0.18596E-03   -0.24212E-03  5802   0.467E-02    0.169E-02
RMM:   7    -0.413169409583E+03   -0.13552E-04   -0.27029E-04  5831   0.136E-02    0.130E-02
RMM:   8    -0.413169410670E+03   -0.10870E-05   -0.35077E-05  4363   0.518E-03    0.862E-03
RMM:   9    -0.413169409790E+03    0.88031E-06   -0.55807E-06  2915   0.273E-03
   18 T=    62. E= -.41286608E+03 F= -.41316941E+03 E0= -.41314729E+03  EK= 0.30333E+00 SP= 0.00E+00 SK= 0.00E+00
       N       E                     dE             d eps       ncg     rms          rms(c)
RMM:   1    -0.413161306453E+03    0.81042E-02   -0.11394E+01  4298   0.774E-01    0.916E-01
RMM:   2    -0.413171442647E+03   -0.10136E-01   -0.13842E-01  4309   0.990E-02    0.639E-01
RMM:   3    -0.413174403987E+03   -0.29613E-02   -0.96659E-03  5138   0.673E-02    0.310E-01
RMM:   4    -0.413199781513E+03   -0.25378E-01   -0.41468E-02  5097   0.171E-01    0.713E-01
RMM:   5    -0.413170429439E+03    0.29352E-01   -0.12315E-02  4716   0.118E-01    0.519E-02
RMM:   6    -0.413170479868E+03   -0.50429E-04   -0.20668E-03  5571   0.444E-02    0.162E-02
RMM:   7    -0.413170495854E+03   -0.15986E-04   -0.28191E-04  6019   0.145E-02    0.118E-02
RMM:   8    -0.413170494417E+03    0.14370E-05   -0.35622E-05  4585   0.531E-03    0.739E-03
RMM:   9    -0.413170487150E+03    0.72672E-05   -0.64244E-06  2962   0.356E-03    0.366E-03
RMM:  10    -0.413170483635E+03    0.35150E-05   -0.19359E-06  2534   0.217E-03    0.210E-03
RMM:  11    -0.413170479771E+03    0.38641E-05   -0.95365E-07  2521   0.154E-03    0.951E-04
RMM:  12    -0.413170477580E+03    0.21905E-05   -0.44843E-07  2147   0.105E-03    0.457E-04
RMM:  13    -0.413170474745E+03    0.28351E-05   -0.34389E-07  1828   0.896E-04    0.236E-04
RMM:  14    -0.413170473094E+03    0.16509E-05   -0.19177E-07  1404   0.728E-04    0.145E-04
RMM:  15    -0.413170470315E+03    0.27791E-05   -0.20438E-07  1519   0.746E-04    0.943E-05
RMM:  16    -0.413170468677E+03    0.16384E-05   -0.12301E-07  1288   0.648E-04    0.861E-05
RMM:  17    -0.413170465967E+03    0.27101E-05   -0.12850E-07  1333   0.648E-04    0.372E-05
RMM:  18    -0.413170464826E+03    0.11413E-05   -0.63802E-08   951   0.548E-04    0.220E-05
RMM:  19    -0.413170464112E+03    0.71376E-06   -0.36292E-08   819   0.524E-04
   19 T=    62. E= -.41286619E+03 F= -.41317046E+03 E0= -.41314839E+03  EK= 0.30428E+00 SP= 0.00E+00 SK= 0.00E+00
       N       E                     dE             d eps       ncg     rms          rms(c)
RMM:   1    -0.413161641814E+03    0.88230E-02   -0.11348E+01  4295   0.782E-01    0.906E-01
RMM:   2    -0.413172032557E+03   -0.10391E-01   -0.13737E-01  4237   0.988E-02    0.632E-01
RMM:   3    -0.413171591114E+03    0.44144E-03   -0.66424E-03  4981   0.404E-02    0.187E-01
RMM:   4    -0.413211597969E+03   -0.40007E-01   -0.42069E-02  5143   0.170E-01    0.830E-01
RMM:   5    -0.413170855206E+03    0.40743E-01   -0.19889E-02  4795   0.139E-01    0.426E-02
RMM:   6    -0.413171073286E+03   -0.21808E-03   -0.31549E-03  5775   0.537E-02    0.191E-02
RMM:   7    -0.413171086721E+03   -0.13435E-04   -0.36361E-04  5872   0.156E-02    0.147E-02
RMM:   8    -0.413171084339E+03    0.23826E-05   -0.45277E-05  4561   0.573E-03    0.967E-03
RMM:   9    -0.413171078784E+03    0.55542E-05   -0.68782E-06  3009   0.282E-03    0.662E-03
RMM:  10    -0.413171072811E+03    0.59735E-05   -0.24295E-06  2557   0.230E-03    0.310E-03
RMM:  11    -0.413171068768E+03    0.40427E-05   -0.15382E-06  2522   0.190E-03    0.152E-03
RMM:  12    -0.413171065895E+03    0.28734E-05   -0.76401E-07  2445   0.143E-03    0.504E-04
RMM:  13    -0.413171064800E+03    0.10951E-05   -0.33570E-07  2132   0.984E-04    0.329E-04
RMM:  14    -0.413171063424E+03    0.13755E-05   -0.19101E-07  1649   0.778E-04    0.189E-04
RMM:  15    -0.413171061109E+03    0.23149E-05   -0.16155E-07  1492   0.730E-04    0.129E-04
RMM:  16    -0.413171060558E+03    0.55163E-06   -0.71860E-08  1071   0.614E-04
   20 T=    62. E= -.41286597E+03 F= -.41317106E+03 E0= -.41314903E+03  EK= 0.30509E+00 SP= 0.00E+00 SK= 0.00E+00
       N       E                     dE             d eps       ncg     rms          rms(c)
RMM:   1    -0.413162869974E+03    0.81911E-02   -0.11399E+01  4296   0.793E-01    0.891E-01
RMM:   2    -0.413173379419E+03   -0.10509E-01   -0.14189E-01  4247   0.101E-01    0.644E-01
RMM:   3    -0.413172381108E+03    0.99831E-03   -0.63678E-03  4939   0.401E-02    0.178E-01
RMM:   4    -0.413210350029E+03   -0.37969E-01   -0.39587E-02  5139   0.165E-01    0.810E-01
RMM:   5    -0.413171615042E+03    0.38735E-01   -0.19043E-02  4795   0.135E-01    0.396E-02
RMM:   6    -0.413171835680E+03   -0.22064E-03   -0.30485E-03  5799   0.524E-02    0.178E-02
RMM:   7    -0.413171853330E+03   -0.17650E-04   -0.34174E-04  5871   0.153E-02    0.140E-02
RMM:   8    -0.413171853620E+03   -0.28965E-06   -0.43791E-05  4527   0.564E-03    0.939E-03
RMM:   9    -0.413171851298E+03    0.23217E-05   -0.67648E-06  3002   0.283E-03    0.660E-03
RMM:  10    -0.413171850076E+03    0.12221E-05   -0.24364E-06  2570   0.233E-03    0.319E-03
RMM:  11    -0.413171849489E+03    0.58721E-06   -0.17275E-06  2541   0.196E-03
   21 T=    62. E= -.41286594E+03 F= -.41317185E+03 E0= -.41314986E+03  EK= 0.30591E+00 SP= 0.00E+00 SK= 0.00E+00
       N       E                     dE             d eps       ncg     rms          rms(c)
RMM:   1    -0.413166285066E+03    0.55650E-02   -0.11499E+01  4299   0.810E-01    0.913E-01
RMM:   2    -0.413174141960E+03   -0.78569E-02   -0.13982E-01  4267   0.993E-02    0.643E-01
RMM:   3    -0.413174239677E+03   -0.97717E-04   -0.72019E-03  5040   0.484E-02    0.213E-01
RMM:   4    -0.413219541357E+03   -0.45302E-01   -0.50866E-02  5130   0.187E-01    0.887E-01
RMM:   5    -0.413172883622E+03    0.46658E-01   -0.22237E-02  4783   0.148E-01    0.469E-02
RMM:   6    -0.413173102430E+03   -0.21881E-03   -0.35174E-03  5753   0.572E-02    0.184E-02
RMM:   7    -0.413173123216E+03   -0.20786E-04   -0.41651E-04  5952   0.166E-02    0.149E-02
RMM:   8    -0.413173121653E+03    0.15624E-05   -0.51082E-05  4694   0.601E-03    0.974E-03
RMM:   9    -0.413173116229E+03    0.54237E-05   -0.73411E-06  3028   0.291E-03    0.623E-03
RMM:  10    -0.413173110598E+03    0.56319E-05   -0.26926E-06  2573   0.239E-03    0.285E-03
RMM:  11    -0.413173106600E+03    0.39972E-05   -0.14316E-06  2514   0.185E-03    0.136E-03
RMM:  12    -0.413173103387E+03    0.32139E-05   -0.78112E-07  2460   0.141E-03    0.449E-04
RMM:  13    -0.413173101720E+03    0.16669E-05   -0.33754E-07  2099   0.977E-04    0.311E-04
RMM:  14    -0.413173099445E+03    0.22750E-05   -0.21904E-07  1658   0.797E-04    0.205E-04
RMM:  15    -0.413173097132E+03    0.23127E-05   -0.15301E-07  1445   0.717E-04    0.115E-04
RMM:  16    -0.413173096223E+03    0.90915E-06   -0.80773E-08  1129   0.626E-04
   22 T=    62. E= -.41286631E+03 F= -.41317310E+03 E0= -.41315115E+03  EK= 0.30679E+00 SP= 0.00E+00 SK= 0.00E+00
       N       E                     dE             d eps       ncg     rms          rms(c)
RMM:   1    -0.413164401332E+03    0.86958E-02   -0.11461E+01  4297   0.792E-01    0.916E-01
RMM:   2    -0.413174639996E+03   -0.10239E-01   -0.13890E-01  4272   0.108E-01    0.635E-01
RMM:   3    -0.413174173326E+03    0.46667E-03   -0.67784E-03  4905   0.433E-02    0.184E-01
RMM:   4    -0.413211509164E+03   -0.37336E-01   -0.38607E-02  5145   0.163E-01    0.802E-01
RMM:   5    -0.413173498360E+03    0.38011E-01   -0.18628E-02  4796   0.135E-01    0.403E-02
RMM:   6    -0.413173701157E+03   -0.20280E-03   -0.29825E-03  5801   0.521E-02    0.198E-02
RMM:   7    -0.413173710747E+03   -0.95905E-05   -0.32743E-04  5884   0.152E-02    0.147E-02
RMM:   8    -0.413173706739E+03    0.40082E-05   -0.43288E-05  4586   0.572E-03    0.993E-03
RMM:   9    -0.413173699296E+03    0.74429E-05   -0.67472E-06  3004   0.292E-03    0.684E-03
RMM:  10    -0.413173691185E+03    0.81106E-05   -0.23369E-06  2556   0.235E-03    0.336E-03
RMM:  11    -0.413173684716E+03    0.64692E-05   -0.16752E-06  2527   0.200E-03    0.167E-03
RMM:  12    -0.413173680149E+03    0.45670E-05   -0.79269E-07  2454   0.149E-03    0.556E-04
RMM:  13    -0.413173678533E+03    0.16162E-05   -0.35135E-07  2155   0.101E-03    0.354E-04
RMM:  14    -0.413173676676E+03    0.18570E-05   -0.19046E-07  1640   0.780E-04    0.202E-04
RMM:  15    -0.413173672682E+03    0.39934E-05   -0.18272E-07  1672   0.768E-04    0.182E-04
RMM:  16    -0.413173671971E+03    0.71147E-06   -0.73111E-08  1072   0.609E-04
   23 T=    63. E= -.41286603E+03 F= -.41317367E+03 E0= -.41315178E+03  EK= 0.30764E+00 SP= 0.00E+00 SK= 0.00E+00
       N       E                     dE             d eps       ncg     rms          rms(c)
RMM:   1    -0.413165216684E+03    0.84560E-02   -0.11456E+01  4294   0.795E-01    0.894E-01
RMM:   2    -0.413176815595E+03   -0.11599E-01   -0.14251E-01  4269   0.104E-01    0.643E-01
RMM:   3    -0.413175527158E+03    0.12884E-02   -0.61891E-03  4785   0.402E-02    0.171E-01
RMM:   4    -0.413202407597E+03   -0.26880E-01   -0.27280E-02  5150   0.138E-01    0.683E-01
RMM:   5    -0.413175133086E+03    0.27275E-01   -0.13508E-02  4804   0.113E-01    0.324E-02
RMM:   6    -0.413175282652E+03   -0.14957E-03   -0.21304E-03  5808   0.436E-02    0.165E-02
RMM:   7    -0.413175292205E+03   -0.95528E-05   -0.21908E-04  5735   0.126E-02    0.118E-02
RMM:   8    -0.413175291696E+03    0.50910E-06   -0.31488E-05  4328   0.494E-03    0.860E-03
RMM:   9    -0.413175287619E+03    0.40764E-05   -0.54196E-06  2945   0.278E-03    0.588E-03
RMM:  10    -0.413175284822E+03    0.27976E-05   -0.18883E-06  2538   0.214E-03    0.296E-03
RMM:  11    -0.413175282669E+03    0.21522E-05   -0.14990E-06  2525   0.186E-03    0.151E-03
RMM:  12    -0.413175280997E+03    0.16721E-05   -0.67118E-07  2423   0.135E-03    0.552E-04
RMM:  13    -0.413175280354E+03    0.64343E-06   -0.28845E-07  1991   0.917E-04
   24 T=    63. E= -.41286637E+03 F= -.41317528E+03 E0= -.41315343E+03  EK= 0.30891E+00 SP= 0.00E+00 SK= 0.00E+00
       N       E                     dE             d eps       ncg     rms          rms(c)
RMM:   1    -0.413167126463E+03    0.81545E-02   -0.11578E+01  4296   0.813E-01    0.910E-01
RMM:   2    -0.413177834015E+03   -0.10708E-01   -0.14194E-01  4269   0.107E-01    0.648E-01
RMM:   3    -0.413176528497E+03    0.13055E-02   -0.63849E-03  4812   0.414E-02    0.173E-01
RMM:   4    -0.413205125490E+03   -0.28597E-01   -0.28900E-02  5148   0.142E-01    0.703E-01
RMM:   5    -0.413176158597E+03    0.28967E-01   -0.14397E-02  4809   0.117E-01    0.333E-02
RMM:   6    -0.413176309510E+03   -0.15091E-03   -0.21955E-03  5808   0.451E-02    0.172E-02
RMM:   7    -0.413176317887E+03   -0.83769E-05   -0.23227E-04  5756   0.130E-02    0.122E-02
RMM:   8    -0.413176316015E+03    0.18725E-05   -0.33028E-05  4394   0.507E-03    0.885E-03
RMM:   9    -0.413176310626E+03    0.53891E-05   -0.57338E-06  2971   0.283E-03    0.602E-03
RMM:  10    -0.413176305959E+03    0.46667E-05   -0.19814E-06  2546   0.221E-03    0.299E-03
RMM:  11    -0.413176302165E+03    0.37937E-05   -0.15491E-06  2532   0.189E-03    0.150E-03
RMM:  12    -0.413176299445E+03    0.27200E-05   -0.67014E-07  2422   0.136E-03    0.538E-04
RMM:  13    -0.413176298384E+03    0.10608E-05   -0.29173E-07  2008   0.918E-04    0.327E-04
RMM:  14    -0.413176296958E+03    0.14267E-05   -0.16554E-07  1515   0.748E-04    0.186E-04
RMM:  15    -0.413176294246E+03    0.27113E-05   -0.16270E-07  1606   0.745E-04    0.191E-04
RMM:  16    -0.413176293621E+03    0.62509E-06   -0.61273E-08   977   0.592E-04
   25 T=    63. E= -.41286629E+03 F= -.41317629E+03 E0= -.41315450E+03  EK= 0.31000E+00 SP= 0.00E+00 SK= 0.00E+00
       N       E                     dE             d eps       ncg     rms          rms(c)
RMM:   1    -0.413167878663E+03    0.84156E-02   -0.11601E+01  4294   0.814E-01    0.925E-01
RMM:   2    -0.413178207754E+03   -0.10329E-01   -0.14137E-01  4271   0.110E-01    0.640E-01
RMM:   3    -0.413177548284E+03    0.65947E-03   -0.66584E-03  4727   0.400E-02    0.175E-01
RMM:   4    -0.413201234165E+03   -0.23686E-01   -0.23864E-02  5149   0.129E-01    0.642E-01
RMM:   5    -0.413177240843E+03    0.23993E-01   -0.11979E-02  4807   0.106E-01    0.323E-02
RMM:   6    -0.413177364062E+03   -0.12322E-03   -0.18723E-03  5813   0.408E-02    0.173E-02
RMM:   7    -0.413177368016E+03   -0.39540E-05   -0.18602E-04  5585   0.116E-02    0.112E-02
RMM:   8    -0.413177362878E+03    0.51379E-05   -0.25081E-05  4035   0.448E-03    0.814E-03
RMM:   9    -0.413177355539E+03    0.73389E-05   -0.54837E-06  2987   0.278E-03    0.557E-03
RMM:  10    -0.413177348265E+03    0.72743E-05   -0.16613E-06  2523   0.211E-03    0.292E-03
RMM:  11    -0.413177340600E+03    0.76648E-05   -0.13979E-06  2514   0.186E-03    0.148E-03
RMM:  12    -0.413177335718E+03    0.48820E-05   -0.58921E-07  2402   0.132E-03    0.557E-04
RMM:  13    -0.413177333937E+03    0.17815E-05   -0.25349E-07  1985   0.891E-04    0.330E-04
RMM:  14    -0.413177331776E+03    0.21606E-05   -0.13455E-07  1444   0.718E-04    0.179E-04
RMM:  15    -0.413177327091E+03    0.46851E-05   -0.15214E-07  1714   0.750E-04    0.236E-04
RMM:  16    -0.413177326226E+03    0.86530E-06   -0.48410E-08   924   0.575E-04
   26 T=    63. E= -.41286602E+03 F= -.41317733E+03 E0= -.41315558E+03  EK= 0.31131E+00 SP= 0.00E+00 SK= 0.00E+00
       N       E                     dE             d eps       ncg     rms          rms(c)
RMM:   1    -0.413169221940E+03    0.81052E-02   -0.11573E+01  4295   0.815E-01    0.900E-01
RMM:   2    -0.413180474372E+03   -0.11252E-01   -0.14299E-01  4270   0.102E-01    0.643E-01
RMM:   3    -0.413179604497E+03    0.86987E-03   -0.62987E-03  4761   0.413E-02    0.175E-01
RMM:   4    -0.413205897161E+03   -0.26293E-01   -0.26522E-02  5153   0.136E-01    0.676E-01
RMM:   5    -0.413179241473E+03    0.26656E-01   -0.13304E-02  4808   0.112E-01    0.322E-02
RMM:   6    -0.413179381930E+03   -0.14046E-03   -0.20722E-03  5817   0.433E-02    0.167E-02
RMM:   7    -0.413179389538E+03   -0.76085E-05   -0.21148E-04  5703   0.123E-02    0.116E-02
RMM:   8    -0.413179387520E+03    0.20180E-05   -0.30308E-05  4300   0.488E-03    0.859E-03
RMM:   9    -0.413179382138E+03    0.53818E-05   -0.55244E-06  2970   0.281E-03    0.587E-03
RMM:  10    -0.413179377388E+03    0.47505E-05   -0.18448E-06  2539   0.217E-03    0.297E-03
RMM:  11    -0.413179373542E+03    0.38460E-05   -0.14516E-06  2519   0.186E-03    0.153E-03
RMM:  12    -0.413179370697E+03    0.28446E-05   -0.64216E-07  2417   0.135E-03    0.545E-04
RMM:  13    -0.413179369659E+03    0.10377E-05   -0.27389E-07  1981   0.905E-04    0.328E-04
RMM:  14    -0.413179368346E+03    0.13137E-05   -0.14818E-07  1475   0.733E-04    0.183E-04
RMM:  15    -0.413179365717E+03    0.26285E-05   -0.14600E-07  1613   0.736E-04    0.195E-04
RMM:  16    -0.413179365105E+03    0.61241E-06   -0.52812E-08   950   0.585E-04
   27 T=    64. E= -.41286634E+03 F= -.41317937E+03 E0= -.41315767E+03  EK= 0.31302E+00 SP= 0.00E+00 SK= 0.00E+00
       N       E                     dE             d eps       ncg     rms          rms(c)
RMM:   1    -0.413172112387E+03    0.72533E-02   -0.11728E+01  4291   0.839E-01    0.909E-01
RMM:   2    -0.413181596656E+03   -0.94843E-02   -0.14716E-01  4270   0.110E-01    0.655E-01
RMM:   3    -0.413180489071E+03    0.11076E-02   -0.63969E-03  4638   0.430E-02    0.172E-01
RMM:   4    -0.413200955813E+03   -0.20467E-01   -0.20749E-02  5152   0.121E-01    0.600E-01
RMM:   5    -0.413180088944E+03    0.20867E-01   -0.10361E-02  4807   0.990E-02    0.284E-02
RMM:   6    -0.413180192823E+03   -0.10388E-03   -0.16243E-03  5835   0.379E-02    0.151E-02
RMM:   7    -0.413180198168E+03   -0.53456E-05   -0.15482E-04  5481   0.107E-02    0.985E-03
RMM:   8    -0.413180195332E+03    0.28367E-05   -0.19599E-05  3743   0.404E-03    0.706E-03
RMM:   9    -0.413180190974E+03    0.43578E-05   -0.47192E-06  2901   0.268E-03    0.469E-03
RMM:  10    -0.413180188277E+03    0.26967E-05   -0.15518E-06  2526   0.201E-03    0.265E-03
RMM:  11    -0.413180184540E+03    0.37377E-05   -0.12295E-06  2510   0.174E-03    0.134E-03
RMM:  12    -0.413180182284E+03    0.22560E-05   -0.50896E-07  2374   0.122E-03    0.548E-04
RMM:  13    -0.413180181240E+03    0.10437E-05   -0.21481E-07  1804   0.831E-04    0.293E-04
RMM:  14    -0.413180179375E+03    0.18647E-05   -0.14356E-07  1520   0.728E-04    0.155E-04
RMM:  15    -0.413180177216E+03    0.21589E-05   -0.10755E-07  1391   0.675E-04    0.158E-04
RMM:  16    -0.413180176485E+03    0.73168E-06   -0.43798E-08   911   0.571E-04
   28 T=    64. E= -.41286568E+03 F= -.41318018E+03 E0= -.41315853E+03  EK= 0.31450E+00 SP= 0.00E+00 SK= 0.00E+00
       N       E                     dE             d eps       ncg     rms          rms(c)
RMM:   1    -0.413172896895E+03    0.72803E-02   -0.11793E+01  4293   0.840E-01    0.934E-01
RMM:   2    -0.413183363725E+03   -0.10467E-01   -0.14460E-01  4269   0.111E-01    0.647E-01
RMM:   3    -0.413182621225E+03    0.74250E-03   -0.67980E-03  4513   0.433E-02    0.175E-01
RMM:   4    -0.413195828556E+03   -0.13207E-01   -0.13268E-02  5161   0.970E-02    0.481E-01
RMM:   5    -0.413182560182E+03    0.13268E-01   -0.66378E-03  4823   0.789E-02    0.262E-02
RMM:   6    -0.413182608837E+03   -0.48655E-04   -0.10380E-03  5845   0.300E-02    0.156E-02
RMM:   7    -0.413182609417E+03   -0.57959E-06   -0.11167E-04  5468   0.945E-03    0.105E-02
RMM:   8    -0.413182601518E+03    0.78994E-05   -0.15454E-05  3782   0.402E-03    0.641E-03
RMM:   9    -0.413182594666E+03    0.68513E-05   -0.30945E-06  2694   0.247E-03    0.407E-03
RMM:  10    -0.413182587029E+03    0.76376E-05   -0.10986E-06  2499   0.175E-03    0.212E-03
RMM:  11    -0.413182580413E+03    0.66159E-05   -0.79749E-07  2471   0.143E-03    0.104E-03
RMM:  12    -0.413182575369E+03    0.50439E-05   -0.40630E-07  2267   0.107E-03    0.404E-04
RMM:  13    -0.413182573665E+03    0.17044E-05   -0.17560E-07  1560   0.761E-04    0.230E-04
RMM:  14    -0.413182570657E+03    0.30080E-05   -0.11121E-07  1275   0.686E-04    0.128E-04
RMM:  15    -0.413182566653E+03    0.40037E-05   -0.96884E-08  1359   0.680E-04    0.112E-04
RMM:  16    -0.413182565536E+03    0.11173E-05   -0.47068E-08   963   0.583E-04    0.876E-05
RMM:  17    -0.413182561117E+03    0.44181E-05   -0.84002E-08  1365   0.649E-04    0.610E-05
RMM:  18    -0.413182560359E+03    0.75873E-06   -0.28850E-08   811   0.527E-04
   29 T=    64. E= -.41286614E+03 F= -.41318256E+03 E0= -.41316096E+03  EK= 0.31642E+00 SP= 0.00E+00 SK= 0.00E+00
       N       E                     dE             d eps       ncg     rms          rms(c)
RMM:   1    -0.413174364826E+03    0.81963E-02   -0.11753E+01  4289   0.850E-01    0.911E-01
RMM:   2    -0.413185426832E+03   -0.11062E-01   -0.14726E-01  4264   0.109E-01    0.646E-01
RMM:   3    -0.413184316667E+03    0.11102E-02   -0.63926E-03  4449   0.428E-02    0.173E-01
RMM:   4    -0.413192263655E+03   -0.79470E-02   -0.84245E-03  5148   0.802E-02    0.377E-01
RMM:   5    -0.413184180868E+03    0.80828E-02   -0.39948E-03  4827   0.615E-02    0.210E-02
RMM:   6    -0.413184199239E+03   -0.18370E-04   -0.60629E-04  5836   0.235E-02    0.138E-02
RMM:   7    -0.413184197233E+03    0.20060E-05   -0.73187E-05  5266   0.814E-03    0.889E-03
RMM:   8    -0.413184190350E+03    0.68829E-05   -0.87267E-06  3185   0.349E-03    0.465E-03
RMM:   9    -0.413184185385E+03    0.49648E-05   -0.19379E-06  2574   0.215E-03    0.277E-03
RMM:  10    -0.413184180148E+03    0.52369E-05   -0.86872E-07  2488   0.151E-03    0.147E-03
RMM:  11    -0.413184175961E+03    0.41874E-05   -0.51939E-07  2331   0.116E-03    0.636E-04
RMM:  12    -0.413184172710E+03    0.32511E-05   -0.28015E-07  1917   0.898E-04    0.229E-04
RMM:  13    -0.413184170722E+03    0.19878E-05   -0.14261E-07  1313   0.711E-04    0.138E-04
RMM:  14    -0.413184168039E+03    0.26822E-05   -0.10721E-07  1280   0.680E-04    0.961E-05
RMM:  15    -0.413184165301E+03    0.27389E-05   -0.85578E-08  1238   0.650E-04    0.653E-05
RMM:  16    -0.413184163872E+03    0.14285E-05   -0.50748E-08   994   0.591E-04    0.469E-05
RMM:  17    -0.413184161404E+03    0.24681E-05   -0.59644E-08  1174   0.604E-04    0.232E-05
RMM:  18    -0.413184160724E+03    0.67973E-06   -0.24341E-08   776   0.528E-04
   30 T=    65. E= -.41286609E+03 F= -.41318416E+03 E0= -.41316261E+03  EK= 0.31807E+00 SP= 0.00E+00 SK= 0.00E+00
       N       E                     dE             d eps       ncg     rms          rms(c)
RMM:   1    -0.413176423147E+03    0.77383E-02   -0.11889E+01  4289   0.877E-01    0.912E-01
RMM:   2    -0.413188010259E+03   -0.11587E-01   -0.15232E-01  4271   0.124E-01    0.660E-01
RMM:   3    -0.413185978462E+03    0.20318E-02   -0.62046E-03  4342   0.403E-02    0.170E-01
RMM:   4    -0.413188774644E+03   -0.27962E-02   -0.35762E-03  5134   0.510E-02    0.223E-01
RMM:   5    -0.413185965594E+03    0.28091E-02   -0.13751E-03  4816   0.365E-02    0.168E-02
RMM:   6    -0.413185964233E+03    0.13604E-05   -0.23021E-04  5705   0.152E-02    0.120E-02
RMM:   7    -0.413185962048E+03    0.21855E-05   -0.34495E-05  4658   0.617E-03    0.593E-03
RMM:   8    -0.413185957417E+03    0.46304E-05   -0.54257E-06  2971   0.307E-03    0.283E-03
RMM:   9    -0.413185955427E+03    0.19902E-05   -0.97777E-07  2501   0.171E-03    0.155E-03
RMM:  10    -0.413185952723E+03    0.27046E-05   -0.56679E-07  2311   0.116E-03    0.896E-04
RMM:  11    -0.413185950475E+03    0.22478E-05   -0.33625E-07  1875   0.910E-04    0.379E-04
RMM:  12    -0.413185948233E+03    0.22420E-05   -0.22274E-07  1588   0.792E-04    0.167E-04
RMM:  13    -0.413185946616E+03    0.16172E-05   -0.12526E-07  1228   0.682E-04    0.980E-05
RMM:  14    -0.413185944894E+03    0.17214E-05   -0.95177E-08  1167   0.651E-04    0.536E-05
RMM:  15    -0.413185942937E+03    0.19568E-05   -0.80303E-08  1167   0.626E-04    0.447E-05
RMM:  16    -0.413185941668E+03    0.12695E-05   -0.45113E-08   904   0.570E-04    0.231E-05
RMM:  17    -0.413185940831E+03    0.83703E-06   -0.29888E-08   802   0.552E-04
   31 T=    65. E= -.41286613E+03 F= -.41318594E+03 E0= -.41316444E+03  EK= 0.31981E+00 SP= 0.00E+00 SK= 0.00E+00
       N       E                     dE             d eps       ncg     rms          rms(c)
RMM:   1    -0.413190614408E+03   -0.46727E-02   -0.12113E+01  4290   0.931E-01    0.939E-01
RMM:   2    -0.413189647985E+03    0.96642E-03   -0.15530E-01  4263   0.118E-01    0.655E-01
RMM:   3    -0.413188557071E+03    0.10909E-02   -0.67853E-03  4188   0.459E-02    0.180E-01
RMM:   4    -0.413189050403E+03   -0.49333E-03   -0.13779E-03  4944   0.338E-02    0.849E-02
RMM:   5    -0.413188655742E+03    0.39466E-03   -0.19517E-04  4702   0.150E-02    0.196E-02
RMM:   6    -0.413188643894E+03    0.11847E-04   -0.72436E-05  5320   0.921E-03    0.137E-02
RMM:   7    -0.413188631031E+03    0.12863E-04   -0.17425E-05  3769   0.533E-03    0.411E-03
RMM:   8    -0.413188623049E+03    0.79827E-05   -0.30031E-06  2649   0.271E-03    0.228E-03
RMM:   9    -0.413188618807E+03    0.42418E-05   -0.64980E-07  2381   0.150E-03    0.125E-03
RMM:  10    -0.413188612929E+03    0.58779E-05   -0.35701E-07  1971   0.988E-04    0.524E-04
RMM:  11    -0.413188607269E+03    0.56594E-05   -0.20244E-07  1568   0.772E-04    0.209E-04
RMM:  12    -0.413188603657E+03    0.36128E-05   -0.10002E-07  1270   0.654E-04    0.135E-04
RMM:  13    -0.413188598701E+03    0.49557E-05   -0.87912E-08  1236   0.637E-04    0.799E-05
RMM:  14    -0.413188594182E+03    0.45190E-05   -0.66729E-08  1135   0.603E-04    0.732E-05
RMM:  15    -0.413188592051E+03    0.21313E-05   -0.37408E-08   869   0.539E-04    0.487E-05
RMM:  16    -0.413188589509E+03    0.25419E-05   -0.39941E-08   956   0.549E-04    0.261E-05
RMM:  17    -0.413188589243E+03    0.26562E-06   -0.11338E-08   570   0.478E-04
   32 T=    66. E= -.41286657E+03 F= -.41318859E+03 E0= -.41316714E+03  EK= 0.32202E+00 SP= 0.00E+00 SK= 0.00E+00
       N       E                     dE             d eps       ncg     rms          rms(c)
RMM:   1    -0.413185243573E+03    0.33459E-02   -0.12015E+01  4288   0.927E-01    0.925E-01
RMM:   2    -0.413191946081E+03   -0.67025E-02   -0.15475E-01  4273   0.130E-01    0.651E-01
RMM:   3    -0.413190573443E+03    0.13726E-02   -0.63130E-03  4181   0.390E-02    0.180E-01
RMM:   4    -0.413190654250E+03   -0.80807E-04   -0.11126E-03  4850   0.265E-02    0.457E-02
RMM:   5    -0.413190560601E+03    0.93649E-04   -0.76119E-05  4718   0.943E-03    0.206E-02
RMM:   6    -0.413190544117E+03    0.16484E-04   -0.53998E-05  5090   0.790E-03    0.128E-02
RMM:   7    -0.413190531612E+03    0.12506E-04   -0.12888E-05  3505   0.465E-03    0.415E-03
RMM:   8    -0.413190524195E+03    0.74165E-05   -0.22073E-06  2464   0.243E-03    0.207E-03
RMM:   9    -0.413190520213E+03    0.39818E-05   -0.51791E-07  2147   0.129E-03    0.110E-03
RMM:  10    -0.413190515005E+03    0.52079E-05   -0.26467E-07  1614   0.854E-04    0.481E-04
RMM:  11    -0.413190509516E+03    0.54896E-05   -0.15589E-07  1272   0.706E-04    0.186E-04
RMM:  12    -0.413190505845E+03    0.36709E-05   -0.73811E-08  1077   0.621E-04    0.129E-04
RMM:  13    -0.413190500755E+03    0.50901E-05   -0.68117E-08  1059   0.611E-04    0.768E-05
RMM:  14    -0.413190496428E+03    0.43265E-05   -0.49070E-08   967   0.571E-04    0.725E-05
RMM:  15    -0.413190494195E+03    0.22331E-05   -0.25600E-08   712   0.503E-04    0.508E-05
RMM:  16    -0.413190492443E+03    0.17521E-05   -0.19294E-08   644   0.493E-04    0.251E-05
RMM:  17    -0.413190491849E+03    0.59433E-06   -0.59602E-09   482   0.468E-04
   33 T=    66. E= -.41286637E+03 F= -.41319049E+03 E0= -.41316909E+03  EK= 0.32412E+00 SP= 0.00E+00 SK= 0.00E+00
       N       E                     dE             d eps       ncg     rms          rms(c)
RMM:   1    -0.413183874346E+03    0.66181E-02   -0.12107E+01  4289   0.920E-01    0.916E-01
RMM:   2    -0.413194636515E+03   -0.10762E-01   -0.15740E-01  4259   0.125E-01    0.665E-01
RMM:   3    -0.413193142444E+03    0.14941E-02   -0.62014E-03  4463   0.436E-02    0.179E-01
RMM:   4    -0.413201579349E+03   -0.84369E-02   -0.88402E-03  5151   0.824E-02    0.387E-01
RMM:   5    -0.413193134171E+03    0.84452E-02   -0.41385E-03  4813   0.633E-02    0.217E-02
RMM:   6    -0.413193122164E+03    0.12007E-04   -0.62773E-04  5800   0.252E-02    0.131E-02
RMM:   7    -0.413193123790E+03   -0.16256E-05   -0.78713E-05  5262   0.858E-03    0.858E-03
RMM:   8    -0.413193119080E+03    0.47098E-05   -0.10547E-05  3383   0.369E-03    0.461E-03
RMM:   9    -0.413193115745E+03    0.33349E-05   -0.21548E-06  2590   0.228E-03    0.250E-03
RMM:  10    -0.413193112114E+03    0.36318E-05   -0.89626E-07  2492   0.151E-03    0.127E-03
RMM:  11    -0.413193108927E+03    0.31862E-05   -0.52919E-07  2326   0.115E-03    0.617E-04
RMM:  12    -0.413193105941E+03    0.29863E-05   -0.31763E-07  1940   0.919E-04    0.215E-04
RMM:  13    -0.413193104449E+03    0.14915E-05   -0.15010E-07  1296   0.716E-04    0.138E-04
RMM:  14    -0.413193102569E+03    0.18801E-05   -0.10566E-07  1141   0.671E-04    0.845E-05
RMM:  15    -0.413193100690E+03    0.18789E-05   -0.82368E-08  1165   0.652E-04    0.473E-05
RMM:  16    -0.413193099897E+03    0.79377E-06   -0.46603E-08   925   0.598E-04
   34 T=    66. E= -.41286647E+03 F= -.41319310E+03 E0= -.41317175E+03  EK= 0.32663E+00 SP= 0.00E+00 SK= 0.00E+00
       N       E                     dE             d eps       ncg     rms          rms(c)
RMM:   1    -0.413187089858E+03    0.60108E-02   -0.12246E+01  4299   0.956E-01    0.943E-01
RMM:   2    -0.413197011540E+03   -0.99217E-02   -0.15971E-01  4257   0.135E-01    0.664E-01
RMM:   3    -0.413195854988E+03    0.11566E-02   -0.65012E-03  4493   0.433E-02    0.185E-01
RMM:   4    -0.413202799786E+03   -0.69448E-02   -0.75977E-03  5159   0.749E-02    0.356E-01
RMM:   5    -0.413195658013E+03    0.71418E-02   -0.35998E-03  4815   0.587E-02    0.228E-02
RMM:   6    -0.413195647802E+03    0.10211E-04   -0.58842E-04  5761   0.236E-02    0.141E-02
RMM:   7    -0.413195645238E+03    0.25644E-05   -0.77681E-05  5185   0.815E-03    0.836E-03
RMM:   8    -0.413195637397E+03    0.78410E-05   -0.95123E-06  3308   0.354E-03    0.433E-03
RMM:   9    -0.413195630961E+03    0.64361E-05   -0.18872E-06  2560   0.212E-03    0.232E-03
RMM:  10    -0.413195624047E+03    0.69139E-05   -0.80537E-07  2475   0.144E-03    0.121E-03
RMM:  11    -0.413195617912E+03    0.61346E-05   -0.48057E-07  2305   0.112E-03    0.539E-04
RMM:  12    -0.413195612701E+03    0.52115E-05   -0.27292E-07  1901   0.889E-04    0.188E-04
RMM:  13    -0.413195609716E+03    0.29843E-05   -0.13905E-07  1314   0.713E-04    0.136E-04
RMM:  14    -0.413195605790E+03    0.39258E-05   -0.10120E-07  1217   0.677E-04    0.860E-05
RMM:  15    -0.413195601402E+03    0.43887E-05   -0.90201E-08  1360   0.671E-04    0.686E-05
RMM:  16    -0.413195599902E+03    0.14999E-05   -0.46938E-08   975   0.586E-04    0.530E-05
RMM:  17    -0.413195596205E+03    0.36964E-05   -0.56261E-08  1202   0.609E-04    0.231E-05
RMM:  18    -0.413195595702E+03    0.50341E-06   -0.22486E-08   762   0.524E-04
   35 T=    67. E= -.41286630E+03 F= -.41319560E+03 E0= -.41317429E+03  EK= 0.32929E+00 SP= 0.00E+00 SK= 0.00E+00
       N       E                     dE             d eps       ncg     rms          rms(c)
RMM:   1    -0.413189398616E+03    0.61976E-02   -0.12288E+01  4298   0.967E-01    0.943E-01
RMM:   2    -0.413198914479E+03   -0.95159E-02   -0.15796E-01  4251   0.119E-01    0.658E-01
RMM:   3    -0.413198149152E+03    0.76533E-03   -0.68007E-03  4834   0.446E-02    0.198E-01
RMM:   4    -0.413230476352E+03   -0.32327E-01   -0.32553E-02  5152   0.151E-01    0.749E-01
RMM:   5    -0.413197792755E+03    0.32684E-01   -0.16413E-02  4795   0.125E-01    0.375E-02
RMM:   6    -0.413197845028E+03   -0.52273E-04   -0.25937E-03  5856   0.477E-02    0.184E-02
RMM:   7    -0.413197858711E+03   -0.13683E-04   -0.26254E-04  5748   0.137E-02    0.129E-02
RMM:   8    -0.413197852750E+03    0.59605E-05   -0.33521E-05  4344   0.512E-03    0.909E-03
RMM:   9    -0.413197847222E+03    0.55282E-05   -0.79034E-06  3258   0.330E-03    0.614E-03
RMM:  10    -0.413197836989E+03    0.10233E-04   -0.23534E-06  2556   0.259E-03    0.271E-03
RMM:  11    -0.413197829445E+03    0.75448E-05   -0.14906E-06  2507   0.195E-03    0.151E-03
RMM:  12    -0.413197822475E+03    0.69700E-05   -0.69302E-07  2442   0.147E-03    0.557E-04
RMM:  13    -0.413197819892E+03    0.25821E-05   -0.29410E-07  2130   0.968E-04    0.384E-04
RMM:  14    -0.413197817369E+03    0.25235E-05   -0.13967E-07  1522   0.734E-04    0.219E-04
RMM:  15    -0.413197811138E+03    0.62307E-05   -0.12499E-07  1665   0.731E-04    0.220E-04
RMM:  16    -0.413197810265E+03    0.87290E-06   -0.43128E-08   912   0.572E-04
   36 T=    68. E= -.41286614E+03 F= -.41319781E+03 E0= -.41317655E+03  EK= 0.33167E+00 SP= 0.00E+00 SK= 0.00E+00
       N       E                     dE             d eps       ncg     rms          rms(c)
RMM:   1    -0.413190342671E+03    0.74685E-02   -0.12341E+01  4300   0.988E-01    0.925E-01
RMM:   2    -0.413202445434E+03   -0.12103E-01   -0.16450E-01  4252   0.135E-01    0.670E-01
RMM:   3    -0.413201159496E+03    0.12859E-02   -0.65207E-03  4810   0.508E-02    0.204E-01
RMM:   4    -0.413241745063E+03   -0.40586E-01   -0.41307E-02  5160   0.170E-01    0.837E-01
RMM:   5    -0.413200509856E+03    0.41235E-01   -0.20767E-02  4797   0.140E-01    0.398E-02
RMM:   6    -0.413200606172E+03   -0.96316E-04   -0.31804E-03  5857   0.531E-02    0.185E-02
RMM:   7    -0.413200624960E+03   -0.18788E-04   -0.31481E-04  5734   0.149E-02    0.129E-02
RMM:   8    -0.413200621061E+03    0.38995E-05   -0.35424E-05  4011   0.493E-03    0.882E-03
RMM:   9    -0.413200616866E+03    0.41940E-05   -0.94237E-06  3424   0.344E-03    0.573E-03
RMM:  10    -0.413200610907E+03    0.59597E-05   -0.27626E-06  2619   0.255E-03    0.280E-03
RMM:  11    -0.413200604916E+03    0.59908E-05   -0.16864E-06  2506   0.205E-03    0.149E-03
RMM:  12    -0.413200601063E+03    0.38532E-05   -0.69806E-07  2452   0.145E-03    0.595E-04
RMM:  13    -0.413200599631E+03    0.14312E-05   -0.29599E-07  2110   0.958E-04    0.400E-04
RMM:  14    -0.413200597506E+03    0.21259E-05   -0.15104E-07  1545   0.746E-04    0.209E-04
RMM:  15    -0.413200593454E+03    0.40514E-05   -0.13383E-07  1587   0.726E-04    0.206E-04
RMM:  16    -0.413200592748E+03    0.70662E-06   -0.50696E-08   968   0.585E-04
   37 T=    68. E= -.41286624E+03 F= -.41320059E+03 E0= -.41317937E+03  EK= 0.33436E+00 SP= 0.00E+00 SK= 0.00E+00
       N       E                     dE             d eps       ncg     rms          rms(c)
RMM:   1    -0.413199605911E+03    0.98754E-03   -0.12575E+01  4306   0.106E+00    0.947E-01
RMM:   2    -0.413205334650E+03   -0.57287E-02   -0.16327E-01  4252   0.129E-01    0.673E-01
RMM:   3    -0.413203855776E+03    0.14789E-02   -0.67801E-03  4762   0.501E-02    0.201E-01
RMM:   4    -0.413237674665E+03   -0.33819E-01   -0.34046E-02  5154   0.154E-01    0.766E-01
RMM:   5    -0.413203403646E+03    0.34271E-01   -0.17400E-02  4804   0.128E-01    0.368E-02
RMM:   6    -0.413203464616E+03   -0.60970E-04   -0.26007E-03  5845   0.482E-02    0.179E-02
RMM:   7    -0.413203480095E+03   -0.15479E-04   -0.27160E-04  5773   0.139E-02    0.128E-02
RMM:   8    -0.413203474828E+03    0.52663E-05   -0.34302E-05  4358   0.514E-03    0.894E-03
RMM:   9    -0.413203470448E+03    0.43801E-05   -0.77672E-06  3236   0.318E-03    0.604E-03
RMM:  10    -0.413203461919E+03    0.85289E-05   -0.23069E-06  2546   0.246E-03    0.268E-03
RMM:  11    -0.413203455653E+03    0.62668E-05   -0.14520E-06  2506   0.190E-03    0.145E-03
RMM:  12    -0.413203450301E+03    0.53511E-05   -0.66541E-07  2441   0.142E-03    0.549E-04
RMM:  13    -0.413203448186E+03    0.21154E-05   -0.29202E-07  2110   0.957E-04    0.368E-04
RMM:  14    -0.413203445806E+03    0.23801E-05   -0.14576E-07  1532   0.740E-04    0.200E-04
RMM:  15    -0.413203440654E+03    0.51514E-05   -0.12222E-07  1552   0.721E-04    0.181E-04
RMM:  16    -0.413203439624E+03    0.10304E-05   -0.47134E-08   928   0.589E-04    0.112E-04
RMM:  17    -0.413203436069E+03    0.35551E-05   -0.52086E-08  1110   0.613E-04    0.752E-05
RMM:  18    -0.413203433846E+03    0.22235E-05   -0.39536E-08  1036   0.583E-04    0.263E-05
RMM:  19    -0.413203432748E+03    0.10975E-05   -0.21550E-08   825   0.552E-04    0.355E-05
RMM:  20    -0.413203432442E+03    0.30614E-06   -0.11665E-08   712   0.534E-04
   38 T=    69. E= -.41286653E+03 F= -.41320343E+03 E0= -.41318225E+03  EK= 0.33690E+00 SP= 0.00E+00 SK= 0.00E+00
       N       E                     dE             d eps       ncg     rms          rms(c)
RMM:   1    -0.413201969923E+03    0.14628E-02   -0.12634E+01  4303   0.109E+00    0.960E-01
RMM:   2    -0.413206765280E+03   -0.47954E-02   -0.16834E-01  4257   0.125E-01    0.667E-01
RMM:   3    -0.413206348296E+03    0.41698E-03   -0.74551E-03  4997   0.552E-02    0.236E-01
RMM:   4    -0.413258028162E+03   -0.51680E-01   -0.55545E-02  5131   0.196E-01    0.945E-01
RMM:   5    -0.413205141664E+03    0.52886E-01   -0.26150E-02  4788   0.159E-01    0.481E-02
RMM:   6    -0.413205286954E+03   -0.14529E-03   -0.41040E-03  5841   0.600E-02    0.213E-02
RMM:   7    -0.413205307942E+03   -0.20988E-04   -0.42060E-04  5845   0.171E-02    0.150E-02
RMM:   8    -0.413205306547E+03    0.13959E-05   -0.57851E-05  4767   0.624E-03    0.114E-02
RMM:   9    -0.413205297180E+03    0.93664E-05   -0.10326E-05  3448   0.351E-03    0.724E-03
RMM:  10    -0.413205286071E+03    0.11109E-04   -0.35382E-06  2652   0.291E-03    0.317E-03
RMM:  11    -0.413205278076E+03    0.79949E-05   -0.16695E-06  2505   0.211E-03    0.172E-03
RMM:  12    -0.413205270214E+03    0.78616E-05   -0.86968E-07  2466   0.162E-03    0.600E-04
RMM:  13    -0.413205266560E+03    0.36546E-05   -0.36222E-07  2255   0.107E-03    0.428E-04
RMM:  14    -0.413205263265E+03    0.32951E-05   -0.18302E-07  1767   0.794E-04    0.310E-04
RMM:  15    -0.413205255464E+03    0.78003E-05   -0.14965E-07  1760   0.761E-04    0.251E-04
RMM:  16    -0.413205254959E+03    0.50566E-06   -0.56667E-08  1009   0.581E-04
   39 T=    69. E= -.41286599E+03 F= -.41320525E+03 E0= -.41318411E+03  EK= 0.33926E+00 SP= 0.00E+00 SK= 0.00E+00
       N       E                     dE             d eps       ncg     rms          rms(c)
RMM:   1    -0.413205396016E+03   -0.14055E-03   -0.12664E+01  4309   0.115E+00    0.936E-01
RMM:   2    -0.413210392977E+03   -0.49970E-02   -0.16839E-01  4256   0.134E-01    0.673E-01
RMM:   3    -0.413209716017E+03    0.67696E-03   -0.70807E-03  5008   0.541E-02    0.238E-01
RMM:   4    -0.413264014545E+03   -0.54299E-01   -0.58870E-02  5130   0.201E-01    0.966E-01
RMM:   5    -0.413208419004E+03    0.55596E-01   -0.27438E-02  4788   0.163E-01    0.487E-02
RMM:   6    -0.413208574770E+03   -0.15577E-03   -0.42718E-03  5824   0.613E-02    0.206E-02
RMM:   7    -0.413208599637E+03   -0.24867E-04   -0.44230E-04  5871   0.175E-02    0.148E-02
RMM:   8    -0.413208599813E+03   -0.17629E-06   -0.60451E-05  4825   0.636E-03    0.113E-02
RMM:   9    -0.413208592312E+03    0.75010E-05   -0.10649E-05  3485   0.353E-03    0.705E-03
RMM:  10    -0.413208584688E+03    0.76245E-05   -0.36245E-06  2651   0.289E-03    0.313E-03
RMM:  11    -0.413208579265E+03    0.54227E-05   -0.17050E-06  2509   0.211E-03    0.170E-03
RMM:  12    -0.413208573899E+03    0.53663E-05   -0.89224E-07  2468   0.161E-03    0.611E-04
RMM:  13    -0.413208571389E+03    0.25095E-05   -0.37199E-07  2254   0.108E-03    0.425E-04
RMM:  14    -0.413208568908E+03    0.24807E-05   -0.19208E-07  1775   0.800E-04    0.295E-04
RMM:  15    -0.413208563506E+03    0.54028E-05   -0.15089E-07  1631   0.750E-04    0.207E-04
RMM:  16    -0.413208562986E+03    0.51925E-06   -0.60496E-08  1018   0.596E-04
   40 T=    70. E= -.41286660E+03 F= -.41320856E+03 E0= -.41318745E+03  EK= 0.34196E+00 SP= 0.00E+00 SK= 0.00E+00
       N       E                     dE             d eps       ncg     rms          rms(c)
RMM:   1    -0.413204907339E+03    0.36562E-02   -0.12811E+01  4307   0.119E+00    0.948E-01
RMM:   2    -0.413211589935E+03   -0.66826E-02   -0.17547E-01  4264   0.139E-01    0.684E-01
RMM:   3    -0.413211348256E+03    0.24168E-03   -0.74800E-03  5055   0.559E-02    0.259E-01
RMM:   4    -0.413267544885E+03   -0.56197E-01   -0.63175E-02  5129   0.208E-01    0.986E-01
RMM:   5    -0.413209627265E+03    0.57918E-01   -0.28206E-02  4771   0.166E-01    0.515E-02
RMM:   6    -0.413209799337E+03   -0.17207E-03   -0.44646E-03  5821   0.627E-02    0.205E-02
RMM:   7    -0.413209825747E+03   -0.26411E-04   -0.47118E-04  5905   0.181E-02    0.154E-02
RMM:   8    -0.413209826109E+03   -0.36162E-06   -0.66234E-05  4924   0.671E-03    0.116E-02
RMM:   9    -0.413209818153E+03    0.79559E-05   -0.10038E-05  3372   0.359E-03    0.678E-03
RMM:  10    -0.413209810648E+03    0.75050E-05   -0.39511E-06  2695   0.298E-03    0.295E-03
RMM:  11    -0.413209805177E+03    0.54710E-05   -0.17283E-06  2519   0.211E-03    0.147E-03
RMM:  12    -0.413209800086E+03    0.50910E-05   -0.84507E-07  2465   0.157E-03    0.592E-04
RMM:  13    -0.413209797609E+03    0.24768E-05   -0.35981E-07  2225   0.106E-03    0.410E-04
RMM:  14    -0.413209794480E+03    0.31297E-05   -0.19836E-07  1740   0.807E-04    0.287E-04
RMM:  15    -0.413209790199E+03    0.42807E-05   -0.13731E-07  1492   0.720E-04    0.154E-04
RMM:  16    -0.413209788939E+03    0.12604E-05   -0.65402E-08  1031   0.609E-04    0.762E-05
RMM:  17    -0.413209786713E+03    0.22254E-05   -0.54416E-08  1031   0.608E-04    0.440E-05
RMM:  18    -0.413209783098E+03    0.36148E-05   -0.63495E-08  1230   0.633E-04    0.446E-05
RMM:  19    -0.413209782613E+03    0.48569E-06   -0.23665E-08   798   0.556E-04
   41 T=    70. E= -.41286591E+03 F= -.41320978E+03 E0= -.41318871E+03  EK= 0.34388E+00 SP= 0.00E+00 SK= 0.00E+00
       N       E                     dE             d eps       ncg     rms          rms(c)
RMM:   1    -0.413213957890E+03   -0.41748E-02   -0.12952E+01  4307   0.127E+00    0.973E-01
RMM:   2    -0.413213409599E+03    0.54829E-03   -0.17905E-01  4290   0.145E-01    0.676E-01
RMM:   3    -0.413216294479E+03   -0.28849E-02   -0.99909E-03  5128   0.729E-02    0.337E-01
RMM:   4    -0.413249723726E+03   -0.33429E-01   -0.49606E-02  5091   0.187E-01    0.807E-01
RMM:   5    -0.413212404723E+03    0.37319E-01   -0.16755E-02  4728   0.135E-01    0.491E-02
RMM:   6    -0.413212446369E+03   -0.41646E-04   -0.27200E-03  5756   0.495E-02    0.181E-02
RMM:   7    -0.413212458826E+03   -0.12457E-04   -0.31468E-04  5893   0.154E-02    0.139E-02
RMM:   8    -0.413212456178E+03    0.26479E-05   -0.47803E-05  4778   0.598E-03    0.929E-03
RMM:   9    -0.413212444762E+03    0.11416E-04   -0.71790E-06  3110   0.364E-03    0.449E-03
RMM:  10    -0.413212435147E+03    0.96159E-05   -0.26070E-06  2558   0.250E-03    0.227E-03
RMM:  11    -0.413212427415E+03    0.77313E-05   -0.10052E-06  2506   0.162E-03    0.949E-04
RMM:  12    -0.413212422285E+03    0.51301E-05   -0.40461E-07  2306   0.110E-03    0.501E-04
RMM:  13    -0.413212416972E+03    0.53128E-05   -0.24770E-07  1671   0.853E-04    0.243E-04
RMM:  14    -0.413212413184E+03    0.37881E-05   -0.15539E-07  1367   0.740E-04    0.148E-04
RMM:  15    -0.413212408151E+03    0.50328E-05   -0.12814E-07  1447   0.718E-04    0.103E-04
RMM:  16    -0.413212403518E+03    0.46331E-05   -0.98244E-08  1408   0.667E-04    0.573E-05
RMM:  17    -0.413212399464E+03    0.40544E-05   -0.75411E-08  1271   0.623E-04    0.508E-05
RMM:  18    -0.413212398287E+03    0.11765E-05   -0.44325E-08   960   0.553E-04    0.344E-05
RMM:  19    -0.413212397450E+03    0.83761E-06   -0.30914E-08   861   0.536E-04
   42 T=    70. E= -.41286644E+03 F= -.41321240E+03 E0= -.41319135E+03  EK= 0.34596E+00 SP= 0.00E+00 SK= 0.00E+00
       N       E                     dE             d eps       ncg     rms          rms(c)
RMM:   1    -0.413213704439E+03   -0.13062E-02   -0.12902E+01  4311   0.134E+00    0.948E-01
RMM:   2    -0.413215298955E+03   -0.15945E-02   -0.17806E-01  4293   0.154E-01    0.676E-01
RMM:   3    -0.413219183475E+03   -0.38845E-02   -0.10667E-02  5116   0.807E-02    0.368E-01
RMM:   4    -0.413247781663E+03   -0.28598E-01   -0.47897E-02  5066   0.185E-01    0.768E-01
RMM:   5    -0.413214209442E+03    0.33572E-01   -0.14678E-02  4705   0.129E-01    0.480E-02
RMM:   6    -0.413214238202E+03   -0.28760E-04   -0.24527E-03  5738   0.468E-02    0.170E-02
RMM:   7    -0.413214248611E+03   -0.10409E-04   -0.27846E-04  5887   0.147E-02    0.134E-02
RMM:   8    -0.413214246205E+03    0.24061E-05   -0.42716E-05  4722   0.576E-03    0.862E-03
RMM:   9    -0.413214236648E+03    0.95569E-05   -0.71478E-06  3135   0.375E-03    0.425E-03
RMM:  10    -0.413214229374E+03    0.72744E-05   -0.25087E-06  2566   0.249E-03    0.233E-03
RMM:  11    -0.413214223738E+03    0.56363E-05   -0.10267E-06  2512   0.161E-03    0.997E-04
RMM:  12    -0.413214220237E+03    0.35005E-05   -0.43026E-07  2309   0.110E-03    0.518E-04
RMM:  13    -0.413214215797E+03    0.44399E-05   -0.29899E-07  1765   0.898E-04    0.270E-04
RMM:  14    -0.413214213480E+03    0.23169E-05   -0.17324E-07  1363   0.742E-04    0.147E-04
RMM:  15    -0.413214209970E+03    0.35107E-05   -0.13170E-07  1259   0.702E-04    0.894E-05
RMM:  16    -0.413214206074E+03    0.38960E-05   -0.10697E-07  1263   0.680E-04    0.483E-05
RMM:  17    -0.413214203140E+03    0.29338E-05   -0.84978E-08  1304   0.643E-04    0.409E-05
RMM:  18    -0.413214201521E+03    0.16184E-05   -0.53708E-08  1042   0.577E-04    0.313E-05
RMM:  19    -0.413214200623E+03    0.89813E-06   -0.35865E-08   863   0.540E-04
   43 T=    71. E= -.41286649E+03 F= -.41321420E+03 E0= -.41319318E+03  EK= 0.34771E+00 SP= 0.00E+00 SK= 0.00E+00
       N       E                     dE             d eps       ncg     rms          rms(c)
RMM:   1    -0.413241459597E+03   -0.27258E-01   -0.13302E+01  4312   0.153E+00    0.950E-01
RMM:   2    -0.413216467554E+03    0.24992E-01   -0.20211E-01  4291   0.176E-01    0.693E-01
RMM:   3    -0.413221849510E+03   -0.53820E-02   -0.12040E-02  5114   0.912E-02    0.421E-01
RMM:   4    -0.413246199287E+03   -0.24350E-01   -0.48392E-02  5056   0.187E-01    0.745E-01
RMM:   5    -0.413215110618E+03    0.31089E-01   -0.13464E-02  4679   0.127E-01    0.501E-02
RMM:   6    -0.413215114083E+03   -0.34653E-05   -0.22667E-03  5680   0.452E-02    0.174E-02
RMM:   7    -0.413215123959E+03   -0.98759E-05   -0.26660E-04  5912   0.147E-02    0.138E-02
RMM:   8    -0.413215121528E+03    0.24308E-05   -0.40298E-05  4703   0.572E-03    0.871E-03
RMM:   9    -0.413215112970E+03    0.85577E-05   -0.82578E-06  3297   0.415E-03    0.448E-03
RMM:  10    -0.413215107009E+03    0.59610E-05   -0.27536E-06  2592   0.263E-03    0.267E-03
RMM:  11    -0.413215102749E+03    0.42602E-05   -0.12604E-06  2525   0.176E-03    0.111E-03
RMM:  12    -0.413215100230E+03    0.25195E-05   -0.51854E-07  2423   0.122E-03    0.621E-04
RMM:  13    -0.413215096466E+03    0.37642E-05   -0.39335E-07  1995   0.100E-03    0.403E-04
RMM:  14    -0.413215094920E+03    0.15453E-05   -0.20126E-07  1445   0.777E-04    0.206E-04
RMM:  15    -0.413215092455E+03    0.24654E-05   -0.14695E-07  1279   0.720E-04    0.124E-04
RMM:  16    -0.413215089386E+03    0.30693E-05   -0.12066E-07  1270   0.691E-04    0.626E-05
RMM:  17    -0.413215087925E+03    0.14602E-05   -0.75983E-08  1093   0.631E-04    0.442E-05
RMM:  18    -0.413215085720E+03    0.22058E-05   -0.66154E-08  1130   0.618E-04    0.401E-05
RMM:  19    -0.413215084746E+03    0.97403E-06   -0.43380E-08   927   0.567E-04
   44 T=    71. E= -.41286619E+03 F= -.41321508E+03 E0= -.41319409E+03  EK= 0.34889E+00 SP= 0.00E+00 SK= 0.00E+00
       N       E                     dE             d eps       ncg     rms          rms(c)
RMM:   1    -0.413244529672E+03   -0.29444E-01   -0.13393E+01  4306   0.159E+00    0.980E-01
RMM:   2    -0.413217071328E+03    0.27458E-01   -0.19137E-01  4360   0.181E-01    0.684E-01
RMM:   3    -0.413230175872E+03   -0.13105E-01   -0.18953E-02  5135   0.119E-01    0.543E-01
RMM:   4    -0.413231539738E+03   -0.13639E-02   -0.37312E-02  5010   0.169E-01    0.537E-01
RMM:   5    -0.413216773764E+03    0.14766E-01   -0.57237E-03  4561   0.940E-02    0.421E-02
RMM:   6    -0.413216727588E+03    0.46176E-04   -0.98885E-04  5297   0.308E-02    0.158E-02
RMM:   7    -0.413216727070E+03    0.51876E-06   -0.10846E-04  5622   0.100E-02    0.119E-02
RMM:   8    -0.413216722876E+03    0.41936E-05   -0.24895E-05  4640   0.493E-03    0.778E-03
RMM:   9    -0.413216707026E+03    0.15850E-04   -0.72948E-06  3257   0.416E-03    0.410E-03
RMM:  10    -0.413216700421E+03    0.66049E-05   -0.14770E-06  2538   0.213E-03    0.180E-03
RMM:  11    -0.413216694335E+03    0.60860E-05   -0.88720E-07  2483   0.151E-03    0.849E-04
RMM:  12    -0.413216689363E+03    0.49720E-05   -0.41000E-07  2364   0.111E-03    0.486E-04
RMM:  13    -0.413216684244E+03    0.51190E-05   -0.23220E-07  1597   0.816E-04    0.263E-04
RMM:  14    -0.413216681296E+03    0.29486E-05   -0.12506E-07  1163   0.687E-04    0.168E-04
RMM:  15    -0.413216676249E+03    0.50464E-05   -0.11009E-07  1290   0.686E-04    0.844E-05
RMM:  16    -0.413216672192E+03    0.40576E-05   -0.84034E-08  1232   0.644E-04    0.101E-04
RMM:  17    -0.413216669623E+03    0.25690E-05   -0.52994E-08  1007   0.577E-04    0.620E-05
RMM:  18    -0.413216666696E+03    0.29263E-05   -0.51618E-08  1060   0.575E-04    0.385E-05
RMM:  19    -0.413216666222E+03    0.47468E-06   -0.21176E-08   693   0.513E-04
   45 T=    71. E= -.41286661E+03 F= -.41321667E+03 E0= -.41319569E+03  EK= 0.35005E+00 SP= 0.00E+00 SK= 0.00E+00
       N       E                     dE             d eps       ncg     rms          rms(c)
RMM:   1    -0.413243144082E+03   -0.26477E-01   -0.13293E+01  4307   0.168E+00    0.961E-01
RMM:   2    -0.413217083941E+03    0.26060E-01   -0.18726E-01  4357   0.195E-01    0.680E-01
RMM:   3    -0.413232841794E+03   -0.15758E-01   -0.21194E-02  5133   0.128E-01    0.584E-01
RMM:   4    -0.413229333785E+03    0.35080E-02   -0.36781E-02  4987   0.169E-01    0.499E-01
RMM:   5    -0.413216762644E+03    0.12571E-01   -0.49568E-03  4538   0.905E-02    0.421E-02
RMM:   6    -0.413216695846E+03    0.66798E-04   -0.74911E-04  5055   0.281E-02    0.155E-02
RMM:   7    -0.413216696394E+03   -0.54818E-06   -0.92683E-05  5632   0.914E-03    0.103E-02
RMM:   8    -0.413216690032E+03    0.63629E-05   -0.20674E-05  4535   0.504E-03    0.655E-03
RMM:   9    -0.413216678491E+03    0.11540E-04   -0.92897E-06  3645   0.393E-03    0.439E-03
RMM:  10    -0.413216673937E+03    0.45544E-05   -0.17647E-06  2506   0.223E-03    0.176E-03
RMM:  11    -0.413216668813E+03    0.51238E-05   -0.12446E-06  2450   0.176E-03    0.101E-03
RMM:  12    -0.413216664295E+03    0.45177E-05   -0.50555E-07  2335   0.127E-03    0.638E-04
RMM:  13    -0.413216660230E+03    0.40653E-05   -0.23491E-07  1754   0.862E-04    0.340E-04
RMM:  14    -0.413216656817E+03    0.34132E-05   -0.12368E-07  1213   0.682E-04    0.189E-04
RMM:  15    -0.413216651406E+03    0.54106E-05   -0.12095E-07  1358   0.688E-04    0.131E-04
RMM:  16    -0.413216648471E+03    0.29354E-05   -0.64736E-08   985   0.587E-04    0.123E-04
RMM:  17    -0.413216645049E+03    0.34217E-05   -0.57608E-08   978   0.572E-04    0.471E-05
RMM:  18    -0.413216643109E+03    0.19403E-05   -0.34999E-08   809   0.539E-04    0.390E-05
RMM:  19    -0.413216642172E+03    0.93633E-06   -0.21658E-08   693   0.516E-04
   46 T=    71. E= -.41286638E+03 F= -.41321664E+03 E0= -.41319569E+03  EK= 0.35027E+00 SP= 0.00E+00 SK= 0.00E+00
       N       E                     dE             d eps       ncg     rms          rms(c)
RMM:   1    -0.413262971886E+03   -0.46329E-01   -0.13555E+01  4308   0.184E+00    0.947E-01
RMM:   2    -0.413217109254E+03    0.45863E-01   -0.22619E-01  4388   0.214E-01    0.698E-01
RMM:   3    -0.413231908970E+03   -0.14800E-01   -0.20444E-02  5139   0.128E-01    0.603E-01
RMM:   4    -0.413230470396E+03    0.14386E-02   -0.39036E-02  5002   0.173E-01    0.545E-01
RMM:   5    -0.413216096352E+03    0.14374E-01   -0.63388E-03  4542   0.993E-02    0.476E-02
RMM:   6    -0.413216017495E+03    0.78857E-04   -0.93841E-04  5130   0.315E-02    0.175E-02
RMM:   7    -0.413216017555E+03   -0.60365E-07   -0.12405E-04  5798   0.105E-02    0.124E-02
RMM:   8    -0.413216015138E+03    0.24172E-05   -0.28581E-05  4829   0.513E-03    0.865E-03
RMM:   9    -0.413216003201E+03    0.11937E-04   -0.11725E-05  3902   0.469E-03    0.511E-03
RMM:  10    -0.413215998274E+03    0.49268E-05   -0.20571E-06  2522   0.234E-03    0.238E-03
RMM:  11    -0.413215994433E+03    0.38412E-05   -0.18669E-06  2551   0.202E-03    0.130E-03
RMM:  12    -0.413215991731E+03    0.27021E-05   -0.54315E-07  2405   0.138E-03    0.763E-04
RMM:  13    -0.413215989096E+03    0.26352E-05   -0.26958E-07  1978   0.903E-04    0.401E-04
RMM:  14    -0.413215986473E+03    0.26226E-05   -0.15533E-07  1266   0.707E-04    0.215E-04
RMM:  15    -0.413215983809E+03    0.26642E-05   -0.11730E-07  1167   0.662E-04    0.983E-05
RMM:  16    -0.413215981350E+03    0.24587E-05   -0.96376E-08  1201   0.646E-04    0.108E-04
RMM:  17    -0.413215979843E+03    0.15075E-05   -0.58643E-08   984   0.576E-04    0.893E-05
RMM:  18    -0.413215978414E+03    0.14285E-05   -0.40385E-08   838   0.545E-04    0.402E-05
RMM:  19    -0.413215978057E+03    0.35746E-06   -0.20925E-08   667   0.513E-04
   47 T=    71. E= -.41286637E+03 F= -.41321598E+03 E0= -.41319504E+03  EK= 0.34961E+00 SP= 0.00E+00 SK= 0.00E+00
       N       E                     dE             d eps       ncg     rms          rms(c)
RMM:   1    -0.413265763626E+03   -0.49785E-01   -0.13587E+01  4305   0.197E+00    0.975E-01
RMM:   2    -0.413214851066E+03    0.50913E-01   -0.21349E-01  4486   0.214E-01    0.690E-01
RMM:   3    -0.413240175148E+03   -0.25324E-01   -0.30160E-02  5154   0.156E-01    0.726E-01
RMM:   4    -0.413222397767E+03    0.17777E-01   -0.37488E-02  4949   0.175E-01    0.428E-01
RMM:   5    -0.413214483876E+03    0.79139E-02   -0.45380E-03  4582   0.904E-02    0.557E-02
RMM:   6    -0.413214300053E+03    0.18382E-03   -0.43761E-04  4680   0.280E-02    0.213E-02
RMM:   7    -0.413214300299E+03   -0.24591E-06   -0.10927E-04  5819   0.105E-02    0.140E-02
RMM:   8    -0.413214291826E+03    0.84732E-05   -0.19882E-05  4420   0.483E-03    0.101E-02
RMM:   9    -0.413214276189E+03    0.15636E-04   -0.81613E-06  3330   0.418E-03    0.518E-03
RMM:  10    -0.413214268310E+03    0.78795E-05   -0.28314E-06  2655   0.276E-03    0.231E-03
RMM:  11    -0.413214261989E+03    0.63211E-05   -0.21373E-06  2559   0.227E-03    0.144E-03
RMM:  12    -0.413214256504E+03    0.54847E-05   -0.80574E-07  2439   0.159E-03    0.771E-04
RMM:  13    -0.413214252604E+03    0.38998E-05   -0.37045E-07  2294   0.104E-03    0.457E-04
RMM:  14    -0.413214248649E+03    0.39549E-05   -0.19502E-07  1530   0.751E-04    0.235E-04
RMM:  15    -0.413214243158E+03    0.54910E-05   -0.16134E-07  1455   0.726E-04    0.136E-04
RMM:  16    -0.413214240453E+03    0.27055E-05   -0.91181E-08  1194   0.634E-04    0.117E-04
RMM:  17    -0.413214237842E+03    0.26103E-05   -0.65440E-08  1063   0.598E-04    0.693E-05
RMM:  18    -0.413214235809E+03    0.20338E-05   -0.49708E-08  1002   0.581E-04    0.361E-05
RMM:  19    -0.413214235039E+03    0.76968E-06   -0.25198E-08   783   0.542E-04
   48 T=    71. E= -.41286642E+03 F= -.41321424E+03 E0= -.41319330E+03  EK= 0.34781E+00 SP= 0.00E+00 SK= 0.00E+00
       N       E                     dE             d eps       ncg     rms          rms(c)
RMM:   1    -0.413266265779E+03   -0.52030E-01   -0.13459E+01  4305   0.210E+00    0.965E-01
RMM:   2    -0.413210680789E+03    0.55585E-01   -0.21131E-01  4488   0.228E-01    0.680E-01
RMM:   3    -0.413242201385E+03   -0.31521E-01   -0.35825E-02  5157   0.171E-01    0.797E-01
RMM:   4    -0.413215917141E+03    0.26284E-01   -0.37653E-02  4926   0.177E-01    0.382E-01
RMM:   5    -0.413210631571E+03    0.52856E-02   -0.50973E-03  4857   0.931E-02    0.703E-02
RMM:   6    -0.413210318978E+03    0.31259E-03   -0.57363E-04  4687   0.328E-02    0.258E-02
RMM:   7    -0.413210315237E+03    0.37410E-05   -0.13398E-04  5712   0.122E-02    0.158E-02
RMM:   8    -0.413210305621E+03    0.96164E-05   -0.17933E-05  4145   0.470E-03    0.108E-02
RMM:   9    -0.413210289572E+03    0.16048E-04   -0.93060E-06  3502   0.426E-03    0.497E-03
RMM:  10    -0.413210279750E+03    0.98220E-05   -0.41554E-06  2878   0.314E-03    0.252E-03
[...]
RMM:  18    -0.412993570309E+03   -0.16405E-05   -0.11062E-07  1199   0.596E-04    0.508E-05
RMM:  19    -0.412993570874E+03   -0.56483E-06   -0.55191E-08   984   0.523E-04
  139 T=    46. E= -.41276698E+03 F= -.41299357E+03 E0= -.41297301E+03  EK= 0.22659E+00 SP= 0.00E+00 SK= 0.00E+00
       N       E                     dE             d eps       ncg     rms          rms(c)
RMM:   1    -0.413046163729E+03   -0.52593E-01   -0.11879E+01  4264   0.117E+00    0.167E+00
RMM:   2    -0.413004828123E+03    0.41336E-01   -0.15951E-01  4478   0.127E-01    0.929E-01
RMM:   3    -0.412995185505E+03    0.96426E-02   -0.66566E-02  5017   0.680E-02    0.872E-02
RMM:   4    -0.412995771173E+03   -0.58567E-03   -0.27205E-03  5184   0.387E-02    0.608E-02
RMM:   5    -0.412995924167E+03   -0.15299E-03   -0.45002E-04  5019   0.236E-02    0.718E-02
RMM:   6    -0.412995748924E+03    0.17524E-03   -0.22412E-04  5254   0.155E-02    0.428E-02
RMM:   7    -0.412995659142E+03    0.89782E-04   -0.45476E-04  5057   0.197E-02    0.266E-02
RMM:   8    -0.412995609735E+03    0.49407E-04   -0.72267E-05  4801   0.104E-02    0.164E-02
RMM:   9    -0.412995591057E+03    0.18679E-04   -0.16077E-05  3642   0.429E-03    0.734E-03
RMM:  10    -0.412995564481E+03    0.26575E-04   -0.80235E-06  2635   0.280E-03    0.290E-03
RMM:  11    -0.412995489789E+03    0.74692E-04   -0.13542E-05  2756   0.358E-03    0.237E-03
RMM:  12    -0.412995457859E+03    0.31930E-04   -0.51221E-06  2722   0.208E-03    0.187E-03
RMM:  13    -0.412995431305E+03    0.26554E-04   -0.31813E-06  2643   0.174E-03    0.110E-03
RMM:  14    -0.412995419515E+03    0.11790E-04   -0.17842E-06  2265   0.125E-03    0.483E-04
RMM:  15    -0.412995415926E+03    0.35887E-05   -0.82607E-07  1780   0.947E-04    0.269E-04
RMM:  16    -0.412995415955E+03   -0.29009E-07   -0.49006E-07  1772   0.834E-04
  140 T=    53. E= -.41273643E+03 F= -.41299542E+03 E0= -.41297490E+03  EK= 0.25899E+00 SP= 0.00E+00 SK= 0.00E+00
       N       E                     dE             d eps       ncg     rms          rms(c)
RMM:   1    -0.413022079059E+03   -0.26663E-01   -0.29296E+00  4264   0.792E-01    0.568E-01
RMM:   2    -0.413020812662E+03    0.12664E-02   -0.36123E-02  4520   0.799E-02    0.422E-01
RMM:   3    -0.413019239507E+03    0.15732E-02   -0.34572E-02  5138   0.725E-02    0.255E-01
RMM:   4    -0.413024497883E+03   -0.52584E-02   -0.94013E-03  5115   0.883E-02    0.368E-01
RMM:   5    -0.413017212338E+03    0.72855E-02   -0.42105E-03  4797   0.644E-02    0.432E-02
RMM:   6    -0.413017183258E+03    0.29080E-04   -0.63236E-04  5559   0.249E-02    0.183E-02
RMM:   7    -0.413017204178E+03   -0.20920E-04   -0.12759E-04  5631   0.113E-02    0.131E-02
RMM:   8    -0.413017224164E+03   -0.19986E-04   -0.39718E-05  4788   0.801E-03    0.560E-03
RMM:   9    -0.413017229655E+03   -0.54907E-05   -0.80993E-06  3309   0.379E-03    0.312E-03
RMM:  10    -0.413017234439E+03   -0.47845E-05   -0.19952E-06  2577   0.217E-03    0.213E-03
RMM:  11    -0.413017239439E+03   -0.50000E-05   -0.92086E-07  2485   0.151E-03    0.135E-03
RMM:  12    -0.413017246294E+03   -0.68550E-05   -0.85542E-07  2297   0.121E-03    0.570E-04
RMM:  13    -0.413017250189E+03   -0.38947E-05   -0.39555E-07  1615   0.849E-04    0.305E-04
RMM:  14    -0.413017254168E+03   -0.39788E-05   -0.25536E-07  1546   0.785E-04    0.170E-04
RMM:  15    -0.413017258020E+03   -0.38524E-05   -0.19840E-07  1545   0.735E-04    0.143E-04
RMM:  16    -0.413017261111E+03   -0.30907E-05   -0.12619E-07  1238   0.631E-04    0.817E-05
RMM:  17    -0.413017263958E+03   -0.28467E-05   -0.93018E-08  1177   0.594E-04    0.495E-05
RMM:  18    -0.413017265763E+03   -0.18056E-05   -0.58613E-08  1002   0.548E-04    0.373E-05
RMM:  19    -0.413017266823E+03   -0.10593E-05   -0.32862E-08   846   0.521E-04    0.250E-05
RMM:  20    -0.413017267545E+03   -0.72231E-06   -0.25804E-08   816   0.515E-04
  141 T=    55. E= -.41274471E+03 F= -.41301727E+03 E0= -.41299680E+03  EK= 0.27256E+00 SP= 0.00E+00 SK= 0.00E+00
       N       E                     dE             d eps       ncg     rms          rms(c)
RMM:   1    -0.412946855026E+03    0.70412E-01   -0.13127E+01  4276   0.120E+00    0.141E+00
RMM:   2    -0.412939000329E+03    0.78547E-02   -0.23148E-01  4489   0.141E-01    0.110E+00
RMM:   3    -0.412926441446E+03    0.12559E-01   -0.23387E-01  5089   0.143E-01    0.897E-01
RMM:   4    -0.412946949419E+03   -0.20508E-01   -0.61645E-02  5096   0.206E-01    0.854E-01
RMM:   5    -0.412910899429E+03    0.36050E-01   -0.22275E-02  4743   0.144E-01    0.692E-02
RMM:   6    -0.412911192184E+03   -0.29275E-03   -0.29313E-03  5719   0.526E-02    0.343E-02
RMM:   7    -0.412911410725E+03   -0.21854E-03   -0.40722E-04  5824   0.195E-02    0.225E-02
RMM:   8    -0.412911606737E+03   -0.19601E-03   -0.98748E-05  5046   0.118E-02    0.119E-02
RMM:   9    -0.412911775573E+03   -0.16884E-03   -0.29685E-05  4487   0.713E-03    0.748E-03
RMM:  10    -0.412911881709E+03   -0.10614E-03   -0.91689E-06  2955   0.390E-03    0.478E-03
RMM:  11    -0.412912093798E+03   -0.21209E-03   -0.18003E-05  3304   0.641E-03    0.282E-03
RMM:  12    -0.412912158874E+03   -0.65077E-04   -0.63623E-06  2784   0.275E-03    0.189E-03
RMM:  13    -0.412912191583E+03   -0.32709E-04   -0.22195E-06  2628   0.170E-03    0.133E-03
RMM:  14    -0.412912237602E+03   -0.46019E-04   -0.30199E-06  2627   0.176E-03    0.695E-04
RMM:  15    -0.412912260421E+03   -0.22819E-04   -0.19445E-06  1988   0.126E-03    0.351E-04
RMM:  16    -0.412912268689E+03   -0.82677E-05   -0.67767E-07  1705   0.923E-04    0.246E-04
RMM:  17    -0.412912272729E+03   -0.40400E-05   -0.33807E-07  1532   0.763E-04    0.127E-04
RMM:  18    -0.412912274135E+03   -0.14060E-05   -0.15674E-07  1264   0.621E-04    0.733E-05
RMM:  19    -0.412912274554E+03   -0.41945E-06   -0.76937E-08  1017   0.541E-04
  142 T=    44. E= -.41269622E+03 F= -.41291227E+03 E0= -.41289185E+03  EK= 0.21606E+00 SP= 0.00E+00 SK= 0.00E+00
       N       E                     dE             d eps       ncg     rms          rms(c)
RMM:   1    -0.413022752658E+03   -0.11048E+00   -0.15087E+01  4264   0.125E+00    0.191E+00
RMM:   2    -0.412969421940E+03    0.53331E-01   -0.20850E-01  4451   0.136E-01    0.104E+00
RMM:   3    -0.412957205519E+03    0.12216E-01   -0.78088E-02  5050   0.679E-02    0.121E-01
RMM:   4    -0.412967292760E+03   -0.10087E-01   -0.12299E-02  5188   0.906E-02    0.407E-01
RMM:   5    -0.412958035501E+03    0.92573E-02   -0.49467E-03  4844   0.706E-02    0.665E-02
RMM:   6    -0.412958006471E+03    0.29030E-04   -0.11264E-03  5662   0.342E-02    0.448E-02
RMM:   7    -0.412957937267E+03    0.69204E-04   -0.70315E-04  5354   0.237E-02    0.335E-02
RMM:   8    -0.412957866648E+03    0.70619E-04   -0.14395E-04  5067   0.138E-02    0.208E-02
RMM:   9    -0.412957834388E+03    0.32260E-04   -0.27446E-05  3832   0.502E-03    0.903E-03
RMM:  10    -0.412957792900E+03    0.41488E-04   -0.89196E-06  2741   0.318E-03    0.438E-03
RMM:  11    -0.412957733789E+03    0.59111E-04   -0.75932E-06  2721   0.301E-03    0.230E-03
RMM:  12    -0.412957685165E+03    0.48624E-04   -0.64895E-06  2729   0.255E-03    0.142E-03
RMM:  13    -0.412957652032E+03    0.33133E-04   -0.39397E-06  2682   0.196E-03    0.124E-03
RMM:  14    -0.412957625153E+03    0.26879E-04   -0.28613E-06  2575   0.166E-03    0.936E-04
RMM:  15    -0.412957616031E+03    0.91218E-05   -0.12570E-06  2058   0.110E-03    0.516E-04
RMM:  16    -0.412957610160E+03    0.58713E-05   -0.90182E-07  1995   0.102E-03    0.242E-04
RMM:  17    -0.412957609632E+03    0.52844E-06   -0.35440E-07  1491   0.717E-04
  143 T=    56. E= -.41268010E+03 F= -.41295761E+03 E0= -.41293723E+03  EK= 0.27751E+00 SP= 0.00E+00 SK= 0.00E+00
       N       E                     dE             d eps       ncg     rms          rms(c)
RMM:   1    -0.412951877560E+03    0.57326E-02   -0.28759E+00  4264   0.768E-01    0.544E-01
RMM:   2    -0.412950983326E+03    0.89423E-03   -0.36030E-02  4521   0.761E-02    0.403E-01
RMM:   3    -0.412949344489E+03    0.16388E-02   -0.30044E-02  5063   0.630E-02    0.219E-01
RMM:   4    -0.412955609052E+03   -0.62646E-02   -0.96544E-03  5125   0.879E-02    0.380E-01
RMM:   5    -0.412947695859E+03    0.79132E-02   -0.43759E-03  4790   0.652E-02    0.358E-02
RMM:   6    -0.412947685059E+03    0.10799E-04   -0.67214E-04  5642   0.256E-02    0.177E-02
RMM:   7    -0.412947689900E+03   -0.48408E-05   -0.13257E-04  5655   0.113E-02    0.135E-02
RMM:   8    -0.412947694186E+03   -0.42855E-05   -0.33925E-05  4675   0.743E-03    0.461E-03
RMM:   9    -0.412947697096E+03   -0.29106E-05   -0.74957E-06  3196   0.355E-03    0.260E-03
RMM:  10    -0.412947699289E+03   -0.21924E-05   -0.13607E-06  2542   0.188E-03    0.194E-03
RMM:  11    -0.412947701673E+03   -0.23837E-05   -0.64397E-07  2428   0.126E-03    0.116E-03
RMM:  12    -0.412947705350E+03   -0.36779E-05   -0.85888E-07  2264   0.114E-03    0.607E-04
RMM:  13    -0.412947706820E+03   -0.14698E-05   -0.24946E-07  1415   0.763E-04    0.332E-04
RMM:  14    -0.412947709283E+03   -0.24629E-05   -0.21406E-07  1503   0.765E-04    0.144E-04
RMM:  15    -0.412947711159E+03   -0.18760E-05   -0.13657E-07  1270   0.671E-04    0.105E-04
RMM:  16    -0.412947713333E+03   -0.21736E-05   -0.10606E-07  1191   0.636E-04    0.702E-05
RMM:  17    -0.412947715633E+03   -0.23004E-05   -0.80142E-08  1121   0.604E-04    0.441E-05
RMM:  18    -0.412947717487E+03   -0.18541E-05   -0.57725E-08  1037   0.576E-04    0.357E-05
RMM:  19    -0.412947718036E+03   -0.54851E-06   -0.25653E-08   791   0.529E-04
  144 T=    55. E= -.41267762E+03 F= -.41294772E+03 E0= -.41292737E+03  EK= 0.27010E+00 SP= 0.00E+00 SK= 0.00E+00
       N       E                     dE             d eps       ncg     rms          rms(c)
RMM:   1    -0.412967438803E+03   -0.19721E-01   -0.15116E+01  4277   0.124E+00    0.146E+00
RMM:   2    -0.412964116958E+03    0.33218E-02   -0.29393E-01  4467   0.152E-01    0.117E+00
RMM:   3    -0.412947603828E+03    0.16513E-01   -0.25439E-01  5028   0.143E-01    0.920E-01
RMM:   4    -0.412981908595E+03   -0.34305E-01   -0.82604E-02  5110   0.235E-01    0.962E-01
RMM:   5    -0.412931621480E+03    0.50287E-01   -0.26907E-02  4753   0.164E-01    0.711E-02
RMM:   6    -0.412931956550E+03   -0.33507E-03   -0.41007E-03  5766   0.617E-02    0.369E-02
RMM:   7    -0.412932229892E+03   -0.27334E-03   -0.53689E-04  5922   0.215E-02    0.234E-02
RMM:   8    -0.412932436015E+03   -0.20612E-03   -0.11470E-04  5132   0.124E-02    0.129E-02
RMM:   9    -0.412932620727E+03   -0.18471E-03   -0.28971E-05  4379   0.703E-03    0.793E-03
RMM:  10    -0.412932761806E+03   -0.14108E-03   -0.10786E-05  3061   0.437E-03    0.517E-03
RMM:  11    -0.412932944029E+03   -0.18222E-03   -0.10746E-05  2864   0.512E-03    0.231E-03
RMM:  12    -0.412933081669E+03   -0.13764E-03   -0.10797E-05  2840   0.414E-03    0.152E-03
RMM:  13    -0.412933135096E+03   -0.53427E-04   -0.40315E-06  2710   0.221E-03    0.114E-03
RMM:  14    -0.412933183925E+03   -0.48829E-04   -0.37996E-06  2684   0.194E-03    0.567E-04
RMM:  15    -0.412933202589E+03   -0.18665E-04   -0.18010E-06  1953   0.122E-03    0.329E-04
RMM:  16    -0.412933209374E+03   -0.67847E-05   -0.60864E-07  1647   0.861E-04    0.202E-04
RMM:  17    -0.412933211519E+03   -0.21450E-05   -0.20861E-07  1330   0.694E-04    0.883E-05
RMM:  18    -0.412933212848E+03   -0.13286E-05   -0.16013E-07  1311   0.658E-04    0.657E-05
RMM:  19    -0.412933213272E+03   -0.42390E-06   -0.83900E-08  1104   0.573E-04
  145 T=    43. E= -.41271989E+03 F= -.41293321E+03 E0= -.41291290E+03  EK= 0.21332E+00 SP= 0.00E+00 SK= 0.00E+00
       N       E                     dE             d eps       ncg     rms          rms(c)
RMM:   1    -0.413098452078E+03   -0.16524E+00   -0.10338E+01  4264   0.107E+00    0.158E+00
RMM:   2    -0.413062023520E+03    0.36429E-01   -0.13335E-01  4470   0.112E-01    0.883E-01
RMM:   3    -0.413053809582E+03    0.82139E-02   -0.61193E-02  5088   0.630E-02    0.885E-02
RMM:   4    -0.413065870828E+03   -0.12061E-01   -0.13408E-02  5179   0.976E-02    0.457E-01
RMM:   5    -0.413054040250E+03    0.11831E-01   -0.59502E-03  4826   0.776E-02    0.522E-02
RMM:   6    -0.413054035235E+03    0.50149E-05   -0.12550E-03  5705   0.355E-02    0.374E-02
RMM:   7    -0.413053968700E+03    0.66536E-04   -0.42905E-04  5460   0.206E-02    0.249E-02
RMM:   8    -0.413053916916E+03    0.51784E-04   -0.87041E-05  5108   0.110E-02    0.138E-02
RMM:   9    -0.413053891599E+03    0.25317E-04   -0.13181E-05  3378   0.395E-03    0.702E-03
RMM:  10    -0.413053860134E+03    0.31464E-04   -0.44491E-06  2631   0.267E-03    0.376E-03
RMM:  11    -0.413053811723E+03    0.48411E-04   -0.46260E-06  2660   0.257E-03    0.199E-03
RMM:  12    -0.413053771400E+03    0.40323E-04   -0.36844E-06  2664   0.218E-03    0.107E-03
RMM:  13    -0.413053748787E+03    0.22614E-04   -0.17498E-06  2530   0.154E-03    0.843E-04
RMM:  14    -0.413053733129E+03    0.15658E-04   -0.11117E-06  2280   0.121E-03    0.626E-04
RMM:  15    -0.413053720268E+03    0.12860E-04   -0.13447E-06  2422   0.122E-03    0.443E-04
RMM:  16    -0.413053716241E+03    0.40277E-05   -0.56562E-07  1445   0.817E-04    0.236E-04
RMM:  17    -0.413053715096E+03    0.11451E-05   -0.22641E-07  1356   0.696E-04    0.133E-04
RMM:  18    -0.413053715715E+03   -0.61930E-06   -0.10464E-07  1093   0.598E-04
  146 T=    51. E= -.41280203E+03 F= -.41305372E+03 E0= -.41303342E+03  EK= 0.25169E+00 SP= 0.00E+00 SK= 0.00E+00
       N       E                     dE             d eps       ncg     rms          rms(c)
RMM:   1    -0.413023436122E+03    0.30279E-01   -0.31678E+00  4264   0.754E-01    0.595E-01
RMM:   2    -0.413022027318E+03    0.14088E-02   -0.38775E-02  4523   0.754E-02    0.430E-01
RMM:   3    -0.413020064210E+03    0.19631E-02   -0.25758E-02  5114   0.552E-02    0.184E-01
RMM:   4    -0.413028331313E+03   -0.82671E-02   -0.11205E-02  5135   0.922E-02    0.411E-01
RMM:   5    -0.413018834317E+03    0.94970E-02   -0.48064E-03  4779   0.701E-02    0.344E-02
RMM:   6    -0.413018840222E+03   -0.59045E-05   -0.82710E-04  5690   0.282E-02    0.202E-02
RMM:   7    -0.413018854743E+03   -0.14522E-04   -0.16124E-04  5638   0.126E-02    0.146E-02
RMM:   8    -0.413018854099E+03    0.64434E-06   -0.32213E-05  4734   0.695E-03    0.577E-03
RMM:   9    -0.413018853456E+03    0.64298E-06   -0.65444E-06  3055   0.302E-03
  147 T=    47. E= -.41278872E+03 F= -.41301885E+03 E0= -.41299858E+03  EK= 0.23013E+00 SP= 0.00E+00 SK= 0.00E+00
       N       E                     dE             d eps       ncg     rms          rms(c)
RMM:   1    -0.413045805547E+03   -0.26951E-01   -0.99989E+00  4267   0.106E+00    0.119E+00
RMM:   2    -0.413039592013E+03    0.62135E-02   -0.15153E-01  4494   0.117E-01    0.906E-01
RMM:   3    -0.413030611866E+03    0.89801E-02   -0.14576E-01  5091   0.120E-01    0.683E-01
RMM:   4    -0.413043464376E+03   -0.12853E-01   -0.35651E-02  5081   0.164E-01    0.703E-01
RMM:   5    -0.413021268443E+03    0.22196E-01   -0.15952E-02  4702   0.114E-01    0.623E-02
RMM:   6    -0.413021420800E+03   -0.15236E-03   -0.17950E-03  5609   0.413E-02    0.333E-02
RMM:   7    -0.413021643172E+03   -0.22237E-03   -0.28673E-04  5862   0.157E-02    0.177E-02
RMM:   8    -0.413021802080E+03   -0.15891E-03   -0.63426E-05  5104   0.910E-03    0.939E-03
RMM:   9    -0.413021918434E+03   -0.11635E-03   -0.14004E-05  3493   0.468E-03    0.595E-03
RMM:  10    -0.413022002351E+03   -0.83917E-04   -0.42106E-06  2738   0.294E-03    0.390E-03
RMM:  11    -0.413022164372E+03   -0.16202E-03   -0.10552E-05  2826   0.457E-03    0.200E-03
RMM:  12    -0.413022229393E+03   -0.65022E-04   -0.46121E-06  2736   0.234E-03    0.126E-03
RMM:  13    -0.413022262105E+03   -0.32712E-04   -0.17542E-06  2567   0.149E-03    0.898E-04
RMM:  14    -0.413022299108E+03   -0.37003E-04   -0.20976E-06  2494   0.145E-03    0.556E-04
RMM:  15    -0.413022320018E+03   -0.20911E-04   -0.13473E-06  1856   0.111E-03    0.263E-04
RMM:  16    -0.413022326249E+03   -0.62310E-05   -0.43453E-07  1531   0.789E-04    0.176E-04
RMM:  17    -0.413022329516E+03   -0.32663E-05   -0.20331E-07  1361   0.675E-04    0.837E-05
RMM:  18    -0.413022330871E+03   -0.13552E-05   -0.11070E-07  1164   0.589E-04    0.566E-05
RMM:  19    -0.413022331558E+03   -0.68728E-06   -0.65357E-08  1032   0.535E-04
  148 T=    43. E= -.41281110E+03 F= -.41302233E+03 E0= -.41300208E+03  EK= 0.21123E+00 SP= 0.00E+00 SK= 0.00E+00
       N       E                     dE             d eps       ncg     rms          rms(c)
RMM:   1    -0.413126044371E+03   -0.10371E+00   -0.61189E+00  4264   0.886E-01    0.111E+00
RMM:   2    -0.413111427777E+03    0.14617E-01   -0.73435E-02  4507   0.916E-02    0.668E-01
RMM:   3    -0.413107142530E+03    0.42852E-02   -0.37791E-02  5191   0.605E-02    0.129E-01
RMM:   4    -0.413123815925E+03   -0.16673E-01   -0.19999E-02  5140   0.121E-01    0.550E-01
RMM:   5    -0.413106399677E+03    0.17416E-01   -0.80405E-03  4791   0.918E-02    0.476E-02
RMM:   6    -0.413106409660E+03   -0.99830E-05   -0.15714E-03  5688   0.390E-02    0.313E-02
RMM:   7    -0.413106393725E+03    0.15935E-04   -0.31343E-04  5717   0.172E-02    0.196E-02
RMM:   8    -0.413106367695E+03    0.26030E-04   -0.56320E-05  5107   0.869E-03    0.951E-03
RMM:   9    -0.413106350511E+03    0.17184E-04   -0.91558E-06  3211   0.349E-03    0.503E-03
RMM:  10    -0.413106333081E+03    0.17430E-04   -0.22905E-06  2596   0.221E-03    0.304E-03
RMM:  11    -0.413106306983E+03    0.26098E-04   -0.21707E-06  2592   0.197E-03    0.166E-03
RMM:  12    -0.413106285027E+03    0.21956E-04   -0.16127E-06  2552   0.164E-03    0.782E-04
RMM:  13    -0.413106273808E+03    0.11219E-04   -0.78582E-07  2323   0.119E-03    0.560E-04
RMM:  14    -0.413106265118E+03    0.86903E-05   -0.59178E-07  2011   0.995E-04    0.409E-04
RMM:  15    -0.413106256088E+03    0.90297E-05   -0.79821E-07  2260   0.106E-03    0.347E-04
RMM:  16    -0.413106254182E+03    0.19067E-05   -0.30466E-07  1378   0.690E-04    0.189E-04
RMM:  17    -0.413106253380E+03    0.80125E-06   -0.14753E-07  1149   0.611E-04
  149 T=    46. E= -.41287893E+03 F= -.41310625E+03 E0= -.41308601E+03  EK= 0.22733E+00 SP= 0.00E+00 SK= 0.00E+00
       N       E                     dE             d eps       ncg     rms          rms(c)
RMM:   1    -0.413071731737E+03    0.34522E-01   -0.37967E+00  4264   0.783E-01    0.668E-01
RMM:   2    -0.413069704030E+03    0.20277E-02   -0.44175E-02  4513   0.804E-02    0.464E-01
RMM:   3    -0.413067636686E+03    0.20673E-02   -0.21044E-02  5124   0.537E-02    0.142E-01
RMM:   4    -0.413078917934E+03   -0.11281E-01   -0.14052E-02  5140   0.102E-01    0.462E-01
RMM:   5    -0.413066731987E+03    0.12186E-01   -0.57396E-03  4790   0.781E-02    0.391E-02
RMM:   6    -0.413066732601E+03   -0.61390E-06   -0.10805E-03  5671   0.324E-02    0.246E-02
RMM:   7    -0.413066735577E+03   -0.29760E-05   -0.21108E-04  5692   0.139E-02    0.159E-02
RMM:   8    -0.413066729320E+03    0.62567E-05   -0.37684E-05  4957   0.701E-03    0.719E-03
RMM:   9    -0.413066725278E+03    0.40421E-05   -0.56993E-06  3004   0.286E-03    0.361E-03
RMM:  10    -0.413066722191E+03    0.30863E-05   -0.11146E-06  2512   0.172E-03    0.212E-03
RMM:  11    -0.413066717383E+03    0.48080E-05   -0.95242E-07  2496   0.143E-03    0.120E-03
RMM:  12    -0.413066714583E+03    0.28004E-05   -0.51747E-07  2189   0.107E-03    0.502E-04
RMM:  13    -0.413066712469E+03    0.21140E-05   -0.33043E-07  1893   0.895E-04    0.292E-04
RMM:  14    -0.413066711421E+03    0.10476E-05   -0.20051E-07  1415   0.751E-04    0.200E-04
RMM:  15    -0.413066710243E+03    0.11785E-05   -0.25215E-07  1677   0.782E-04    0.142E-04
RMM:  16    -0.413066710445E+03   -0.20237E-06   -0.11392E-07  1256   0.627E-04
  150 T=    42. E= -.41285901E+03 F= -.41306671E+03 E0= -.41304647E+03  EK= 0.20771E+00 SP= 0.00E+00 SK= 0.00E+00
