       N       E                     dE             d eps       ncg     rms          rms(c)
RMM:   1     0.220144008185E+04    0.22014E+04   -0.52441E+04  2132   0.654E+02
RMM:   2     0.705302185668E+03   -0.14961E+04   -0.16264E+04  2132   0.177E+02
RMM:   3     0.137531517349E+03   -0.56777E+03   -0.65699E+03  2132   0.117E+02
RMM:   4    -0.159445974984E+03   -0.29698E+03   -0.27841E+03  2132   0.936E+01
RMM:   5    -0.287493105486E+03   -0.12805E+03   -0.11449E+03  2132   0.595E+01
RMM:   6    -0.349673308819E+03   -0.62180E+02   -0.55070E+02  2132   0.423E+01
RMM:   7    -0.382572414841E+03   -0.32899E+02   -0.30433E+02  2132   0.293E+01
RMM:   8    -0.404089392650E+03   -0.21517E+02   -0.18496E+02  2132   0.233E+01
RMM:   9    -0.435994784977E+03   -0.31905E+02   -0.30840E+02  6103   0.173E+01
RMM:  10    -0.441272641651E+03   -0.52779E+01   -0.62929E+01  6392   0.539E+00
RMM:  11    -0.442501771605E+03   -0.12291E+01   -0.11185E+01  6221   0.174E+00
RMM:  12    -0.442880120890E+03   -0.37835E+00   -0.27105E+00  6379   0.605E-01    0.134E+02
RMM:  13    -0.425629327843E+03    0.17251E+02   -0.81273E+01  4682   0.119E+01    0.712E+01
RMM:  14    -0.500194316108E+03   -0.74565E+02   -0.54388E+02  5420   0.233E+01    0.309E+01
RMM:  15    -0.419198175512E+03    0.80996E+02   -0.20881E+02  5122   0.165E+01    0.932E+00
RMM:  16    -0.413988822675E+03    0.52094E+01   -0.41478E+01  6089   0.632E+00    0.433E+00
RMM:  17    -0.413201726061E+03    0.78710E+00   -0.29682E+00  5466   0.200E+00    0.243E+00
RMM:  18    -0.413181846207E+03    0.19880E-01   -0.72999E-01  6022   0.859E-01    0.175E+00
RMM:  19    -0.413186567364E+03   -0.47212E-02   -0.23224E-01  5593   0.539E-01    0.104E+00
RMM:  20    -0.413205803712E+03   -0.19236E-01   -0.45514E-01  5583   0.679E-01    0.800E-01
RMM:  21    -0.413173587203E+03    0.32217E-01   -0.43985E-02  4962   0.282E-01    0.406E-01
RMM:  22    -0.413165975104E+03    0.76121E-02   -0.44466E-02  5693   0.213E-01    0.163E-01
RMM:  23    -0.413165258040E+03    0.71706E-03   -0.62232E-03  5727   0.757E-02    0.924E-02
RMM:  24    -0.413164003264E+03    0.12548E-02   -0.20704E-03  5358   0.440E-02    0.579E-02
RMM:  25    -0.413162961515E+03    0.10417E-02   -0.10610E-03  5061   0.322E-02    0.353E-02
RMM:  26    -0.413163005061E+03   -0.43546E-04   -0.11060E-03  5910   0.319E-02    0.315E-02
RMM:  27    -0.413163415337E+03   -0.41028E-03   -0.21781E-04  4598   0.196E-02    0.205E-02
RMM:  28    -0.413163781221E+03   -0.36588E-03   -0.15236E-04  4979   0.158E-02    0.936E-03
RMM:  29    -0.413164181890E+03   -0.40067E-03   -0.10880E-04  4586   0.156E-02    0.446E-03
RMM:  30    -0.413164481053E+03   -0.29916E-03   -0.10279E-04  4358   0.128E-02    0.394E-03
RMM:  31    -0.413164620156E+03   -0.13910E-03   -0.66923E-05  3502   0.769E-03    0.365E-03
RMM:  32    -0.413164645444E+03   -0.25288E-04   -0.23159E-05  2985   0.313E-03    0.264E-03
RMM:  33    -0.413164659438E+03   -0.13993E-04   -0.97249E-06  2820   0.243E-03    0.111E-03
RMM:  34    -0.413164659496E+03   -0.57953E-07   -0.58293E-06  2584   0.144E-03
    1 T=    61. E= -.41286685E+03 F= -.41316466E+03 E0= -.41314216E+03  EK= 0.29781E+00 SP= 0.00E+00 SK= 0.00E+00
       N       E                     dE             d eps       ncg     rms          rms(c)
RMM:   1    -0.413166926809E+03   -0.22674E-02   -0.80249E+00  4004   0.574E-01    0.890E-01
RMM:   2    -0.413169666705E+03   -0.27399E-02   -0.99450E-02  3962   0.851E-02    0.656E-01
RMM:   3    -0.413165038983E+03    0.46277E-02   -0.25630E-02  4865   0.576E-02    0.134E-01
RMM:   4    -0.413187367358E+03   -0.22328E-01   -0.24908E-02  5190   0.132E-01    0.630E-01
RMM:   5    -0.413164170636E+03    0.23197E-01   -0.11174E-02  4837   0.106E-01    0.488E-02
RMM:   6    -0.413164337027E+03   -0.16639E-03   -0.21634E-03  5738   0.451E-02    0.351E-02
RMM:   7    -0.413164330622E+03    0.64057E-05   -0.41943E-04  5648   0.188E-02    0.211E-02
RMM:   8    -0.413164328028E+03    0.25936E-05   -0.45807E-05  5129   0.757E-03    0.877E-03
RMM:   9    -0.413164330782E+03   -0.27540E-05   -0.97822E-06  3411   0.326E-03    0.647E-03
RMM:  10    -0.413164336073E+03   -0.52915E-05   -0.22028E-06  2594   0.220E-03    0.374E-03
RMM:  11    -0.413164340425E+03   -0.43519E-05   -0.12883E-06  2519   0.167E-03    0.196E-03
RMM:  12    -0.413164346674E+03   -0.62484E-05   -0.14284E-06  2532   0.169E-03    0.833E-04
RMM:  13    -0.413164349418E+03   -0.27443E-05   -0.64768E-07  2328   0.119E-03    0.600E-04
RMM:  14    -0.413164349527E+03   -0.10903E-06   -0.34359E-07  1817   0.823E-04
    2 T=    61. E= -.41286660E+03 F= -.41316435E+03 E0= -.41314185E+03  EK= 0.29775E+00 SP= 0.00E+00 SK= 0.00E+00
       N       E                     dE             d eps       ncg     rms          rms(c)
RMM:   1    -0.413167880743E+03   -0.35313E-02   -0.80022E+00  4187   0.576E-01    0.907E-01
RMM:   2    -0.413169890633E+03   -0.20099E-02   -0.98923E-02  4055   0.874E-02    0.653E-01
RMM:   3    -0.413165828893E+03    0.40617E-02   -0.23886E-02  4930   0.572E-02    0.136E-01
RMM:   4    -0.413194514865E+03   -0.28686E-01   -0.31828E-02  5156   0.150E-01    0.712E-01
RMM:   5    -0.413164785072E+03    0.29730E-01   -0.13934E-02  4813   0.118E-01    0.511E-02
RMM:   6    -0.413164975369E+03   -0.19030E-03   -0.26035E-03  5740   0.497E-02    0.370E-02
RMM:   7    -0.413164959293E+03    0.16075E-04   -0.47036E-04  5611   0.206E-02    0.231E-02
RMM:   8    -0.413164948613E+03    0.10680E-04   -0.61677E-05  5217   0.906E-03    0.105E-02
RMM:   9    -0.413164946681E+03    0.19323E-05   -0.12715E-05  3826   0.393E-03    0.758E-03
RMM:  10    -0.413164947014E+03   -0.33256E-06   -0.23609E-06  2609   0.242E-03
    3 T=    61. E= -.41286695E+03 F= -.41316495E+03 E0= -.41314245E+03  EK= 0.29800E+00 SP= 0.00E+00 SK= 0.00E+00
       N       E                     dE             d eps       ncg     rms          rms(c)
RMM:   1    -0.413167336536E+03   -0.23899E-02   -0.79426E+00  4221   0.580E-01    0.892E-01
RMM:   2    -0.413169325328E+03   -0.19888E-02   -0.98575E-02  4242   0.850E-02    0.647E-01
RMM:   3    -0.413172973129E+03   -0.36478E-02   -0.29082E-02  5174   0.964E-02    0.387E-01
RMM:   4    -0.413183244013E+03   -0.10271E-01   -0.36108E-02  5088   0.165E-01    0.565E-01
RMM:   5    -0.413164697256E+03    0.18547E-01   -0.66317E-03  4639   0.935E-02    0.574E-02
RMM:   6    -0.413164679779E+03    0.17477E-04   -0.13900E-03  5352   0.379E-02    0.323E-02
RMM:   7    -0.413164689128E+03   -0.93498E-05   -0.29764E-04  5898   0.162E-02    0.189E-02
RMM:   8    -0.413164684718E+03    0.44100E-05   -0.51026E-05  5076   0.849E-03    0.750E-03
RMM:   9    -0.413164683310E+03    0.14086E-05   -0.60149E-06  3124   0.329E-03    0.382E-03
RMM:  10    -0.413164684450E+03   -0.11407E-05   -0.14847E-06  2534   0.206E-03    0.236E-03
RMM:  11    -0.413164685878E+03   -0.14277E-05   -0.11623E-06  2516   0.169E-03    0.128E-03
RMM:  12    -0.413164686674E+03   -0.79614E-06   -0.74039E-07  2475   0.134E-03
    4 T=    61. E= -.41286665E+03 F= -.41316469E+03 E0= -.41314220E+03  EK= 0.29803E+00 SP= 0.00E+00 SK= 0.00E+00
       N       E                     dE             d eps       ncg     rms          rms(c)
RMM:   1    -0.413167337173E+03   -0.26513E-02   -0.80135E+00  4234   0.587E-01    0.888E-01
RMM:   2    -0.413169735662E+03   -0.23985E-02   -0.99674E-02  3999   0.814E-02    0.655E-01
RMM:   3    -0.413166075767E+03    0.36599E-02   -0.25969E-02  5015   0.571E-02    0.165E-01
RMM:   4    -0.413196164808E+03   -0.30089E-01   -0.34705E-02  5142   0.157E-01    0.733E-01
RMM:   5    -0.413164624028E+03    0.31541E-01   -0.14622E-02  4800   0.122E-01    0.512E-02
RMM:   6    -0.413164828927E+03   -0.20490E-03   -0.26540E-03  5737   0.506E-02    0.353E-02
RMM:   7    -0.413164824185E+03    0.47421E-05   -0.46343E-04  5704   0.201E-02    0.226E-02
RMM:   8    -0.413164819408E+03    0.47775E-05   -0.62469E-05  5179   0.897E-03    0.102E-02
RMM:   9    -0.413164820120E+03   -0.71246E-06   -0.12071E-05  3794   0.393E-03    0.720E-03
RMM:  10    -0.413164824504E+03   -0.43838E-05   -0.21411E-06  2584   0.232E-03    0.428E-03
RMM:  11    -0.413164827847E+03   -0.33428E-05   -0.11512E-06  2527   0.172E-03    0.239E-03
RMM:  12    -0.413164833559E+03   -0.57128E-05   -0.18745E-06  2598   0.197E-03    0.112E-03
RMM:  13    -0.413164836076E+03   -0.25169E-05   -0.69254E-07  2425   0.136E-03    0.865E-04
RMM:  14    -0.413164835838E+03    0.23822E-06   -0.25645E-07  1945   0.876E-04
    5 T=    61. E= -.41286662E+03 F= -.41316484E+03 E0= -.41314236E+03  EK= 0.29821E+00 SP= 0.00E+00 SK= 0.00E+00
       N       E                     dE             d eps       ncg     rms          rms(c)
RMM:   1    -0.413168196703E+03   -0.33606E-02   -0.80072E+00  4246   0.590E-01    0.904E-01
RMM:   2    -0.413169995926E+03   -0.17992E-02   -0.99252E-02  3974   0.800E-02    0.655E-01
RMM:   3    -0.413166139687E+03    0.38562E-02   -0.24245E-02  4970   0.514E-02    0.133E-01
RMM:   4    -0.413193260825E+03   -0.27121E-01   -0.29783E-02  5138   0.145E-01    0.693E-01
RMM:   5    -0.413165150597E+03    0.28110E-01   -0.13167E-02  4805   0.115E-01    0.500E-02
RMM:   6    -0.413165349815E+03   -0.19922E-03   -0.24860E-03  5740   0.481E-02    0.358E-02
RMM:   7    -0.413165340100E+03    0.97150E-05   -0.43937E-04  5612   0.202E-02    0.226E-02
RMM:   8    -0.413165329676E+03    0.10424E-04   -0.59180E-05  5100   0.882E-03    0.106E-02
RMM:   9    -0.413165327509E+03    0.21670E-05   -0.11619E-05  3736   0.385E-03    0.768E-03
RMM:  10    -0.413165327826E+03   -0.31684E-06   -0.21312E-06  2572   0.238E-03
    6 T=    61. E= -.41286685E+03 F= -.41316533E+03 E0= -.41314286E+03  EK= 0.29847E+00 SP= 0.00E+00 SK= 0.00E+00
       N       E                     dE             d eps       ncg     rms          rms(c)
RMM:   1    -0.413167915835E+03   -0.25883E-02   -0.79564E+00  4257   0.596E-01    0.899E-01
RMM:   2    -0.413169830532E+03   -0.19147E-02   -0.98693E-02  4277   0.812E-02    0.649E-01
RMM:   3    -0.413172952002E+03   -0.31215E-02   -0.28705E-02  5150   0.936E-02    0.377E-01
RMM:   4    -0.413184174990E+03   -0.11223E-01   -0.36150E-02  5078   0.164E-01    0.572E-01
RMM:   5    -0.413165087924E+03    0.19087E-01   -0.68721E-03  4648   0.944E-02    0.572E-02
RMM:   6    -0.413165080142E+03    0.77818E-05   -0.14354E-03  5381   0.383E-02    0.327E-02
RMM:   7    -0.413165088676E+03   -0.85344E-05   -0.29745E-04  5864   0.163E-02    0.189E-02
RMM:   8    -0.413165082748E+03    0.59286E-05   -0.49805E-05  5069   0.842E-03    0.746E-03
RMM:   9    -0.413165080080E+03    0.26676E-05   -0.57133E-06  3072   0.323E-03    0.385E-03
RMM:  10    -0.413165079897E+03    0.18281E-06   -0.15017E-06  2530   0.206E-03
    7 T=    61. E= -.41286658E+03 F= -.41316508E+03 E0= -.41314263E+03  EK= 0.29850E+00 SP= 0.00E+00 SK= 0.00E+00
       N       E                     dE             d eps       ncg     rms          rms(c)
RMM:   1    -0.413168247907E+03   -0.31678E-02   -0.79927E+00  4268   0.604E-01    0.886E-01
RMM:   2    -0.413170939563E+03   -0.26917E-02   -0.99353E-02  4084   0.844E-02    0.653E-01
RMM:   3    -0.413167094336E+03    0.38452E-02   -0.25743E-02  4984   0.620E-02    0.172E-01
RMM:   4    -0.413198227198E+03   -0.31133E-01   -0.36358E-02  5136   0.160E-01    0.746E-01
RMM:   5    -0.413165516226E+03    0.32711E-01   -0.15101E-02  4797   0.124E-01    0.522E-02
RMM:   6    -0.413165717048E+03   -0.20082E-03   -0.27537E-03  5734   0.513E-02    0.356E-02
RMM:   7    -0.413165713306E+03    0.37420E-05   -0.47194E-04  5695   0.201E-02    0.227E-02
RMM:   8    -0.413165707498E+03    0.58075E-05   -0.63266E-05  5210   0.889E-03    0.102E-02
RMM:   9    -0.413165706906E+03    0.59273E-06   -0.12121E-05  3801   0.391E-03    0.709E-03
RMM:  10    -0.413165709717E+03   -0.28118E-05   -0.21352E-06  2578   0.232E-03    0.426E-03
RMM:  11    -0.413165711814E+03   -0.20967E-05   -0.10948E-06  2518   0.168E-03    0.242E-03
RMM:  12    -0.413165715374E+03   -0.35597E-05   -0.17956E-06  2580   0.194E-03    0.111E-03
RMM:  13    -0.413165716980E+03   -0.16066E-05   -0.76575E-07  2438   0.138E-03    0.935E-04
RMM:  14    -0.413165716705E+03    0.27574E-06   -0.26546E-07  1955   0.889E-04
    8 T=    61. E= -.41286687E+03 F= -.41316572E+03 E0= -.41314329E+03  EK= 0.29885E+00 SP= 0.00E+00 SK= 0.00E+00
       N       E                     dE             d eps       ncg     rms          rms(c)
RMM:   1    -0.413168744175E+03   -0.30272E-02   -0.80145E+00  4280   0.602E-01    0.900E-01
RMM:   2    -0.413171018053E+03   -0.22739E-02   -0.99101E-02  4123   0.843E-02    0.656E-01
RMM:   3    -0.413166758503E+03    0.42595E-02   -0.24903E-02  4922   0.574E-02    0.141E-01
RMM:   4    -0.413194537371E+03   -0.27779E-01   -0.30699E-02  5124   0.147E-01    0.702E-01
RMM:   5    -0.413165690482E+03    0.28847E-01   -0.13587E-02  4799   0.116E-01    0.498E-02
RMM:   6    -0.413165879725E+03   -0.18924E-03   -0.25028E-03  5740   0.485E-02    0.353E-02
RMM:   7    -0.413165868295E+03    0.11430E-04   -0.43555E-04  5616   0.200E-02    0.224E-02
RMM:   8    -0.413165857913E+03    0.10382E-04   -0.59995E-05  5098   0.878E-03    0.105E-02
RMM:   9    -0.413165855985E+03    0.19278E-05   -0.11768E-05  3759   0.388E-03    0.763E-03
RMM:  10    -0.413165856490E+03   -0.50514E-06   -0.21152E-06  2569   0.237E-03
    9 T=    61. E= -.41286678E+03 F= -.41316586E+03 E0= -.41314345E+03  EK= 0.29908E+00 SP= 0.00E+00 SK= 0.00E+00
       N       E                     dE             d eps       ncg     rms          rms(c)
RMM:   1    -0.413168898098E+03   -0.30421E-02   -0.79775E+00  4288   0.608E-01    0.905E-01
RMM:   2    -0.413170813831E+03   -0.19157E-02   -0.98967E-02  4296   0.866E-02    0.651E-01
RMM:   3    -0.413173912202E+03   -0.30984E-02   -0.28931E-02  5129   0.961E-02    0.380E-01
RMM:   4    -0.413184785562E+03   -0.10873E-01   -0.36052E-02  5065   0.164E-01    0.569E-01
RMM:   5    -0.413165926355E+03    0.18859E-01   -0.67006E-03  4636   0.937E-02    0.572E-02
RMM:   6    -0.413165921693E+03    0.46619E-05   -0.14690E-03  5373   0.381E-02    0.331E-02
RMM:   7    -0.413165921537E+03    0.15567E-06   -0.29964E-04  5833   0.164E-02    0.190E-02
RMM:   8    -0.413165914325E+03    0.72121E-05   -0.50163E-05  5053   0.849E-03    0.753E-03
RMM:   9    -0.413165910609E+03    0.37157E-05   -0.59663E-06  3081   0.324E-03    0.393E-03
RMM:  10    -0.413165909257E+03    0.13525E-05   -0.15298E-06  2525   0.207E-03    0.242E-03
RMM:  11    -0.413165907352E+03    0.19046E-05   -0.10920E-06  2494   0.166E-03    0.126E-03
RMM:  12    -0.413165905376E+03    0.19766E-05   -0.74080E-07  2455   0.135E-03    0.550E-04
RMM:  13    -0.413165904148E+03    0.12277E-05   -0.36970E-07  2052   0.985E-04    0.328E-04
RMM:  14    -0.413165902837E+03    0.13107E-05   -0.23143E-07  1548   0.789E-04    0.207E-04
RMM:  15    -0.413165900463E+03    0.23738E-05   -0.28153E-07  1648   0.789E-04    0.222E-04
RMM:  16    -0.413165898299E+03    0.21642E-05   -0.19949E-07  1340   0.694E-04    0.157E-04
RMM:  17    -0.413165896593E+03    0.17061E-05   -0.13491E-07  1215   0.644E-04    0.750E-05
RMM:  18    -0.413165895190E+03    0.14032E-05   -0.93783E-08  1103   0.603E-04    0.470E-05
RMM:  19    -0.413165894669E+03    0.52074E-06   -0.41878E-08   813   0.543E-04
   10 T=    61. E= -.41286658E+03 F= -.41316589E+03 E0= -.41314351E+03  EK= 0.29932E+00 SP= 0.00E+00 SK= 0.00E+00
       N       E                     dE             d eps       ncg     rms          rms(c)
RMM:   1    -0.413169212276E+03   -0.33171E-02   -0.79712E+00  4288   0.610E-01    0.886E-01
RMM:   2    -0.413171614747E+03   -0.24025E-02   -0.99125E-02  4201   0.846E-02    0.651E-01
RMM:   3    -0.413168028879E+03    0.35859E-02   -0.25452E-02  4983   0.604E-02    0.168E-01
RMM:   4    -0.413199132912E+03   -0.31104E-01   -0.36350E-02  5118   0.160E-01    0.745E-01
RMM:   5    -0.413166496907E+03    0.32636E-01   -0.15219E-02  4787   0.123E-01    0.520E-02
RMM:   6    -0.413166696973E+03   -0.20007E-03   -0.26869E-03  5709   0.508E-02    0.360E-02
RMM:   7    -0.413166689356E+03    0.76167E-05   -0.46670E-04  5605   0.202E-02    0.226E-02
RMM:   8    -0.413166681817E+03    0.75392E-05   -0.63474E-05  5222   0.895E-03    0.102E-02
RMM:   9    -0.413166680307E+03    0.15101E-05   -0.12370E-05  3861   0.396E-03    0.704E-03
RMM:  10    -0.413166681948E+03   -0.16406E-05   -0.21188E-06  2577   0.231E-03    0.422E-03
RMM:  11    -0.413166683162E+03   -0.12138E-05   -0.10050E-06  2497   0.163E-03    0.242E-03
RMM:  12    -0.413166685202E+03   -0.20403E-05   -0.15662E-06  2543   0.188E-03    0.112E-03
RMM:  13    -0.413166686002E+03   -0.80046E-06   -0.66110E-07  2412   0.134E-03
   11 T=    61. E= -.41286685E+03 F= -.41316669E+03 E0= -.41314433E+03  EK= 0.29984E+00 SP= 0.00E+00 SK= 0.00E+00
       N       E                     dE             d eps       ncg     rms          rms(c)
RMM:   1    -0.413169498501E+03   -0.28133E-02   -0.80296E+00  4291   0.621E-01    0.897E-01
RMM:   2    -0.413171577148E+03   -0.20786E-02   -0.99888E-02  4209   0.847E-02    0.658E-01
RMM:   3    -0.413167646659E+03    0.39305E-02   -0.25609E-02  4911   0.570E-02    0.149E-01
RMM:   4    -0.413196005731E+03   -0.28359E-01   -0.31843E-02  5117   0.149E-01    0.710E-01
RMM:   5    -0.413166446893E+03    0.29559E-01   -0.13842E-02  4794   0.118E-01    0.501E-02
RMM:   6    -0.413166649398E+03   -0.20251E-03   -0.26234E-03  5752   0.488E-02    0.348E-02
RMM:   7    -0.413166648529E+03    0.86935E-06   -0.43414E-04  5638   0.199E-02    0.226E-02
RMM:   8    -0.413166638655E+03    0.98734E-05   -0.63325E-05  5047   0.889E-03    0.108E-02
RMM:   9    -0.413166636346E+03    0.23092E-05   -0.12355E-05  3818   0.399E-03    0.783E-03
RMM:  10    -0.413166637230E+03   -0.88385E-06   -0.21454E-06  2575   0.239E-03
   12 T=    61. E= -.41286652E+03 F= -.41316664E+03 E0= -.41314431E+03  EK= 0.30012E+00 SP= 0.00E+00 SK= 0.00E+00
       N       E                     dE             d eps       ncg     rms          rms(c)
RMM:   1    -0.413170394490E+03   -0.37581E-02   -0.80005E+00  4302   0.622E-01    0.910E-01
RMM:   2    -0.413171804229E+03   -0.14097E-02   -0.99440E-02  4313   0.823E-02    0.654E-01
RMM:   3    -0.413175924081E+03   -0.41199E-02   -0.29600E-02  5157   0.956E-02    0.395E-01
RMM:   4    -0.413185315252E+03   -0.93912E-02   -0.36229E-02  5068   0.164E-01    0.556E-01
RMM:   5    -0.413167281243E+03    0.18034E-01   -0.62931E-03  4615   0.916E-02    0.568E-02
RMM:   6    -0.413167274764E+03    0.64789E-05   -0.13954E-03  5350   0.370E-02    0.331E-02
RMM:   7    -0.413167276976E+03   -0.22123E-05   -0.28592E-04  5790   0.161E-02    0.188E-02
RMM:   8    -0.413167267730E+03    0.92459E-05   -0.48130E-05  5031   0.840E-03    0.738E-03
RMM:   9    -0.413167263045E+03    0.46852E-05   -0.55891E-06  3030   0.319E-03    0.383E-03
RMM:  10    -0.413167260944E+03    0.21011E-05   -0.14456E-06  2507   0.202E-03    0.235E-03
RMM:  11    -0.413167258009E+03    0.29348E-05   -0.10213E-06  2479   0.163E-03    0.123E-03
RMM:  12    -0.413167255183E+03    0.28256E-05   -0.67860E-07  2443   0.131E-03    0.542E-04
RMM:  13    -0.413167253443E+03    0.17403E-05   -0.34713E-07  2017   0.966E-04    0.334E-04
RMM:  14    -0.413167251633E+03    0.18097E-05   -0.21104E-07  1556   0.777E-04    0.213E-04
RMM:  15    -0.413167248214E+03    0.34191E-05   -0.25987E-07  1704   0.797E-04    0.245E-04
RMM:  16    -0.413167245352E+03    0.28625E-05   -0.17592E-07  1306   0.676E-04    0.144E-04
RMM:  17    -0.413167243417E+03    0.19344E-05   -0.11080E-07  1172   0.623E-04    0.707E-05
RMM:  18    -0.413167241908E+03    0.15089E-05   -0.72375E-08  1015   0.583E-04    0.517E-05
RMM:  19    -0.413167241090E+03    0.81836E-06   -0.38563E-08   818   0.542E-04
   13 T=    61. E= -.41286665E+03 F= -.41316724E+03 E0= -.41314494E+03  EK= 0.30059E+00 SP= 0.00E+00 SK= 0.00E+00
       N       E                     dE             d eps       ncg     rms          rms(c)
RMM:   1    -0.413170779907E+03   -0.35380E-02   -0.79616E+00  4292   0.631E-01    0.889E-01
RMM:   2    -0.413172714338E+03   -0.19344E-02   -0.98982E-02  4227   0.802E-02    0.650E-01
RMM:   3    -0.413169300301E+03    0.34140E-02   -0.25128E-02  5018   0.577E-02    0.170E-01
RMM:   4    -0.413201036687E+03   -0.31736E-01   -0.37634E-02  5120   0.162E-01    0.752E-01
RMM:   5    -0.413167696636E+03    0.33340E-01   -0.15486E-02  4782   0.125E-01    0.526E-02
RMM:   6    -0.413167894653E+03   -0.19802E-03   -0.27387E-03  5709   0.513E-02    0.364E-02
RMM:   7    -0.413167880037E+03    0.14616E-04   -0.47279E-04  5621   0.203E-02    0.230E-02
RMM:   8    -0.413167871372E+03    0.86650E-05   -0.65756E-05  5220   0.915E-03    0.104E-02
RMM:   9    -0.413167868250E+03    0.31223E-05   -0.12696E-05  3880   0.402E-03    0.711E-03
RMM:  10    -0.413167868201E+03    0.49324E-07   -0.21316E-06  2566   0.233E-03
   14 T=    61. E= -.41286680E+03 F= -.41316787E+03 E0= -.41314560E+03  EK= 0.30107E+00 SP= 0.00E+00 SK= 0.00E+00
       N       E                     dE             d eps       ncg     rms          rms(c)
RMM:   1    -0.413170669549E+03   -0.28013E-02   -0.80430E+00  4300   0.628E-01    0.896E-01
RMM:   2    -0.413173189622E+03   -0.25201E-02   -0.99880E-02  4326   0.826E-02    0.660E-01
RMM:   3    -0.413176793972E+03   -0.36043E-02   -0.31838E-02  5128   0.993E-02    0.401E-01
RMM:   4    -0.413187345474E+03   -0.10552E-01   -0.38065E-02  5063   0.168E-01    0.579E-01
RMM:   5    -0.413167904255E+03    0.19441E-01   -0.71058E-03  4626   0.960E-02    0.558E-02
RMM:   6    -0.413167914903E+03   -0.10649E-04   -0.15000E-03  5370   0.378E-02    0.317E-02
RMM:   7    -0.413167928390E+03   -0.13487E-04   -0.29377E-04  5826   0.159E-02    0.186E-02
RMM:   8    -0.413167924437E+03    0.39530E-05   -0.49443E-05  5050   0.827E-03    0.731E-03
RMM:   9    -0.413167922996E+03    0.14418E-05   -0.55195E-06  3003   0.316E-03    0.384E-03
RMM:  10    -0.413167924110E+03   -0.11141E-05   -0.14354E-06  2505   0.200E-03    0.236E-03
RMM:  11    -0.413167925237E+03   -0.11275E-05   -0.10174E-06  2479   0.160E-03    0.122E-03
RMM:  12    -0.413167925759E+03   -0.52155E-06   -0.66222E-07  2429   0.129E-03
   15 T=    61. E= -.41286651E+03 F= -.41316793E+03 E0= -.41314569E+03  EK= 0.30142E+00 SP= 0.00E+00 SK= 0.00E+00
       N       E                     dE             d eps       ncg     rms          rms(c)
RMM:   1    -0.413172294569E+03   -0.43693E-02   -0.80209E+00  4293   0.635E-01    0.912E-01
RMM:   2    -0.413174049007E+03   -0.17544E-02   -0.99675E-02  4244   0.864E-02    0.656E-01
RMM:   3    -0.413170292319E+03    0.37567E-02   -0.24612E-02  4985   0.610E-02    0.162E-01
RMM:   4    -0.413202651534E+03   -0.32359E-01   -0.37715E-02  5116   0.162E-01    0.757E-01
RMM:   5    -0.413168802928E+03    0.33849E-01   -0.15714E-02  4780   0.125E-01    0.530E-02
RMM:   6    -0.413169008619E+03   -0.20569E-03   -0.28427E-03  5725   0.521E-02    0.376E-02
RMM:   7    -0.413168983648E+03    0.24971E-04   -0.48926E-04  5647   0.210E-02    0.238E-02
RMM:   8    -0.413168969343E+03    0.14305E-04   -0.68360E-05  5209   0.936E-03    0.110E-02
RMM:   9    -0.413168963889E+03    0.54538E-05   -0.13007E-05  3897   0.412E-03    0.763E-03
RMM:  10    -0.413168960108E+03    0.37805E-05   -0.23275E-06  2592   0.242E-03    0.451E-03
RMM:  11    -0.413168957586E+03    0.25225E-05   -0.11693E-06  2509   0.175E-03    0.256E-03
RMM:  12    -0.413168952623E+03    0.49630E-05   -0.17821E-06  2572   0.201E-03    0.116E-03
RMM:  13    -0.413168949102E+03    0.35205E-05   -0.71394E-07  2423   0.141E-03    0.993E-04
RMM:  14    -0.413168949276E+03   -0.17363E-06   -0.27267E-07  2011   0.914E-04
   16 T=    62. E= -.41286683E+03 F= -.41316895E+03 E0= -.41314675E+03  EK= 0.30212E+00 SP= 0.00E+00 SK= 0.00E+00
       N       E                     dE             d eps       ncg     rms          rms(c)
RMM:   1    -0.413172379608E+03   -0.34305E-02   -0.79667E+00  4294   0.639E-01    0.894E-01
RMM:   2    -0.413174553864E+03   -0.21743E-02   -0.99241E-02  4245   0.884E-02    0.651E-01
RMM:   3    -0.413170471724E+03    0.40821E-02   -0.24679E-02  4912   0.598E-02    0.147E-01
RMM:   4    -0.413200179179E+03   -0.29707E-01   -0.33464E-02  5119   0.153E-01    0.725E-01
RMM:   5    -0.413169267265E+03    0.30912E-01   -0.14577E-02  4785   0.120E-01    0.508E-02
RMM:   6    -0.413169461595E+03   -0.19433E-03   -0.26700E-03  5758   0.497E-02    0.359E-02
RMM:   7    -0.413169449396E+03    0.12199E-04   -0.44541E-04  5598   0.204E-02    0.229E-02
RMM:   8    -0.413169435524E+03    0.13871E-04   -0.64397E-05  5076   0.919E-03    0.109E-02
RMM:   9    -0.413169430802E+03    0.47224E-05   -0.12887E-05  3841   0.405E-03    0.776E-03
RMM:  10    -0.413169428369E+03    0.24335E-05   -0.22364E-06  2587   0.239E-03    0.457E-03
RMM:  11    -0.413169426614E+03    0.17543E-05   -0.12436E-06  2506   0.180E-03    0.252E-03
RMM:  12    -0.413169423421E+03    0.31929E-05   -0.17667E-06  2563   0.200E-03    0.115E-03
RMM:  13    -0.413169421244E+03    0.21776E-05   -0.59051E-07  2380   0.135E-03    0.891E-04
RMM:  14    -0.413169421315E+03   -0.71417E-07   -0.25095E-07  1956   0.876E-04
   17 T=    62. E= -.41286672E+03 F= -.41316942E+03 E0= -.41314726E+03  EK= 0.30271E+00 SP= 0.00E+00 SK= 0.00E+00
       N       E                     dE             d eps       ncg     rms          rms(c)
RMM:   1    -0.413172781405E+03   -0.33602E-02   -0.80539E+00  4294   0.639E-01    0.895E-01
RMM:   2    -0.413175160627E+03   -0.23792E-02   -0.10052E-01  4250   0.898E-02    0.660E-01
RMM:   3    -0.413171161886E+03    0.39987E-02   -0.26742E-02  4929   0.609E-02    0.164E-01
RMM:   4    -0.413200966088E+03   -0.29804E-01   -0.34212E-02  5112   0.155E-01    0.729E-01
RMM:   5    -0.413169757297E+03    0.31209E-01   -0.14734E-02  4782   0.121E-01    0.505E-02
RMM:   6    -0.413169951530E+03   -0.19423E-03   -0.26343E-03  5752   0.496E-02    0.350E-02
RMM:   7    -0.413169944155E+03    0.73753E-05   -0.44135E-04  5605   0.202E-02    0.224E-02
RMM:   8    -0.413169934484E+03    0.96702E-05   -0.63873E-05  5079   0.921E-03    0.105E-02
RMM:   9    -0.413169931921E+03    0.25635E-05   -0.12773E-05  3825   0.409E-03    0.741E-03
RMM:  10    -0.413169932389E+03   -0.46834E-06   -0.21538E-06  2579   0.238E-03
   18 T=    62. E= -.41286657E+03 F= -.41316993E+03 E0= -.41314781E+03  EK= 0.30337E+00 SP= 0.00E+00 SK= 0.00E+00
       N       E                     dE             d eps       ncg     rms          rms(c)
RMM:   1    -0.413179126283E+03   -0.91944E-02   -0.80914E+00  4302   0.677E-01    0.912E-01
RMM:   2    -0.413175918474E+03    0.32078E-02   -0.10414E-01  4317   0.877E-02    0.660E-01
RMM:   3    -0.413178974724E+03   -0.30562E-02   -0.29354E-02  5136   0.936E-02    0.377E-01
RMM:   4    -0.413191706557E+03   -0.12732E-01   -0.38436E-02  5062   0.168E-01    0.593E-01
RMM:   5    -0.413171100417E+03    0.20606E-01   -0.74355E-03  4639   0.971E-02    0.572E-02
RMM:   6    -0.413171115627E+03   -0.15210E-04   -0.16077E-03  5415   0.392E-02    0.333E-02
RMM:   7    -0.413171111014E+03    0.46126E-05   -0.31198E-04  5837   0.167E-02    0.196E-02
RMM:   8    -0.413171103620E+03    0.73947E-05   -0.52934E-05  5052   0.868E-03    0.772E-03
RMM:   9    -0.413171098371E+03    0.52481E-05   -0.65096E-06  3130   0.332E-03    0.400E-03
RMM:  10    -0.413171095845E+03    0.25263E-05   -0.15266E-06  2516   0.207E-03    0.246E-03
RMM:  11    -0.413171092504E+03    0.33410E-05   -0.10186E-06  2479   0.164E-03    0.128E-03
RMM:  12    -0.413171088885E+03    0.36188E-05   -0.68545E-07  2450   0.133E-03    0.537E-04
RMM:  13    -0.413171086711E+03    0.21748E-05   -0.34355E-07  2056   0.975E-04    0.331E-04
RMM:  14    -0.413171084662E+03    0.20483E-05   -0.19548E-07  1538   0.767E-04    0.218E-04
RMM:  15    -0.413171080474E+03    0.41887E-05   -0.20925E-07  1539   0.760E-04    0.220E-04
RMM:  16    -0.413171077407E+03    0.30666E-05   -0.12981E-07  1187   0.654E-04    0.161E-04
RMM:  17    -0.413171074617E+03    0.27895E-05   -0.10341E-07  1163   0.631E-04    0.747E-05
RMM:  18    -0.413171072438E+03    0.21798E-05   -0.68290E-08  1007   0.593E-04    0.468E-05
RMM:  19    -0.413171071395E+03    0.10429E-05   -0.36174E-08   828   0.560E-04    0.392E-05
RMM:  20    -0.413171071110E+03    0.28469E-06   -0.16634E-08   700   0.541E-04
   19 T=    62. E= -.41286683E+03 F= -.41317107E+03 E0= -.41314899E+03  EK= 0.30424E+00 SP= 0.00E+00 SK= 0.00E+00
       N       E                     dE             d eps       ncg     rms          rms(c)
RMM:   1    -0.413176526587E+03   -0.54552E-02   -0.80145E+00  4300   0.671E-01    0.901E-01
RMM:   2    -0.413176174826E+03    0.35176E-03   -0.10516E-01  4247   0.851E-02    0.654E-01
RMM:   3    -0.413172843386E+03    0.33314E-02   -0.24111E-02  5043   0.565E-02    0.163E-01
RMM:   4    -0.413206706604E+03   -0.33863E-01   -0.39834E-02  5120   0.167E-01    0.774E-01
RMM:   5    -0.413171327805E+03    0.35379E-01   -0.16516E-02  4783   0.128E-01    0.540E-02
RMM:   6    -0.413171529418E+03   -0.20161E-03   -0.29487E-03  5710   0.528E-02    0.375E-02
RMM:   7    -0.413171513735E+03    0.15684E-04   -0.49934E-04  5637   0.210E-02    0.239E-02
RMM:   8    -0.413171503645E+03    0.10090E-04   -0.72120E-05  5210   0.974E-03    0.109E-02
RMM:   9    -0.413171498135E+03    0.55099E-05   -0.14512E-05  3987   0.433E-03    0.740E-03
RMM:  10    -0.413171495000E+03    0.31350E-05   -0.23660E-06  2600   0.246E-03    0.444E-03
RMM:  11    -0.413171493071E+03    0.19283E-05   -0.10939E-06  2508   0.169E-03    0.262E-03
RMM:  12    -0.413171489077E+03    0.39946E-05   -0.16684E-06  2545   0.201E-03    0.118E-03
RMM:  13    -0.413171486362E+03    0.27144E-05   -0.72229E-07  2408   0.142E-03    0.973E-04
RMM:  14    -0.413171486292E+03    0.69882E-07   -0.28803E-07  2038   0.938E-04
   20 T=    62. E= -.41286658E+03 F= -.41317149E+03 E0= -.41314945E+03  EK= 0.30490E+00 SP= 0.00E+00 SK= 0.00E+00
       N       E                     dE             d eps       ncg     rms          rms(c)
RMM:   1    -0.413175487334E+03   -0.40010E-02   -0.80623E+00  4296   0.652E-01    0.895E-01
RMM:   2    -0.413177777442E+03   -0.22901E-02   -0.10072E-01  4245   0.839E-02    0.661E-01
RMM:   3    -0.413173657614E+03    0.41198E-02   -0.26735E-02  4928   0.567E-02    0.153E-01
RMM:   4    -0.413201456601E+03   -0.27799E-01   -0.31356E-02  5116   0.148E-01    0.704E-01
RMM:   5    -0.413172446255E+03    0.29010E-01   -0.13836E-02  4788   0.117E-01    0.493E-02
RMM:   6    -0.413172621432E+03   -0.17518E-03   -0.24805E-03  5787   0.477E-02    0.338E-02
RMM:   7    -0.413172615709E+03    0.57232E-05   -0.39641E-04  5612   0.195E-02    0.215E-02
RMM:   8    -0.413172607449E+03    0.82600E-05   -0.64855E-05  5046   0.905E-03    0.106E-02
RMM:   9    -0.413172604315E+03    0.31338E-05   -0.12560E-05  3879   0.410E-03    0.760E-03
RMM:  10    -0.413172604220E+03    0.95635E-07   -0.20605E-06  2560   0.233E-03
   21 T=    62. E= -.41286673E+03 F= -.41317260E+03 E0= -.41315062E+03  EK= 0.30588E+00 SP= 0.00E+00 SK= 0.00E+00
       N       E                     dE             d eps       ncg     rms          rms(c)
RMM:   1    -0.413177033208E+03   -0.44289E-02   -0.80791E+00  4299   0.656E-01    0.911E-01
RMM:   2    -0.413178999362E+03   -0.19662E-02   -0.10062E-01  4346   0.850E-02    0.663E-01
RMM:   3    -0.413181719902E+03   -0.27205E-02   -0.30653E-02  5124   0.958E-02    0.379E-01
RMM:   4    -0.413194437547E+03   -0.12718E-01   -0.38427E-02  5058   0.169E-01    0.595E-01
RMM:   5    -0.413173747495E+03    0.20690E-01   -0.75431E-03  4633   0.982E-02    0.558E-02
RMM:   6    -0.413173774279E+03   -0.26784E-04   -0.16199E-03  5427   0.391E-02    0.331E-02
RMM:   7    -0.413173771479E+03    0.27997E-05   -0.31302E-04  5750   0.167E-02    0.195E-02
RMM:   8    -0.413173763883E+03    0.75967E-05   -0.50892E-05  5032   0.856E-03    0.767E-03
RMM:   9    -0.413173759107E+03    0.47760E-05   -0.64406E-06  3109   0.331E-03    0.407E-03
RMM:  10    -0.413173756634E+03    0.24723E-05   -0.15619E-06  2515   0.206E-03    0.249E-03
RMM:  11    -0.413173753750E+03    0.28841E-05   -0.95084E-07  2475   0.159E-03    0.126E-03
RMM:  12    -0.413173750051E+03    0.36994E-05   -0.68529E-07  2440   0.132E-03    0.523E-04
RMM:  13    -0.413173747870E+03    0.21814E-05   -0.33817E-07  2035   0.968E-04    0.324E-04
RMM:  14    -0.413173746091E+03    0.17783E-05   -0.18565E-07  1511   0.757E-04    0.213E-04
RMM:  15    -0.413173742055E+03    0.40363E-05   -0.18122E-07  1495   0.741E-04    0.217E-04
RMM:  16    -0.413173738814E+03    0.32412E-05   -0.11747E-07  1158   0.649E-04    0.177E-04
RMM:  17    -0.413173736427E+03    0.23870E-05   -0.79233E-08  1050   0.610E-04    0.855E-05
RMM:  18    -0.413173733826E+03    0.26009E-05   -0.69216E-08  1072   0.602E-04    0.373E-05
RMM:  19    -0.413173732659E+03    0.11665E-05   -0.34518E-08   849   0.558E-04    0.343E-05
RMM:  20    -0.413173732183E+03    0.47683E-06   -0.16598E-08   715   0.540E-04
   22 T=    62. E= -.41286684E+03 F= -.41317373E+03 E0= -.41315179E+03  EK= 0.30689E+00 SP= 0.00E+00 SK= 0.00E+00
       N       E                     dE             d eps       ncg     rms          rms(c)
RMM:   1    -0.413179152497E+03   -0.54198E-02   -0.80580E+00  4296   0.685E-01    0.911E-01
RMM:   2    -0.413179603872E+03   -0.45137E-03   -0.10215E-01  4278   0.888E-02    0.658E-01
RMM:   3    -0.413175635279E+03    0.39686E-02   -0.24743E-02  4961   0.601E-02    0.157E-01
RMM:   4    -0.413208377952E+03   -0.32743E-01   -0.37827E-02  5120   0.162E-01    0.760E-01
RMM:   5    -0.413174236931E+03    0.34141E-01   -0.16094E-02  4785   0.126E-01    0.530E-02
RMM:   6    -0.413174434855E+03   -0.19792E-03   -0.29120E-03  5745   0.524E-02    0.377E-02
RMM:   7    -0.413174420061E+03    0.14794E-04   -0.49073E-04  5603   0.212E-02    0.240E-02
RMM:   8    -0.413174408352E+03    0.11709E-04   -0.72209E-05  5209   0.969E-03    0.113E-02
RMM:   9    -0.413174402538E+03    0.58135E-05   -0.14053E-05  3989   0.429E-03    0.781E-03
RMM:  10    -0.413174398274E+03    0.42639E-05   -0.23935E-06  2595   0.249E-03    0.463E-03
RMM:  11    -0.413174395619E+03    0.26555E-05   -0.11281E-06  2507   0.173E-03    0.275E-03
RMM:  12    -0.413174390031E+03    0.55877E-05   -0.18561E-06  2572   0.209E-03    0.126E-03
RMM:  13    -0.413174386421E+03    0.36105E-05   -0.74505E-07  2421   0.146E-03    0.102E-03
RMM:  14    -0.413174386324E+03    0.96174E-07   -0.29031E-07  2061   0.947E-04
   23 T=    63. E= -.41286661E+03 F= -.41317439E+03 E0= -.41315249E+03  EK= 0.30777E+00 SP= 0.00E+00 SK= 0.00E+00
       N       E                     dE             d eps       ncg     rms          rms(c)
RMM:   1    -0.413178993914E+03   -0.46075E-02   -0.80750E+00  4294   0.664E-01    0.897E-01
RMM:   2    -0.413181527163E+03   -0.25332E-02   -0.10126E-01  4278   0.877E-02    0.661E-01
RMM:   3    -0.413176864077E+03    0.46631E-02   -0.26637E-02  4857   0.610E-02    0.142E-01
RMM:   4    -0.413202606627E+03   -0.25743E-01   -0.28253E-02  5118   0.142E-01    0.677E-01
RMM:   5    -0.413175843008E+03    0.26764E-01   -0.12815E-02  4794   0.112E-01    0.484E-02
RMM:   6    -0.413175998500E+03   -0.15549E-03   -0.23292E-03  5817   0.457E-02    0.323E-02
RMM:   7    -0.413175996956E+03    0.15443E-05   -0.33870E-04  5625   0.182E-02    0.200E-02
RMM:   8    -0.413175987110E+03    0.98459E-05   -0.63859E-05  4980   0.874E-03    0.108E-02
RMM:   9    -0.413175982591E+03    0.45185E-05   -0.12208E-05  3899   0.408E-03    0.774E-03
RMM:  10    -0.413175981140E+03    0.14516E-05   -0.20311E-06  2561   0.238E-03    0.450E-03
RMM:  11    -0.413175979968E+03    0.11718E-05   -0.13726E-06  2513   0.189E-03    0.242E-03
RMM:  12    -0.413175977904E+03    0.20642E-05   -0.16206E-06  2542   0.194E-03    0.117E-03
RMM:  13    -0.413175976691E+03    0.12129E-05   -0.51095E-07  2339   0.128E-03    0.720E-04
RMM:  14    -0.413175976277E+03    0.41313E-06   -0.22997E-07  1870   0.846E-04
   24 T=    63. E= -.41286693E+03 F= -.41317598E+03 E0= -.41315413E+03  EK= 0.30905E+00 SP= 0.00E+00 SK= 0.00E+00
       N       E                     dE             d eps       ncg     rms          rms(c)
RMM:   1    -0.413180355278E+03   -0.43786E-02   -0.81293E+00  4298   0.666E-01    0.911E-01
RMM:   2    -0.413182433193E+03   -0.20779E-02   -0.10188E-01  4275   0.881E-02    0.667E-01
RMM:   3    -0.413178120444E+03    0.43127E-02   -0.26742E-02  4922   0.624E-02    0.155E-01
RMM:   4    -0.413208236680E+03   -0.30116E-01   -0.34028E-02  5116   0.154E-01    0.731E-01
RMM:   5    -0.413176836461E+03    0.31400E-01   -0.14839E-02  4786   0.121E-01    0.512E-02
RMM:   6    -0.413177020932E+03   -0.18447E-03   -0.27485E-03  5773   0.502E-02    0.359E-02
RMM:   7    -0.413177009428E+03    0.11505E-04   -0.45642E-04  5609   0.204E-02    0.231E-02
RMM:   8    -0.413176995613E+03    0.13814E-04   -0.67003E-05  5084   0.935E-03    0.111E-02
RMM:   9    -0.413176990528E+03    0.50856E-05   -0.13092E-05  3872   0.415E-03    0.776E-03
RMM:  10    -0.413176987875E+03    0.26520E-05   -0.22445E-06  2581   0.242E-03    0.455E-03
RMM:  11    -0.413176986145E+03    0.17305E-05   -0.11895E-06  2500   0.177E-03    0.262E-03
RMM:  12    -0.413176982638E+03    0.35065E-05   -0.17986E-06  2555   0.204E-03    0.122E-03
RMM:  13    -0.413176980188E+03    0.24507E-05   -0.64604E-07  2395   0.139E-03    0.940E-04
RMM:  14    -0.413176980022E+03    0.16599E-06   -0.26894E-07  2006   0.905E-04
   25 T=    63. E= -.41286669E+03 F= -.41317698E+03 E0= -.41315518E+03  EK= 0.31029E+00 SP= 0.00E+00 SK= 0.00E+00
       N       E                     dE             d eps       ncg     rms          rms(c)
RMM:   1    -0.413182498280E+03   -0.55181E-02   -0.81167E+00  4297   0.697E-01    0.920E-01
RMM:   2    -0.413183421790E+03   -0.92351E-03   -0.10256E-01  4272   0.914E-02    0.663E-01
RMM:   3    -0.413179137317E+03    0.42845E-02   -0.25030E-02  4867   0.592E-02    0.131E-01
RMM:   4    -0.413207415180E+03   -0.28278E-01   -0.30982E-02  5122   0.147E-01    0.706E-01
RMM:   5    -0.413178195455E+03    0.29220E-01   -0.14080E-02  4793   0.117E-01    0.504E-02
RMM:   6    -0.413178350432E+03   -0.15498E-03   -0.25653E-03  5812   0.484E-02    0.349E-02
RMM:   7    -0.413178339366E+03    0.11066E-04   -0.39479E-04  5618   0.197E-02    0.218E-02
RMM:   8    -0.413178325006E+03    0.14360E-04   -0.69449E-05  5021   0.919E-03    0.114E-02
RMM:   9    -0.413178318112E+03    0.68936E-05   -0.13218E-05  3975   0.421E-03    0.820E-03
RMM:  10    -0.413178312666E+03    0.54458E-05   -0.22614E-06  2579   0.245E-03    0.479E-03
RMM:  11    -0.413178308485E+03    0.41811E-05   -0.13426E-06  2521   0.186E-03    0.273E-03
RMM:  12    -0.413178300977E+03    0.75087E-05   -0.18774E-06  2572   0.210E-03    0.125E-03
RMM:  13    -0.413178296529E+03    0.44480E-05   -0.62486E-07  2398   0.138E-03    0.875E-04
RMM:  14    -0.413178296435E+03    0.93391E-07   -0.26998E-07  1971   0.898E-04
   26 T=    63. E= -.41286656E+03 F= -.41317830E+03 E0= -.41315655E+03  EK= 0.31174E+00 SP= 0.00E+00 SK= 0.00E+00
       N       E                     dE             d eps       ncg     rms          rms(c)
RMM:   1    -0.413183420638E+03   -0.51241E-02   -0.81088E+00  4297   0.679E-01    0.902E-01
RMM:   2    -0.413185297900E+03   -0.18773E-02   -0.10221E-01  4280   0.904E-02    0.663E-01
RMM:   3    -0.413181055722E+03    0.42422E-02   -0.26442E-02  4903   0.591E-02    0.140E-01
RMM:   4    -0.413207819978E+03   -0.26764E-01   -0.29388E-02  5120   0.144E-01    0.689E-01
RMM:   5    -0.413180052414E+03    0.27768E-01   -0.13309E-02  4785   0.114E-01    0.492E-02
RMM:   6    -0.413180200854E+03   -0.14844E-03   -0.24325E-03  5812   0.470E-02    0.333E-02
RMM:   7    -0.413180196573E+03    0.42808E-05   -0.36708E-04  5626   0.190E-02    0.209E-02
RMM:   8    -0.413180185276E+03    0.11296E-04   -0.65820E-05  4984   0.902E-03    0.110E-02
RMM:   9    -0.413180179954E+03    0.53228E-05   -0.12804E-05  3924   0.417E-03    0.790E-03
RMM:  10    -0.413180177061E+03    0.28931E-05   -0.21305E-06  2567   0.242E-03    0.461E-03
RMM:  11    -0.413180174737E+03    0.23233E-05   -0.13446E-06  2515   0.187E-03    0.255E-03
RMM:  12    -0.413180170708E+03    0.40295E-05   -0.16931E-06  2549   0.201E-03    0.118E-03
RMM:  13    -0.413180168401E+03    0.23066E-05   -0.54796E-07  2354   0.131E-03    0.766E-04
RMM:  14    -0.413180168036E+03    0.36525E-06   -0.24513E-07  1902   0.866E-04
   27 T=    64. E= -.41286679E+03 F= -.41318017E+03 E0= -.41315847E+03  EK= 0.31338E+00 SP= 0.00E+00 SK= 0.00E+00
       N       E                     dE             d eps       ncg     rms          rms(c)
RMM:   1    -0.413184661685E+03   -0.44933E-02   -0.82031E+00  4297   0.687E-01    0.913E-01
RMM:   2    -0.413186550343E+03   -0.18887E-02   -0.10360E-01  4276   0.938E-02    0.672E-01
RMM:   3    -0.413182100250E+03    0.44501E-02   -0.27674E-02  4889   0.600E-02    0.144E-01
RMM:   4    -0.413208270577E+03   -0.26170E-01   -0.28717E-02  5129   0.142E-01    0.682E-01
RMM:   5    -0.413181057545E+03    0.27213E-01   -0.13055E-02  4787   0.113E-01    0.489E-02
RMM:   6    -0.413181213725E+03   -0.15618E-03   -0.23920E-03  5817   0.468E-02    0.333E-02
RMM:   7    -0.413181213842E+03   -0.11651E-06   -0.36919E-04  5618   0.191E-02    0.210E-02
RMM:   8    -0.413181204006E+03    0.98354E-05   -0.64336E-05  4980   0.901E-03    0.109E-02
RMM:   9    -0.413181199746E+03    0.42601E-05   -0.12451E-05  3876   0.413E-03    0.782E-03
RMM:  10    -0.413181197783E+03    0.19626E-05   -0.21672E-06  2576   0.245E-03    0.455E-03
RMM:  11    -0.413181196096E+03    0.16876E-05   -0.13905E-06  2523   0.190E-03    0.247E-03
RMM:  12    -0.413181193185E+03    0.29108E-05   -0.16533E-06  2535   0.200E-03    0.114E-03
RMM:  13    -0.413181191327E+03    0.18583E-05   -0.53930E-07  2351   0.130E-03    0.743E-04
RMM:  14    -0.413181190960E+03    0.36731E-06   -0.24347E-07  1888   0.861E-04
   28 T=    64. E= -.41286648E+03 F= -.41318119E+03 E0= -.41315954E+03  EK= 0.31471E+00 SP= 0.00E+00 SK= 0.00E+00
       N       E                     dE             d eps       ncg     rms          rms(c)
RMM:   1    -0.413188319940E+03   -0.71286E-02   -0.82027E+00  4291   0.730E-01    0.929E-01
RMM:   2    -0.413188602518E+03   -0.28258E-03   -0.10549E-01  4274   0.985E-02    0.670E-01
RMM:   3    -0.413183746066E+03    0.48565E-02   -0.25387E-02  4731   0.573E-02    0.106E-01
RMM:   4    -0.413203280696E+03   -0.19535E-01   -0.20372E-02  5135   0.120E-01    0.589E-01
RMM:   5    -0.413183174816E+03    0.20106E-01   -0.98836E-03  4803   0.970E-02    0.470E-02
RMM:   6    -0.413183280460E+03   -0.10564E-03   -0.18128E-03  5839   0.402E-02    0.309E-02
RMM:   7    -0.413183274546E+03    0.59142E-05   -0.21964E-04  5557   0.160E-02    0.156E-02
RMM:   8    -0.413183268183E+03    0.63635E-05   -0.40870E-05  4859   0.687E-03    0.100E-02
RMM:   9    -0.413183262642E+03    0.55404E-05   -0.88573E-06  3529   0.346E-03    0.738E-03
RMM:  10    -0.413183257786E+03    0.48560E-05   -0.18066E-06  2539   0.236E-03    0.417E-03
RMM:  11    -0.413183252402E+03    0.53838E-05   -0.16867E-06  2551   0.202E-03    0.214E-03
RMM:  12    -0.413183245700E+03    0.67023E-05   -0.12847E-06  2500   0.181E-03    0.106E-03
RMM:  13    -0.413183243431E+03    0.22687E-05   -0.45164E-07  2289   0.118E-03    0.675E-04
RMM:  14    -0.413183242399E+03    0.10326E-05   -0.20722E-07  1752   0.808E-04    0.510E-04
RMM:  15    -0.413183237361E+03    0.50374E-05   -0.22966E-07  2186   0.859E-04    0.548E-04
RMM:  16    -0.413183232868E+03    0.44934E-05   -0.13094E-07  1491   0.689E-04    0.503E-04
RMM:  17    -0.413183231760E+03    0.11083E-05   -0.39951E-08   863   0.533E-04    0.415E-04
RMM:  18    -0.413183228419E+03    0.33408E-05   -0.58502E-08  1009   0.589E-04    0.153E-04
RMM:  19    -0.413183225308E+03    0.31108E-05   -0.44699E-08  1008   0.594E-04    0.818E-05
RMM:  20    -0.413183224893E+03    0.41554E-06   -0.27222E-08   939   0.563E-04
   29 T=    64. E= -.41286679E+03 F= -.41318322E+03 E0= -.41316163E+03  EK= 0.31643E+00 SP= 0.00E+00 SK= 0.00E+00
       N       E                     dE             d eps       ncg     rms          rms(c)
RMM:   1    -0.413189250773E+03   -0.60255E-02   -0.81691E+00  4294   0.719E-01    0.911E-01
RMM:   2    -0.413190849896E+03   -0.15991E-02   -0.10407E-01  4268   0.100E-01    0.666E-01
RMM:   3    -0.413185756897E+03    0.50930E-02   -0.26441E-02  4771   0.617E-02    0.122E-01
RMM:   4    -0.413207935848E+03   -0.22179E-01   -0.23540E-02  5135   0.129E-01    0.628E-01
RMM:   5    -0.413184995007E+03    0.22941E-01   -0.11223E-02  4798   0.104E-01    0.474E-02
RMM:   6    -0.413185122296E+03   -0.12729E-03   -0.20140E-03  5829   0.427E-02    0.311E-02
RMM:   7    -0.413185122386E+03   -0.90331E-07   -0.25175E-04  5608   0.164E-02    0.164E-02
RMM:   8    -0.413185118556E+03    0.38307E-05   -0.48018E-05  4946   0.739E-03    0.104E-02
RMM:   9    -0.413185113751E+03    0.48045E-05   -0.10297E-05  3722   0.370E-03    0.759E-03
RMM:  10    -0.413185111214E+03    0.25374E-05   -0.18978E-06  2549   0.234E-03    0.440E-03
RMM:  11    -0.413185108507E+03    0.27069E-05   -0.16277E-06  2539   0.200E-03    0.226E-03
RMM:  12    -0.413185104718E+03    0.37890E-05   -0.13787E-06  2503   0.186E-03    0.110E-03
RMM:  13    -0.413185103339E+03    0.13791E-05   -0.46831E-07  2312   0.121E-03    0.683E-04
RMM:  14    -0.413185102680E+03    0.65873E-06   -0.21383E-07  1785   0.821E-04
   30 T=    65. E= -.41286687E+03 F= -.41318510E+03 E0= -.41316355E+03  EK= 0.31823E+00 SP= 0.00E+00 SK= 0.00E+00
       N       E                     dE             d eps       ncg     rms          rms(c)
RMM:   1    -0.413190397518E+03   -0.52942E-02   -0.82785E+00  4293   0.713E-01    0.916E-01
RMM:   2    -0.413192993241E+03   -0.25957E-02   -0.10543E-01  4268   0.105E-01    0.677E-01
RMM:   3    -0.413187356805E+03    0.56364E-02   -0.28635E-02  4618   0.666E-02    0.124E-01
RMM:   4    -0.413202576168E+03   -0.15219E-01   -0.15912E-02  5137   0.108E-01    0.525E-01
RMM:   5    -0.413186725664E+03    0.15851E-01   -0.77990E-03  4811   0.862E-02    0.443E-02
RMM:   6    -0.413186811526E+03   -0.85862E-04   -0.14197E-03  5839   0.357E-02    0.280E-02
RMM:   7    -0.413186813473E+03   -0.19474E-05   -0.16572E-04  5470   0.141E-02    0.136E-02
RMM:   8    -0.413186807495E+03    0.59781E-05   -0.24095E-05  4334   0.526E-03    0.794E-03
RMM:   9    -0.413186807721E+03   -0.22528E-06   -0.71536E-06  3326   0.311E-03
   31 T=    65. E= -.41286673E+03 F= -.41318681E+03 E0= -.41316531E+03  EK= 0.32007E+00 SP= 0.00E+00 SK= 0.00E+00
       N       E                     dE             d eps       ncg     rms          rms(c)
RMM:   1    -0.413194791734E+03   -0.79842E-02   -0.82925E+00  4297   0.750E-01    0.935E-01
RMM:   2    -0.413195322972E+03   -0.53124E-03   -0.10759E-01  4310   0.111E-01    0.677E-01
RMM:   3    -0.413194814633E+03    0.50834E-03   -0.29738E-02  5044   0.979E-02    0.313E-01
RMM:   4    -0.413217708561E+03   -0.22894E-01   -0.41993E-02  5059   0.175E-01    0.693E-01
RMM:   5    -0.413189306434E+03    0.28402E-01   -0.11377E-02  4698   0.114E-01    0.565E-02
RMM:   6    -0.413189419728E+03   -0.11329E-03   -0.23904E-03  5657   0.473E-02    0.362E-02
RMM:   7    -0.413189419365E+03    0.36381E-06   -0.42699E-04  5669   0.196E-02    0.232E-02
RMM:   8    -0.413189413044E+03    0.63207E-05   -0.71207E-05  5128   0.994E-03    0.101E-02
RMM:   9    -0.413189405506E+03    0.75384E-05   -0.10703E-05  3604   0.413E-03    0.540E-03
RMM:  10    -0.413189400214E+03    0.52916E-05   -0.22692E-06  2596   0.241E-03    0.339E-03
RMM:  11    -0.413189394936E+03    0.52778E-05   -0.11617E-06  2507   0.177E-03    0.176E-03
RMM:  12    -0.413189387169E+03    0.77672E-05   -0.10202E-06  2479   0.160E-03    0.669E-04
RMM:  13    -0.413189383516E+03    0.36531E-05   -0.48718E-07  2297   0.116E-03    0.449E-04
RMM:  14    -0.413189381397E+03    0.21186E-05   -0.25040E-07  1826   0.851E-04    0.341E-04
RMM:  15    -0.413189375627E+03    0.57706E-05   -0.18716E-07  1650   0.776E-04    0.257E-04
RMM:  16    -0.413189370481E+03    0.51460E-05   -0.11992E-07  1253   0.667E-04    0.254E-04
RMM:  17    -0.413189366005E+03    0.44754E-05   -0.84629E-08  1064   0.620E-04    0.167E-04
RMM:  18    -0.413189363024E+03    0.29816E-05   -0.66432E-08  1095   0.610E-04    0.534E-05
RMM:  19    -0.413189360170E+03    0.28537E-05   -0.57445E-08  1162   0.606E-04    0.646E-05
RMM:  20    -0.413189359993E+03    0.17718E-06   -0.20257E-08   736   0.529E-04
   32 T=    66. E= -.41286702E+03 F= -.41318936E+03 E0= -.41316791E+03  EK= 0.32234E+00 SP= 0.00E+00 SK= 0.00E+00
       N       E                     dE             d eps       ncg     rms          rms(c)
RMM:   1    -0.413196746038E+03   -0.73859E-02   -0.82692E+00  4301   0.768E-01    0.923E-01
RMM:   2    -0.413196812356E+03   -0.66318E-04   -0.10948E-01  4272   0.114E-01    0.673E-01
RMM:   3    -0.413191612872E+03    0.51995E-02   -0.26337E-02  4524   0.703E-02    0.923E-02
RMM:   4    -0.413202478775E+03   -0.10866E-01   -0.11079E-02  5133   0.893E-02    0.444E-01
RMM:   5    -0.413191246846E+03    0.11232E-01   -0.56640E-03  4822   0.727E-02    0.437E-02
RMM:   6    -0.413191311823E+03   -0.64977E-04   -0.11356E-03  5809   0.314E-02    0.292E-02
RMM:   7    -0.413191312763E+03   -0.94069E-06   -0.24377E-04  5397   0.161E-02    0.187E-02
RMM:   8    -0.413191295129E+03    0.17634E-04   -0.29609E-05  4668   0.662E-03    0.854E-03
RMM:   9    -0.413191292808E+03    0.23209E-05   -0.54883E-06  2995   0.292E-03    0.599E-03
RMM:  10    -0.413191288910E+03    0.38978E-05   -0.17569E-06  2535   0.216E-03    0.320E-03
RMM:  11    -0.413191285043E+03    0.38673E-05   -0.11190E-06  2485   0.176E-03    0.163E-03
RMM:  12    -0.413191281160E+03    0.38837E-05   -0.68111E-07  2410   0.137E-03    0.853E-04
RMM:  13    -0.413191279120E+03    0.20394E-05   -0.31598E-07  2036   0.959E-04    0.384E-04
RMM:  14    -0.413191277005E+03    0.21150E-05   -0.17028E-07  1538   0.749E-04    0.239E-04
RMM:  15    -0.413191273360E+03    0.36451E-05   -0.11411E-07  1338   0.685E-04    0.136E-04
RMM:  16    -0.413191270265E+03    0.30946E-05   -0.65045E-08   995   0.624E-04    0.973E-05
RMM:  17    -0.413191267550E+03    0.27153E-05   -0.46099E-08   935   0.602E-04    0.609E-05
RMM:  18    -0.413191263375E+03    0.41748E-05   -0.61740E-08  1179   0.628E-04    0.555E-05
RMM:  19    -0.413191262620E+03    0.75540E-06   -0.20709E-08   766   0.547E-04
   33 T=    66. E= -.41286674E+03 F= -.41319126E+03 E0= -.41316986E+03  EK= 0.32452E+00 SP= 0.00E+00 SK= 0.00E+00
       N       E                     dE             d eps       ncg     rms          rms(c)
RMM:   1    -0.413197649396E+03   -0.63860E-02   -0.83695E+00  4307   0.754E-01    0.922E-01
RMM:   2    -0.413199341108E+03   -0.16917E-02   -0.10887E-01  4269   0.118E-01    0.683E-01
RMM:   3    -0.413194071647E+03    0.52695E-02   -0.29261E-02  4473   0.765E-02    0.112E-01
RMM:   4    -0.413202778782E+03   -0.87071E-02   -0.91506E-03  5135   0.821E-02    0.403E-01
RMM:   5    -0.413193594176E+03    0.91846E-02   -0.45989E-03  4819   0.659E-02    0.425E-02
RMM:   6    -0.413193659890E+03   -0.65714E-04   -0.10386E-03  5765   0.295E-02    0.292E-02
RMM:   7    -0.413193661073E+03   -0.11827E-05   -0.25323E-04  5318   0.164E-02    0.192E-02
RMM:   8    -0.413193645420E+03    0.15652E-04   -0.26240E-05  4521   0.644E-03    0.836E-03
RMM:   9    -0.413193644475E+03    0.94553E-06   -0.47325E-06  2903   0.276E-03
   34 T=    67. E= -.41286665E+03 F= -.41319364E+03 E0= -.41317229E+03  EK= 0.32699E+00 SP= 0.00E+00 SK= 0.00E+00
       N       E                     dE             d eps       ncg     rms          rms(c)
RMM:   1    -0.413206468915E+03   -0.12823E-01   -0.84564E+00  4305   0.824E-01    0.943E-01
RMM:   2    -0.413201719721E+03    0.47492E-02   -0.11021E-01  4283   0.125E-01    0.686E-01
RMM:   3    -0.413198898587E+03    0.28211E-02   -0.29269E-02  4904   0.962E-02    0.217E-01
RMM:   4    -0.413233810970E+03   -0.34912E-01   -0.44206E-02  5087   0.178E-01    0.796E-01
RMM:   5    -0.413196208966E+03    0.37602E-01   -0.17110E-02  4769   0.132E-01    0.549E-02
RMM:   6    -0.413196405977E+03   -0.19701E-03   -0.32190E-03  5793   0.541E-02    0.373E-02
RMM:   7    -0.413196409937E+03   -0.39601E-05   -0.44219E-04  5637   0.204E-02    0.228E-02
RMM:   8    -0.413196402789E+03    0.71479E-05   -0.92282E-05  5192   0.103E-02    0.130E-02
RMM:   9    -0.413196392371E+03    0.10418E-04   -0.15728E-05  4177   0.480E-03    0.771E-03
RMM:  10    -0.413196386975E+03    0.53967E-05   -0.31619E-06  2720   0.273E-03    0.464E-03
RMM:  11    -0.413196383274E+03    0.37008E-05   -0.12393E-06  2505   0.186E-03    0.274E-03
RMM:  12    -0.413196375465E+03    0.78091E-05   -0.17954E-06  2544   0.210E-03    0.120E-03
RMM:  13    -0.413196370748E+03    0.47166E-05   -0.73608E-07  2424   0.146E-03    0.829E-04
RMM:  14    -0.413196369723E+03    0.10255E-05   -0.30989E-07  2102   0.972E-04    0.537E-04
RMM:  15    -0.413196367908E+03    0.18144E-05   -0.15331E-07  1527   0.733E-04    0.374E-04
RMM:  16    -0.413196360839E+03    0.70690E-05   -0.21374E-07  2131   0.828E-04    0.650E-04
RMM:  17    -0.413196358596E+03    0.22433E-05   -0.70898E-08  1083   0.579E-04    0.522E-04
RMM:  18    -0.413196352622E+03    0.59739E-05   -0.73939E-08  1012   0.591E-04    0.316E-04
RMM:  19    -0.413196351675E+03    0.94671E-06   -0.39025E-08   906   0.559E-04
   35 T=    67. E= -.41286673E+03 F= -.41319635E+03 E0= -.41317504E+03  EK= 0.32962E+00 SP= 0.00E+00 SK= 0.00E+00
       N       E                     dE             d eps       ncg     rms          rms(c)
RMM:   1    -0.413209511055E+03   -0.13158E-01   -0.84527E+00  4304   0.867E-01    0.939E-01
RMM:   2    -0.413203794441E+03    0.57166E-02   -0.12141E-01  4262   0.135E-01    0.683E-01
RMM:   3    -0.413198600323E+03    0.51941E-02   -0.25629E-02  4341   0.786E-02    0.668E-02
RMM:   4    -0.413199964839E+03   -0.13645E-02   -0.16412E-03  5185   0.353E-02    0.167E-01
RMM:   5    -0.413198499244E+03    0.14656E-02   -0.83931E-04  4818   0.284E-02    0.426E-02
RMM:   6    -0.413198551462E+03   -0.52218E-04   -0.57187E-04  5419   0.234E-02    0.347E-02
RMM:   7    -0.413198503304E+03    0.48158E-04   -0.22321E-04  4906   0.165E-02    0.190E-02
RMM:   8    -0.413198496776E+03    0.65281E-05   -0.36662E-05  4860   0.607E-03    0.666E-03
RMM:   9    -0.413198495299E+03    0.14768E-05   -0.38363E-06  2618   0.235E-03    0.315E-03
RMM:  10    -0.413198490682E+03    0.46168E-05   -0.95487E-07  2418   0.169E-03    0.173E-03
RMM:  11    -0.413198486402E+03    0.42798E-05   -0.49062E-07  2254   0.114E-03    0.735E-04
RMM:  12    -0.413198482205E+03    0.41969E-05   -0.25655E-07  1706   0.865E-04    0.283E-04
RMM:  13    -0.413198477670E+03    0.45352E-05   -0.15708E-07  1364   0.744E-04    0.245E-04
RMM:  14    -0.413198474391E+03    0.32789E-05   -0.78401E-08   937   0.637E-04    0.165E-04
RMM:  15    -0.413198467723E+03    0.66679E-05   -0.10036E-07  1196   0.668E-04    0.985E-05
RMM:  16    -0.413198463664E+03    0.40593E-05   -0.60043E-08  1019   0.602E-04    0.109E-04
RMM:  17    -0.413198461235E+03    0.24287E-05   -0.28301E-08   755   0.550E-04    0.453E-05
RMM:  18    -0.413198460065E+03    0.11707E-05   -0.18279E-08   668   0.531E-04    0.407E-05
RMM:  19    -0.413198459483E+03    0.58184E-06   -0.10799E-08   588   0.519E-04
   36 T=    68. E= -.41286638E+03 F= -.41319846E+03 E0= -.41317720E+03  EK= 0.33208E+00 SP= 0.00E+00 SK= 0.00E+00
       N       E                     dE             d eps       ncg     rms          rms(c)
RMM:   1    -0.413212468802E+03   -0.14009E-01   -0.85373E+00  4307   0.872E-01    0.926E-01
RMM:   2    -0.413207441757E+03    0.50270E-02   -0.12749E-01  4248   0.134E-01    0.690E-01
RMM:   3    -0.413201706390E+03    0.57354E-02   -0.26437E-02  4475   0.785E-02    0.863E-02
RMM:   4    -0.413213188861E+03   -0.11482E-01   -0.11712E-02  5145   0.915E-02    0.457E-01
RMM:   5    -0.413201410045E+03    0.11779E-01   -0.59474E-03  4814   0.752E-02    0.442E-02
RMM:   6    -0.413201441021E+03   -0.30976E-04   -0.12510E-03  5751   0.336E-02    0.315E-02
RMM:   7    -0.413201447697E+03   -0.66756E-05   -0.30634E-04  5349   0.177E-02    0.206E-02
RMM:   8    -0.413201432268E+03    0.15429E-04   -0.36408E-05  4878   0.724E-03    0.946E-03
RMM:   9    -0.413201431659E+03    0.60874E-06   -0.64722E-06  3071   0.319E-03
   37 T=    68. E= -.41286658E+03 F= -.41320143E+03 E0= -.41318021E+03  EK= 0.33485E+00 SP= 0.00E+00 SK= 0.00E+00
       N       E                     dE             d eps       ncg     rms          rms(c)
RMM:   1    -0.413209486160E+03   -0.80539E-02   -0.85450E+00  4311   0.852E-01    0.948E-01
RMM:   2    -0.413210271223E+03   -0.78506E-03   -0.11480E-01  4277   0.124E-01    0.695E-01
RMM:   3    -0.413209457234E+03    0.81399E-03   -0.32650E-02  5043   0.101E-01    0.310E-01
RMM:   4    -0.413236029500E+03   -0.26572E-01   -0.45665E-02  5066   0.182E-01    0.737E-01
RMM:   5    -0.413204062095E+03    0.31967E-01   -0.13104E-02  4710   0.122E-01    0.561E-02
RMM:   6    -0.413204117887E+03   -0.55791E-04   -0.27176E-03  5745   0.494E-02    0.363E-02
RMM:   7    -0.413204117022E+03    0.86425E-06   -0.42388E-04  5551   0.200E-02    0.234E-02
RMM:   8    -0.413204111816E+03    0.52063E-05   -0.91210E-05  5168   0.106E-02    0.122E-02
RMM:   9    -0.413204103481E+03    0.83355E-05   -0.13330E-05  4006   0.478E-03    0.618E-03
RMM:  10    -0.413204099054E+03    0.44261E-05   -0.30175E-06  2709   0.264E-03    0.347E-03
RMM:  11    -0.413204095697E+03    0.33573E-05   -0.12063E-06  2501   0.184E-03    0.195E-03
RMM:  12    -0.413204088709E+03    0.69881E-05   -0.12561E-06  2491   0.181E-03    0.914E-04
RMM:  13    -0.413204084323E+03    0.43864E-05   -0.56876E-07  2375   0.128E-03    0.554E-04
RMM:  14    -0.413204082952E+03    0.13710E-05   -0.26548E-07  1963   0.885E-04    0.399E-04
RMM:  15    -0.413204078849E+03    0.41028E-05   -0.15736E-07  1487   0.740E-04    0.192E-04
RMM:  16    -0.413204073503E+03    0.53460E-05   -0.12848E-07  1436   0.706E-04    0.296E-04
RMM:  17    -0.413204069590E+03    0.39126E-05   -0.72600E-08  1048   0.611E-04    0.219E-04
RMM:  18    -0.413204064746E+03    0.48447E-05   -0.69591E-08  1181   0.623E-04    0.103E-04
RMM:  19    -0.413204063161E+03    0.15843E-05   -0.40248E-08   967   0.566E-04    0.471E-05
RMM:  20    -0.413204062074E+03    0.10873E-05   -0.28254E-08   875   0.549E-04    0.705E-05
RMM:  21    -0.413204061879E+03    0.19446E-06   -0.12448E-08   688   0.518E-04
   38 T=    69. E= -.41286652E+03 F= -.41320406E+03 E0= -.41318288E+03  EK= 0.33754E+00 SP= 0.00E+00 SK= 0.00E+00
       N       E                     dE             d eps       ncg     rms          rms(c)
RMM:   1    -0.413225020890E+03   -0.20959E-01   -0.86658E+00  4309   0.989E-01    0.955E-01
RMM:   2    -0.413212955455E+03    0.12065E-01   -0.13264E-01  4246   0.129E-01    0.694E-01
RMM:   3    -0.413207608434E+03    0.53470E-02   -0.25121E-02  4887   0.690E-02    0.137E-01
RMM:   4    -0.413245404648E+03   -0.37796E-01   -0.41135E-02  5124   0.169E-01    0.811E-01
RMM:   5    -0.413206640582E+03    0.38764E-01   -0.18981E-02  4792   0.135E-01    0.552E-02
RMM:   6    -0.413206735458E+03   -0.94876E-04   -0.32771E-03  5814   0.540E-02    0.367E-02
RMM:   7    -0.413206744547E+03   -0.90893E-05   -0.39743E-04  5621   0.192E-02    0.195E-02
RMM:   8    -0.413206739005E+03    0.55426E-05   -0.49076E-05  4786   0.716E-03    0.103E-02
RMM:   9    -0.413206734265E+03    0.47401E-05   -0.14556E-05  4056   0.411E-03    0.684E-03
RMM:  10    -0.413206731568E+03    0.26971E-05   -0.42136E-06  2884   0.273E-03    0.440E-03
RMM:  11    -0.413206727716E+03    0.38519E-05   -0.14542E-06  2494   0.204E-03    0.263E-03
RMM:  12    -0.413206719709E+03    0.80071E-05   -0.17339E-06  2514   0.212E-03    0.112E-03
RMM:  13    -0.413206716408E+03    0.33004E-05   -0.61323E-07  2422   0.140E-03    0.821E-04
RMM:  14    -0.413206715943E+03    0.46506E-06   -0.26666E-07  2080   0.919E-04
   39 T=    69. E= -.41286654E+03 F= -.41320672E+03 E0= -.41318557E+03  EK= 0.34018E+00 SP= 0.00E+00 SK= 0.00E+00
       N       E                     dE             d eps       ncg     rms          rms(c)
RMM:   1    -0.413216352305E+03   -0.96359E-02   -0.85850E+00  4312   0.929E-01    0.940E-01
RMM:   2    -0.413216533506E+03   -0.18120E-03   -0.11794E-01  4250   0.122E-01    0.694E-01
RMM:   3    -0.413211054106E+03    0.54794E-02   -0.29207E-02  4847   0.739E-02    0.146E-01
RMM:   4    -0.413243568271E+03   -0.32514E-01   -0.35667E-02  5128   0.158E-01    0.758E-01
RMM:   5    -0.413209913775E+03    0.33654E-01   -0.16302E-02  4797   0.126E-01    0.530E-02
RMM:   6    -0.413209997661E+03   -0.83886E-04   -0.28681E-03  5808   0.503E-02    0.343E-02
RMM:   7    -0.413210015106E+03   -0.17445E-04   -0.37449E-04  5652   0.185E-02    0.192E-02
RMM:   8    -0.413210006424E+03    0.86816E-05   -0.56732E-05  5001   0.793E-03    0.106E-02
RMM:   9    -0.413210006050E+03    0.37426E-06   -0.19235E-05  4441   0.474E-03    0.778E-03
RMM:  10    -0.413210001057E+03    0.49929E-05   -0.27290E-06  2654   0.270E-03    0.431E-03
RMM:  11    -0.413209998519E+03    0.25378E-05   -0.13077E-06  2507   0.187E-03    0.262E-03
RMM:  12    -0.413209992255E+03    0.62643E-05   -0.18289E-06  2542   0.212E-03    0.131E-03
RMM:  13    -0.413209988877E+03    0.33781E-05   -0.66808E-07  2403   0.142E-03    0.859E-04
RMM:  14    -0.413209988223E+03    0.65439E-06   -0.26760E-07  2026   0.919E-04
   40 T=    70. E= -.41286697E+03 F= -.41320999E+03 E0= -.41318888E+03  EK= 0.34302E+00 SP= 0.00E+00 SK= 0.00E+00
       N       E                     dE             d eps       ncg     rms          rms(c)
RMM:   1    -0.413220418635E+03   -0.10430E-01   -0.87034E+00  4305   0.973E-01    0.954E-01
RMM:   2    -0.413219017274E+03    0.14014E-02   -0.12214E-01  4251   0.128E-01    0.704E-01
RMM:   3    -0.413213931398E+03    0.50859E-02   -0.30081E-02  4943   0.765E-02    0.176E-01
RMM:   4    -0.413253044396E+03   -0.39113E-01   -0.45410E-02  5125   0.179E-01    0.831E-01
RMM:   5    -0.413212205433E+03    0.40839E-01   -0.19468E-02  4785   0.138E-01    0.562E-02
RMM:   6    -0.413212310043E+03   -0.10461E-03   -0.33313E-03  5808   0.545E-02    0.349E-02
RMM:   7    -0.413212325783E+03   -0.15740E-04   -0.40381E-04  5666   0.190E-02    0.188E-02
RMM:   8    -0.413212321800E+03    0.39831E-05   -0.48227E-05  4773   0.705E-03    0.920E-03
RMM:   9    -0.413212318597E+03    0.32033E-05   -0.97964E-06  3320   0.350E-03    0.537E-03
RMM:  10    -0.413212317355E+03    0.12419E-05   -0.26823E-06  2628   0.231E-03    0.383E-03
RMM:  11    -0.413212313845E+03    0.35101E-05   -0.13457E-06  2501   0.198E-03    0.224E-03
RMM:  12    -0.413212307732E+03    0.61132E-05   -0.14252E-06  2507   0.189E-03    0.101E-03
RMM:  13    -0.413212305851E+03    0.18810E-05   -0.48664E-07  2363   0.124E-03    0.675E-04
RMM:  14    -0.413212305010E+03    0.84068E-06   -0.22469E-07  1862   0.841E-04
   41 T=    70. E= -.41286676E+03 F= -.41321231E+03 E0= -.41319123E+03  EK= 0.34554E+00 SP= 0.00E+00 SK= 0.00E+00
       N       E                     dE             d eps       ncg     rms          rms(c)
RMM:   1    -0.413235038305E+03   -0.22732E-01   -0.88059E+00  4312   0.110E+00    0.969E-01
RMM:   2    -0.413221465456E+03    0.13573E-01   -0.13654E-01  4285   0.132E-01    0.703E-01
RMM:   3    -0.413217118185E+03    0.43473E-02   -0.26438E-02  5019   0.762E-02    0.202E-01
RMM:   4    -0.413261700059E+03   -0.44582E-01   -0.54458E-02  5122   0.195E-01    0.887E-01
RMM:   5    -0.413214894621E+03    0.46805E-01   -0.21845E-02  4777   0.147E-01    0.604E-02
RMM:   6    -0.413215018890E+03   -0.12427E-03   -0.38270E-03  5789   0.581E-02    0.377E-02
RMM:   7    -0.413215032676E+03   -0.13786E-04   -0.48322E-04  5728   0.206E-02    0.221E-02
RMM:   8    -0.413215033949E+03   -0.12735E-05   -0.10522E-04  5228   0.103E-02    0.141E-02
RMM:   9    -0.413215021331E+03    0.12618E-04   -0.24233E-05  4604   0.568E-03    0.751E-03
RMM:  10    -0.413215015839E+03    0.54920E-05   -0.44205E-06  2867   0.303E-03    0.444E-03
RMM:  11    -0.413215011900E+03    0.39391E-05   -0.14177E-06  2499   0.203E-03    0.267E-03
RMM:  12    -0.413215003102E+03    0.87983E-05   -0.15107E-06  2513   0.202E-03    0.115E-03
RMM:  13    -0.413214997060E+03    0.60417E-05   -0.67122E-07  2431   0.142E-03    0.727E-04
RMM:  14    -0.413214996065E+03    0.99518E-06   -0.29783E-07  2104   0.960E-04
   42 T=    71. E= -.41286695E+03 F= -.41321500E+03 E0= -.41319396E+03  EK= 0.34804E+00 SP= 0.00E+00 SK= 0.00E+00
       N       E                     dE             d eps       ncg     rms          rms(c)
RMM:   1    -0.413228331926E+03   -0.13335E-01   -0.87008E+00  4314   0.110E+00    0.952E-01
RMM:   2    -0.413223867109E+03    0.44648E-02   -0.12522E-01  4315   0.132E-01    0.700E-01
RMM:   3    -0.413220320772E+03    0.35463E-02   -0.30155E-02  5028   0.843E-02    0.236E-01
RMM:   4    -0.413259447371E+03   -0.39127E-01   -0.51971E-02  5107   0.192E-01    0.844E-01
RMM:   5    -0.413217162691E+03    0.42285E-01   -0.19028E-02  4765   0.139E-01    0.590E-02
RMM:   6    -0.413217261886E+03   -0.99195E-04   -0.34295E-03  5776   0.550E-02    0.359E-02
RMM:   7    -0.413217272841E+03   -0.10955E-04   -0.43090E-04  5711   0.198E-02    0.210E-02
RMM:   8    -0.413217274196E+03   -0.13548E-05   -0.10349E-04  5201   0.103E-02    0.134E-02
RMM:   9    -0.413217262469E+03    0.11726E-04   -0.21811E-05  4522   0.551E-03    0.678E-03
RMM:  10    -0.413217258406E+03    0.40631E-05   -0.40857E-06  2834   0.288E-03    0.405E-03
RMM:  11    -0.413217255238E+03    0.31686E-05   -0.13075E-06  2504   0.194E-03    0.239E-03
RMM:  12    -0.413217248103E+03    0.71352E-05   -0.13139E-06  2501   0.188E-03    0.107E-03
RMM:  13    -0.413217243032E+03    0.50708E-05   -0.60453E-07  2400   0.133E-03    0.638E-04
RMM:  14    -0.413217241955E+03    0.10773E-05   -0.26688E-07  1989   0.902E-04    0.407E-04
RMM:  15    -0.413217239223E+03    0.27318E-05   -0.13882E-07  1422   0.715E-04    0.225E-04
RMM:  16    -0.413217233060E+03    0.61629E-05   -0.13396E-07  1568   0.728E-04    0.308E-04
RMM:  17    -0.413217230843E+03    0.22174E-05   -0.57367E-08   979   0.591E-04    0.210E-04
RMM:  18    -0.413217225303E+03    0.55399E-05   -0.77355E-08  1367   0.644E-04    0.181E-04
RMM:  19    -0.413217223641E+03    0.16621E-05   -0.33787E-08   903   0.543E-04    0.553E-05
RMM:  20    -0.413217222037E+03    0.16039E-05   -0.29548E-08   942   0.557E-04    0.807E-05
RMM:  21    -0.413217221941E+03    0.95872E-07   -0.12678E-08   690   0.514E-04
   43 T=    71. E= -.41286701E+03 F= -.41321722E+03 E0= -.41319621E+03  EK= 0.35021E+00 SP= 0.00E+00 SK= 0.00E+00
       N       E                     dE             d eps       ncg     rms          rms(c)
RMM:   1    -0.413230500714E+03   -0.13279E-01   -0.88112E+00  4316   0.114E+00    0.957E-01
RMM:   2    -0.413225609011E+03    0.48917E-02   -0.12937E-01  4325   0.144E-01    0.711E-01
RMM:   3    -0.413223309004E+03    0.23000E-02   -0.32633E-02  5050   0.949E-02    0.291E-01
RMM:   4    -0.413258274773E+03   -0.34966E-01   -0.53411E-02  5101   0.196E-01    0.818E-01
RMM:   5    -0.413218509816E+03    0.39765E-01   -0.17026E-02  4739   0.135E-01    0.590E-02
RMM:   6    -0.413218596318E+03   -0.86502E-04   -0.31653E-03  5764   0.530E-02    0.351E-02
RMM:   7    -0.413218611862E+03   -0.15544E-04   -0.44382E-04  5684   0.200E-02    0.223E-02
RMM:   8    -0.413218613610E+03   -0.17480E-05   -0.11588E-04  5211   0.111E-02    0.130E-02
RMM:   9    -0.413218604392E+03    0.92181E-05   -0.18092E-05  4331   0.538E-03    0.593E-03
RMM:  10    -0.413218602619E+03    0.17734E-05   -0.39317E-06  2801   0.271E-03    0.360E-03
RMM:  11    -0.413218600977E+03    0.16418E-05   -0.12498E-06  2503   0.186E-03    0.202E-03
RMM:  12    -0.413218597157E+03    0.38198E-05   -0.11590E-06  2493   0.173E-03    0.884E-04
RMM:  13    -0.413218594267E+03    0.28902E-05   -0.53494E-07  2335   0.123E-03    0.489E-04
RMM:  14    -0.413218593235E+03    0.10316E-05   -0.24941E-07  1846   0.857E-04    0.313E-04
RMM:  15    -0.413218590508E+03    0.27275E-05   -0.15140E-07  1419   0.726E-04    0.152E-04
RMM:  16    -0.413218587324E+03    0.31837E-05   -0.10929E-07  1234   0.675E-04    0.149E-04
RMM:  17    -0.413218585045E+03    0.22789E-05   -0.71078E-08  1090   0.626E-04    0.100E-04
RMM:  18    -0.413218582537E+03    0.25087E-05   -0.56869E-08  1097   0.616E-04    0.713E-05
RMM:  19    -0.413218579887E+03    0.26497E-05   -0.48665E-08  1109   0.602E-04    0.347E-05
RMM:  20    -0.413218579361E+03    0.52558E-06   -0.21609E-08   791   0.540E-04
   44 T=    72. E= -.41286676E+03 F= -.41321858E+03 E0= -.41319759E+03  EK= 0.35182E+00 SP= 0.00E+00 SK= 0.00E+00
       N       E                     dE             d eps       ncg     rms          rms(c)
RMM:   1    -0.413237793196E+03   -0.19213E-01   -0.88166E+00  4312   0.126E+00    0.977E-01
RMM:   2    -0.413226918125E+03    0.10875E-01   -0.13333E-01  4341   0.151E-01    0.710E-01
RMM:   3    -0.413227042887E+03   -0.12476E-03   -0.32161E-02  5074   0.104E-01    0.351E-01
RMM:   4    -0.413252370812E+03   -0.25328E-01   -0.49845E-02  5068   0.192E-01    0.738E-01
RMM:   5    -0.413220139878E+03    0.32231E-01   -0.12673E-02  4707   0.121E-01    0.592E-02
RMM:   6    -0.413220176760E+03   -0.36883E-04   -0.25390E-03  5703   0.478E-02    0.352E-02
RMM:   7    -0.413220184452E+03   -0.76916E-05   -0.40532E-04  5618   0.196E-02    0.229E-02
RMM:   8    -0.413220180947E+03    0.35053E-05   -0.11482E-04  5141   0.115E-02    0.122E-02
RMM:   9    -0.413220170515E+03    0.10432E-04   -0.14679E-05  4173   0.520E-03    0.521E-03
RMM:  10    -0.413220166255E+03    0.42607E-05   -0.33814E-06  2771   0.252E-03    0.316E-03
RMM:  11    -0.413220162257E+03    0.39971E-05   -0.10820E-06  2491   0.176E-03    0.171E-03
RMM:  12    -0.413220155385E+03    0.68722E-05   -0.83526E-07  2459   0.152E-03    0.745E-04
RMM:  13    -0.413220151257E+03    0.41278E-05   -0.38161E-07  2161   0.107E-03    0.359E-04
RMM:  14    -0.413220149186E+03    0.20713E-05   -0.19861E-07  1657   0.795E-04    0.231E-04
RMM:  15    -0.413220143453E+03    0.57327E-05   -0.14029E-07  1388   0.728E-04    0.166E-04
RMM:  16    -0.413220140788E+03    0.26649E-05   -0.82989E-08  1136   0.650E-04    0.111E-04
RMM:  17    -0.413220137445E+03    0.33429E-05   -0.69942E-08  1224   0.640E-04    0.788E-05
RMM:  18    -0.413220134153E+03    0.32928E-05   -0.57333E-08  1198   0.610E-04    0.442E-05
RMM:  19    -0.413220131729E+03    0.24233E-05   -0.35174E-08   985   0.569E-04    0.370E-05
RMM:  20    -0.413220131158E+03    0.57108E-06   -0.19365E-08   767   0.533E-04
   45 T=    72. E= -.41286701E+03 F= -.41322013E+03 E0= -.41319916E+03  EK= 0.35312E+00 SP= 0.00E+00 SK= 0.00E+00
       N       E                     dE             d eps       ncg     rms          rms(c)
RMM:   1    -0.413240040026E+03   -0.19908E-01   -0.87578E+00  4312   0.135E+00    0.960E-01
RMM:   2    -0.413226926304E+03    0.13114E-01   -0.13818E-01  4369   0.161E-01    0.706E-01
RMM:   3    -0.413229268794E+03   -0.23425E-02   -0.32680E-02  5076   0.114E-01    0.404E-01
RMM:   4    -0.413248167116E+03   -0.18898E-01   -0.48812E-02  5065   0.191E-01    0.689E-01
RMM:   5    -0.413220141580E+03    0.28026E-01   -0.10350E-02  4679   0.113E-01    0.586E-02
RMM:   6    -0.413220145169E+03   -0.35885E-05   -0.21439E-03  5656   0.442E-02    0.336E-02
RMM:   7    -0.413220154612E+03   -0.94432E-05   -0.36376E-04  5578   0.187E-02    0.224E-02
RMM:   8    -0.413220150097E+03    0.45152E-05   -0.11444E-04  5094   0.115E-02    0.112E-02
RMM:   9    -0.413220140024E+03    0.10073E-04   -0.13476E-05  4107   0.513E-03    0.467E-03
RMM:  10    -0.413220136500E+03    0.35237E-05   -0.30341E-06  2736   0.238E-03    0.279E-03
RMM:  11    -0.413220132440E+03    0.40597E-05   -0.10665E-06  2487   0.170E-03    0.146E-03
RMM:  12    -0.413220126487E+03    0.59532E-05   -0.72424E-07  2426   0.140E-03    0.663E-04
RMM:  13    -0.413220122991E+03    0.34960E-05   -0.33494E-07  1988   0.988E-04    0.313E-04
RMM:  14    -0.413220120359E+03    0.26318E-05   -0.18291E-07  1509   0.765E-04    0.185E-04
RMM:  15    -0.413220114680E+03    0.56791E-05   -0.14439E-07  1316   0.725E-04    0.140E-04
RMM:  16    -0.413220112498E+03    0.21818E-05   -0.85372E-08  1136   0.651E-04    0.862E-05
RMM:  17    -0.413220108404E+03    0.40941E-05   -0.82237E-08  1318   0.659E-04    0.577E-05
RMM:  18    -0.413220105738E+03    0.26660E-05   -0.52953E-08  1104   0.596E-04    0.348E-05
RMM:  19    -0.413220104019E+03    0.17192E-05   -0.34541E-08   950   0.560E-04    0.247E-05
RMM:  20    -0.413220103686E+03    0.33280E-06   -0.18794E-08   754   0.527E-04
   46 T=    72. E= -.41286669E+03 F= -.41322010E+03 E0= -.41319915E+03  EK= 0.35341E+00 SP= 0.00E+00 SK= 0.00E+00
       N       E                     dE             d eps       ncg     rms          rms(c)
RMM:   1    -0.413236392696E+03   -0.16289E-01   -0.87708E+00  4314   0.139E+00    0.953E-01
RMM:   2    -0.413226393120E+03    0.99996E-02   -0.13843E-01  4392   0.170E-01    0.713E-01
RMM:   3    -0.413231015103E+03   -0.46220E-02   -0.36271E-02  5084   0.126E-01    0.454E-01
RMM:   4    -0.413244862853E+03   -0.13848E-01   -0.49114E-02  5043   0.194E-01    0.658E-01
RMM:   5    -0.413219338469E+03    0.25524E-01   -0.89051E-03  4649   0.109E-01    0.576E-02
RMM:   6    -0.413219322794E+03    0.15676E-04   -0.19107E-03  5584   0.417E-02    0.314E-02
RMM:   7    -0.413219333532E+03   -0.10739E-04   -0.32417E-04  5579   0.178E-02    0.214E-02
RMM:   8    -0.413219330371E+03    0.31615E-05   -0.11301E-04  5067   0.114E-02    0.103E-02
RMM:   9    -0.413219322328E+03    0.80428E-05   -0.12412E-05  4030   0.503E-03    0.441E-03
RMM:  10    -0.413219320124E+03    0.22042E-05   -0.27178E-06  2700   0.231E-03    0.259E-03
RMM:  11    -0.413219317333E+03    0.27910E-05   -0.11269E-06  2500   0.169E-03    0.132E-03
RMM:  12    -0.413219313367E+03    0.39660E-05   -0.73373E-07  2404   0.135E-03    0.657E-04
RMM:  13    -0.413219310727E+03    0.26393E-05   -0.34208E-07  1898   0.960E-04    0.303E-04
RMM:  14    -0.413219308376E+03    0.23514E-05   -0.19632E-07  1431   0.760E-04    0.172E-04
RMM:  15    -0.413219304187E+03    0.41887E-05   -0.17179E-07  1358   0.738E-04    0.125E-04
RMM:  16    -0.413219302173E+03    0.20145E-05   -0.10156E-07  1165   0.657E-04    0.848E-05
RMM:  17    -0.413219298154E+03    0.40192E-05   -0.10871E-07  1438   0.679E-04    0.598E-05
RMM:  18    -0.413219296338E+03    0.18157E-05   -0.55439E-08  1028   0.574E-04    0.308E-05
RMM:  19    -0.413219295254E+03    0.10837E-05   -0.34537E-08   878   0.540E-04    0.191E-05
RMM:  20    -0.413219294766E+03    0.48806E-06   -0.21503E-08   759   0.522E-04
   47 T=    72. E= -.41286653E+03 F= -.41321929E+03 E0= -.41319836E+03  EK= 0.35276E+00 SP= 0.00E+00 SK= 0.00E+00
       N       E                     dE             d eps       ncg     rms          rms(c)
RMM:   1    -0.413237368810E+03   -0.18074E-01   -0.86941E+00  4310   0.148E+00    0.969E-01
RMM:   2    -0.413224469063E+03    0.12900E-01   -0.13812E-01  4452   0.180E-01    0.711E-01
RMM:   3    -0.413234919642E+03   -0.10451E-01   -0.39392E-02  5106   0.143E-01    0.553E-01
RMM:   4    -0.413235004948E+03   -0.85306E-04   -0.45310E-02  5009   0.189E-01    0.544E-01
RMM:   5    -0.413217656924E+03    0.17348E-01   -0.52894E-03  4573   0.926E-02    0.563E-02
RMM:   6    -0.413217597654E+03    0.59270E-04   -0.11457E-03  5266   0.338E-02    0.296E-02
RMM:   7    -0.413217611187E+03   -0.13534E-04   -0.20943E-04  5485   0.146E-02    0.176E-02
RMM:   8    -0.413217611544E+03   -0.35665E-06   -0.11160E-04  5149   0.110E-02    0.106E-02
RMM:   9    -0.413217599235E+03    0.12309E-04   -0.12926E-05  4063   0.510E-03    0.429E-03
RMM:  10    -0.413217596097E+03    0.31375E-05   -0.29084E-06  2708   0.233E-03    0.234E-03
RMM:  11    -0.413217591059E+03    0.50387E-05   -0.11413E-06  2464   0.175E-03    0.120E-03
RMM:  12    -0.413217586432E+03    0.46264E-05   -0.56105E-07  2310   0.128E-03    0.666E-04
RMM:  13    -0.413217582495E+03    0.39372E-05   -0.27331E-07  1745   0.905E-04    0.317E-04
RMM:  14    -0.413217578412E+03    0.40827E-05   -0.15800E-07  1360   0.732E-04    0.170E-04
RMM:  15    -0.413217573983E+03    0.44295E-05   -0.11880E-07  1247   0.692E-04    0.122E-04
RMM:  16    -0.413217571126E+03    0.28571E-05   -0.77729E-08  1108   0.636E-04    0.875E-05
RMM:  17    -0.413217566142E+03    0.49831E-05   -0.88475E-08  1386   0.655E-04    0.660E-05
RMM:  18    -0.413217564657E+03    0.14853E-05   -0.33882E-08   826   0.533E-04    0.450E-05
RMM:  19    -0.413217563469E+03    0.11884E-05   -0.24657E-08   767   0.522E-04    0.244E-05
RMM:  20    -0.413217562614E+03    0.85514E-06   -0.19020E-08   715   0.515E-04
   48 T=    71. E= -.41286660E+03 F= -.41321756E+03 E0= -.41319663E+03  EK= 0.35096E+00 SP= 0.00E+00 SK= 0.00E+00
       N       E                     dE             d eps       ncg     rms          rms(c)
RMM:   1    -0.413237092633E+03   -0.19529E-01   -0.85619E+00  4306   0.160E+00    0.959E-01
RMM:   2    -0.413220488380E+03    0.16604E-01   -0.14034E-01  4509   0.192E-01    0.702E-01
RMM:   3    -0.413237866587E+03   -0.17378E-01   -0.43140E-02  5129   0.160E-01    0.652E-01
RMM:   4    -0.413225786764E+03    0.12080E-01   -0.44084E-02  4977   0.190E-01    0.454E-01
RMM:   5    -0.413213798688E+03    0.11988E-01   -0.36488E-03  4533   0.844E-02    0.569E-02
RMM:   6    -0.413213693696E+03    0.10499E-03   -0.59526E-04  4836   0.282E-02    0.296E-02
RMM:   7    -0.413213699866E+03   -0.61704E-05   -0.16671E-04  5803   0.133E-02    0.125E-02
RMM:   8    -0.413213694969E+03    0.48969E-05   -0.56050E-05  5217   0.863E-03    0.958E-03
RMM:   9    -0.413213690467E+03    0.45022E-05   -0.14463E-05  4213   0.456E-03    0.405E-03
RMM:  10    -0.413213686831E+03    0.36358E-05   -0.22119E-06  2596   0.238E-03    0.238E-03
RMM:  11    -0.413213681044E+03    0.57869E-05   -0.13004E-06  2478   0.191E-03    0.138E-03
RMM:  12    -0.413213677354E+03    0.36902E-05   -0.51322E-07  2414   0.128E-03    0.804E-04
RMM:  13    -0.413213672643E+03    0.47112E-05   -0.29663E-07  2040   0.936E-04    0.481E-04
RMM:  14    -0.413213666447E+03    0.61959E-05   -0.20916E-07  1638   0.785E-04    0.392E-04
RMM:  15    -0.413213662835E+03    0.36126E-05   -0.10652E-07  1092   0.622E-04    0.161E-04
RMM:  16    -0.413213660069E+03    0.27651E-05   -0.82182E-08  1137   0.613E-04    0.100E-04
RMM:  17    -0.413213655620E+03    0.44491E-05   -0.80794E-08  1259   0.623E-04    0.142E-04
RMM:  18    -0.413213654727E+03    0.89347E-06   -0.32722E-08   810   0.524E-04
   49 T=    71. E= -.41286624E+03 F= -.41321365E+03 E0= -.41319273E+03  EK= 0.34742E+00 SP= 0.00E+00 SK= 0.00E+00
       N       E                     dE             d eps       ncg     rms          rms(c)
RMM:   1    -0.413235525015E+03   -0.21869E-01   -0.85033E+00  4308   0.176E+00    0.933E-01
RMM:   2    -0.413216012287E+03    0.19513E-01   -0.14683E-01  4553   0.206E-01    0.702E-01
RMM:   3    -0.413237744805E+03   -0.21733E-01   -0.46041E-02  5141   0.172E-01    0.712E-01
RMM:   4    -0.413219788983E+03    0.17956E-01   -0.46444E-02  4966   0.197E-01    0.431E-01
RMM:   5    -0.413209011457E+03    0.10778E-01   -0.36997E-03  4561   0.860E-02    0.593E-02
RMM:   6    -0.413208871718E+03    0.13974E-03   -0.51387E-04  4755   0.280E-02    0.297E-02
RMM:   7    -0.413208890312E+03   -0.18594E-04   -0.24028E-04  5805   0.163E-02    0.182E-02
RMM:   8    -0.413208874279E+03    0.16034E-04   -0.75195E-05  5113   0.977E-03    0.925E-03
[...]
RMM:   6    -0.411037956239E+03    0.59133E-01   -0.68612E-01  4860   0.104E+00    0.102E+00
RMM:   7    -0.410996157264E+03    0.41799E-01   -0.13181E-01  4974   0.503E-01    0.576E-01
RMM:   8    -0.410989790802E+03    0.63665E-02   -0.30563E-02  5694   0.227E-01    0.307E-01
RMM:   9    -0.410986575712E+03    0.32151E-02   -0.14762E-02  4509   0.153E-01    0.105E-01
RMM:  10    -0.410986740686E+03   -0.16497E-03   -0.52249E-03  5828   0.879E-02    0.822E-02
RMM:  11    -0.410986654571E+03    0.86115E-04   -0.63896E-04  5154   0.329E-02    0.472E-02
RMM:  12    -0.410986645845E+03    0.87258E-05   -0.36239E-04  5109   0.248E-02    0.239E-02
RMM:  13    -0.410986641343E+03    0.45020E-05   -0.90834E-05  5168   0.120E-02    0.127E-02
RMM:  14    -0.410986645266E+03   -0.39224E-05   -0.42128E-05  5539   0.780E-03    0.616E-03
RMM:  15    -0.410986656155E+03   -0.10889E-04   -0.10989E-05  3892   0.452E-03    0.421E-03
RMM:  16    -0.410986667552E+03   -0.11397E-04   -0.39176E-06  2824   0.329E-03    0.251E-03
RMM:  17    -0.410986675310E+03   -0.77577E-05   -0.16114E-06  2628   0.196E-03    0.102E-03
RMM:  18    -0.410986683672E+03   -0.83625E-05   -0.11910E-06  2579   0.162E-03    0.740E-04
RMM:  19    -0.410986696000E+03   -0.12328E-04   -0.19806E-06  2663   0.176E-03    0.475E-04
RMM:  20    -0.410986702653E+03   -0.66532E-05   -0.12082E-06  2172   0.119E-03    0.303E-04
RMM:  21    -0.410986710175E+03   -0.75216E-05   -0.14925E-06  2415   0.131E-03    0.225E-04
RMM:  22    -0.410986713699E+03   -0.35245E-05   -0.61751E-07  1575   0.826E-04    0.152E-04
RMM:  23    -0.410986716603E+03   -0.29038E-05   -0.30180E-07  1374   0.703E-04    0.106E-04
RMM:  24    -0.410986718135E+03   -0.15322E-05   -0.15630E-07  1193   0.617E-04    0.694E-05
RMM:  25    -0.410986719517E+03   -0.13817E-05   -0.10357E-07  1139   0.591E-04    0.600E-05
RMM:  26    -0.410986720356E+03   -0.83919E-06   -0.66364E-08  1048   0.561E-04
  143 T=  1395. E= -.40413447E+03 F= -.41098672E+03 E0= -.41096285E+03  EK= 0.68522E+01 SP= 0.00E+00 SK= 0.00E+00
       N       E                     dE             d eps       ncg     rms          rms(c)
RMM:   1    -0.405884365531E+03    0.51024E+01   -0.64983E+01  6205   0.172E+01    0.395E+00
RMM:   2    -0.410732340106E+03   -0.48480E+01   -0.17444E+01  5801   0.399E+00    0.542E+00
RMM:   3    -0.410712877925E+03    0.19462E-01   -0.26607E+00  5883   0.147E+00    0.602E+00
RMM:   4    -0.410550630730E+03    0.16225E+00   -0.35985E-01  5841   0.547E-01    0.579E+00
RMM:   5    -0.410611868369E+03   -0.61238E-01   -0.10037E-01  6001   0.302E-01    0.622E+00
RMM:   6    -0.410315913413E+03    0.29595E+00   -0.17727E+00  4737   0.162E+00    0.300E+00
RMM:   7    -0.410322368956E+03   -0.64555E-02   -0.27521E+00  4576   0.210E+00    0.279E+00
RMM:   8    -0.410207211282E+03    0.11516E+00   -0.25929E-01  5631   0.637E-01    0.211E+00
RMM:   9    -0.410092745462E+03    0.11447E+00   -0.21229E-01  4480   0.614E-01    0.975E-01
RMM:  10    -0.410083087797E+03    0.96577E-02   -0.15168E-01  5565   0.438E-01    0.398E-01
RMM:  11    -0.410082744729E+03    0.34307E-03   -0.16705E-02  5698   0.164E-01    0.197E-01
RMM:  12    -0.410082569481E+03    0.17525E-03   -0.39172E-03  5690   0.736E-02    0.818E-02
RMM:  13    -0.410082614506E+03   -0.45025E-04   -0.11905E-03  5570   0.415E-02    0.444E-02
RMM:  14    -0.410082598218E+03    0.16288E-04   -0.24399E-04  5612   0.213E-02    0.227E-02
RMM:  15    -0.410082598754E+03   -0.53599E-06   -0.79049E-05  5971   0.100E-02    0.127E-02
RMM:  16    -0.410082604989E+03   -0.62351E-05   -0.16609E-05  4528   0.488E-03    0.854E-03
RMM:  17    -0.410082612413E+03   -0.74237E-05   -0.72868E-06  3489   0.381E-03    0.600E-03
RMM:  18    -0.410082617605E+03   -0.51923E-05   -0.87526E-06  3797   0.383E-03    0.193E-03
RMM:  19    -0.410082622832E+03   -0.52265E-05   -0.22572E-06  2616   0.241E-03    0.122E-03
RMM:  20    -0.410082627195E+03   -0.43638E-05   -0.96560E-07  2516   0.164E-03    0.774E-04
RMM:  21    -0.410082630784E+03   -0.35887E-05   -0.64058E-07  2476   0.121E-03    0.654E-04
RMM:  22    -0.410082637340E+03   -0.65561E-05   -0.92896E-07  2359   0.114E-03    0.317E-04
RMM:  23    -0.410082641825E+03   -0.44845E-05   -0.62859E-07  1928   0.937E-04    0.261E-04
RMM:  24    -0.410082645391E+03   -0.35663E-05   -0.42241E-07  1677   0.802E-04    0.333E-04
RMM:  25    -0.410082648822E+03   -0.34309E-05   -0.28439E-07  1409   0.700E-04    0.179E-04
RMM:  26    -0.410082650476E+03   -0.16536E-05   -0.13080E-07  1099   0.592E-04    0.130E-04
RMM:  27    -0.410082651220E+03   -0.74448E-06   -0.56697E-08   911   0.543E-04
  144 T=  1159. E= -.40438994E+03 F= -.41008265E+03 E0= -.41006025E+03  EK= 0.56927E+01 SP= 0.00E+00 SK= 0.00E+00
       N       E                     dE             d eps       ncg     rms          rms(c)
RMM:   1    -0.412249943258E+03   -0.21673E+01   -0.14655E+02  4494   0.197E+01    0.586E+00
RMM:   2    -0.409623460324E+03    0.26265E+01   -0.82308E+00  5282   0.339E+00    0.551E+00
RMM:   3    -0.410055136340E+03   -0.43168E+00   -0.24079E+00  5413   0.171E+00    0.579E+00
RMM:   4    -0.409038316434E+03    0.10168E+01   -0.14079E+00  5114   0.138E+00    0.316E+00
RMM:   5    -0.408985992792E+03    0.52324E-01   -0.51817E-01  4780   0.992E-01    0.169E+00
RMM:   6    -0.409008069441E+03   -0.22077E-01   -0.50376E-01  5021   0.865E-01    0.991E-01
RMM:   7    -0.408951773547E+03    0.56296E-01   -0.14796E-01  4910   0.497E-01    0.413E-01
RMM:   8    -0.408949630714E+03    0.21428E-02   -0.23211E-02  5727   0.188E-01    0.283E-01
RMM:   9    -0.408947199180E+03    0.24315E-02   -0.73382E-03  4410   0.122E-01    0.106E-01
RMM:  10    -0.408947288291E+03   -0.89111E-04   -0.42643E-03  5317   0.816E-02    0.657E-02
RMM:  11    -0.408947182414E+03    0.10588E-03   -0.62649E-04  5372   0.319E-02    0.322E-02
RMM:  12    -0.408947177044E+03    0.53699E-05   -0.30681E-04  5494   0.209E-02    0.162E-02
RMM:  13    -0.408947184025E+03   -0.69807E-05   -0.54954E-05  5416   0.857E-03    0.874E-03
RMM:  14    -0.408947187866E+03   -0.38410E-05   -0.18742E-05  4725   0.553E-03    0.471E-03
RMM:  15    -0.408947191337E+03   -0.34710E-05   -0.47527E-06  3004   0.302E-03    0.358E-03
RMM:  16    -0.408947193507E+03   -0.21698E-05   -0.12194E-06  2524   0.199E-03    0.145E-03
RMM:  17    -0.408947194807E+03   -0.13001E-05   -0.69845E-07  2474   0.133E-03    0.583E-04
RMM:  18    -0.408947196576E+03   -0.17692E-05   -0.51607E-07  2150   0.108E-03    0.292E-04
RMM:  19    -0.408947198550E+03   -0.19739E-05   -0.40693E-07  1845   0.924E-04    0.219E-04
RMM:  20    -0.408947199979E+03   -0.14289E-05   -0.27392E-07  1435   0.789E-04    0.121E-04
RMM:  21    -0.408947201526E+03   -0.15469E-05   -0.25464E-07  1514   0.757E-04    0.887E-05
RMM:  22    -0.408947202980E+03   -0.14542E-05   -0.20594E-07  1409   0.702E-04    0.705E-05
RMM:  23    -0.408947203647E+03   -0.66707E-06   -0.11333E-07  1129   0.611E-04
  145 T=  1160. E= -.40325082E+03 F= -.40894720E+03 E0= -.40892509E+03  EK= 0.56964E+01 SP= 0.00E+00 SK= 0.00E+00
       N       E                     dE             d eps       ncg     rms          rms(c)
RMM:   1    -0.411789233383E+03   -0.28420E+01   -0.94707E+01  4937   0.161E+01    0.480E+00
RMM:   2    -0.411724438514E+03    0.64795E-01   -0.11431E+01  5301   0.372E+00    0.432E+00
RMM:   3    -0.411636626896E+03    0.87812E-01   -0.11549E+00  5867   0.127E+00    0.330E+00
RMM:   4    -0.412816134943E+03   -0.11795E+01   -0.16133E+00  5301   0.124E+00    0.495E+00
RMM:   5    -0.411713983066E+03    0.11022E+01   -0.11929E+00  5152   0.116E+00    0.235E+00
RMM:   6    -0.411553615951E+03    0.16037E+00   -0.78405E-01  5155   0.105E+00    0.855E-01
RMM:   7    -0.411535919915E+03    0.17696E-01   -0.20856E-01  5692   0.559E-01    0.675E-01
RMM:   8    -0.411532690960E+03    0.32290E-02   -0.37100E-02  5980   0.209E-01    0.468E-01
RMM:   9    -0.411528674335E+03    0.40166E-02   -0.24118E-02  4839   0.206E-01    0.164E-01
RMM:  10    -0.411528760003E+03   -0.85668E-04   -0.95623E-03  5830   0.115E-01    0.120E-01
RMM:  11    -0.411528460666E+03    0.29934E-03   -0.15647E-03  5232   0.551E-02    0.481E-02
RMM:  12    -0.411528500462E+03   -0.39796E-04   -0.80252E-04  5905   0.329E-02    0.326E-02
RMM:  13    -0.411528501195E+03   -0.73247E-06   -0.15089E-04  5160   0.165E-02    0.131E-02
RMM:  14    -0.411528518161E+03   -0.16966E-04   -0.55210E-05  5653   0.843E-03    0.746E-03
RMM:  15    -0.411528530976E+03   -0.12815E-04   -0.15426E-05  4142   0.505E-03    0.403E-03
RMM:  16    -0.411528537165E+03   -0.61894E-05   -0.51580E-06  2878   0.302E-03    0.274E-03
RMM:  17    -0.411528540949E+03   -0.37840E-05   -0.34869E-06  2766   0.232E-03    0.148E-03
RMM:  18    -0.411528541935E+03   -0.98611E-06   -0.25969E-06  2682   0.180E-03
  146 T=  1652. E= -.40341426E+03 F= -.41152854E+03 E0= -.41150488E+03  EK= 0.81143E+01 SP= 0.00E+00 SK= 0.00E+00
       N       E                     dE             d eps       ncg     rms          rms(c)
RMM:   1    -0.411118311370E+03    0.41023E+00   -0.90795E+01  4607   0.150E+01    0.418E+00
RMM:   2    -0.411304360049E+03   -0.18605E+00   -0.13520E+01  5388   0.373E+00    0.360E+00
RMM:   3    -0.411927328455E+03   -0.62297E+00   -0.24069E+00  5756   0.157E+00    0.442E+00
RMM:   4    -0.411104755311E+03    0.82257E+00   -0.64765E-01  5155   0.885E-01    0.272E+00
RMM:   5    -0.411032091738E+03    0.72664E-01   -0.38171E-01  5358   0.726E-01    0.205E+00
RMM:   6    -0.411062541673E+03   -0.30450E-01   -0.10280E+00  4857   0.111E+00    0.123E+00
RMM:   7    -0.411021093271E+03    0.41448E-01   -0.19496E-01  5452   0.526E-01    0.108E+00
RMM:   8    -0.410993310765E+03    0.27783E-01   -0.38498E-02  5574   0.233E-01    0.734E-01
RMM:   9    -0.410977040471E+03    0.16270E-01   -0.91776E-02  4941   0.285E-01    0.181E-01
RMM:  10    -0.410978690608E+03   -0.16501E-02   -0.23447E-02  5812   0.152E-01    0.140E-01
RMM:  11    -0.410978196173E+03    0.49443E-03   -0.20330E-03  5183   0.591E-02    0.752E-02
RMM:  12    -0.410978101228E+03    0.94945E-04   -0.13843E-03  5078   0.411E-02    0.263E-02
RMM:  13    -0.410978160181E+03   -0.58953E-04   -0.17825E-04  4969   0.169E-02    0.157E-02
RMM:  14    -0.410978207168E+03   -0.46986E-04   -0.81376E-05  5468   0.115E-02    0.151E-02
RMM:  15    -0.410978230399E+03   -0.23231E-04   -0.29725E-05  4281   0.709E-03    0.884E-03
RMM:  16    -0.410978239879E+03   -0.94809E-05   -0.22305E-05  4322   0.522E-03    0.329E-03
RMM:  17    -0.410978251041E+03   -0.11162E-04   -0.10948E-05  3324   0.438E-03    0.218E-03
RMM:  18    -0.410978253897E+03   -0.28550E-05   -0.93414E-06  3140   0.345E-03    0.140E-03
RMM:  19    -0.410978252259E+03    0.16378E-05   -0.79410E-06  3038   0.311E-03    0.117E-03
RMM:  20    -0.410978248348E+03    0.39111E-05   -0.42998E-06  2820   0.215E-03    0.106E-03
RMM:  21    -0.410978241486E+03    0.68615E-05   -0.25770E-06  2626   0.173E-03    0.820E-04
RMM:  22    -0.410978233454E+03    0.80321E-05   -0.18674E-06  2321   0.136E-03    0.471E-04
RMM:  23    -0.410978229627E+03    0.38272E-05   -0.52636E-07  1722   0.877E-04    0.283E-04
RMM:  24    -0.410978224439E+03    0.51873E-05   -0.39001E-07  1755   0.842E-04    0.197E-04
RMM:  25    -0.410978220011E+03    0.44280E-05   -0.25762E-07  1615   0.738E-04    0.227E-04
RMM:  26    -0.410978218102E+03    0.19090E-05   -0.12655E-07  1152   0.594E-04    0.121E-04
RMM:  27    -0.410978216665E+03    0.14377E-05   -0.84067E-08  1090   0.573E-04    0.549E-05
RMM:  28    -0.410978215938E+03    0.72657E-06   -0.54122E-08  1001   0.545E-04
  147 T=  1607. E= -.40308524E+03 F= -.41097822E+03 E0= -.41095329E+03  EK= 0.78930E+01 SP= 0.00E+00 SK= 0.00E+00
       N       E                     dE             d eps       ncg     rms          rms(c)
RMM:   1    -0.412897585186E+03   -0.19194E+01   -0.96925E+01  4455   0.153E+01    0.398E+00
RMM:   2    -0.411998035217E+03    0.89955E+00   -0.10915E+01  5338   0.343E+00    0.302E+00
RMM:   3    -0.411972020876E+03    0.26014E-01   -0.12577E+00  5613   0.118E+00    0.278E+00
RMM:   4    -0.412071977050E+03   -0.99956E-01   -0.55767E-01  5408   0.695E-01    0.286E+00
RMM:   5    -0.411826891821E+03    0.24509E+00   -0.54962E-01  5356   0.777E-01    0.188E+00
RMM:   6    -0.411828739067E+03   -0.18472E-02   -0.12978E+00  5081   0.106E+00    0.152E+00
RMM:   7    -0.411799604374E+03    0.29135E-01   -0.17859E-01  5555   0.463E-01    0.128E+00
RMM:   8    -0.411746190709E+03    0.53414E-01   -0.68703E-02  4804   0.271E-01    0.642E-01
RMM:   9    -0.411739782081E+03    0.64086E-02   -0.13156E-01  5364   0.300E-01    0.114E-01
RMM:  10    -0.411741592142E+03   -0.18101E-02   -0.13491E-02  5908   0.108E-01    0.119E-01
RMM:  11    -0.411740983612E+03    0.60853E-03   -0.11569E-03  4964   0.422E-02    0.687E-02
RMM:  12    -0.411740896953E+03    0.86659E-04   -0.12150E-03  5056   0.360E-02    0.221E-02
RMM:  13    -0.411741036969E+03   -0.14002E-03   -0.12499E-04  4601   0.154E-02    0.274E-02
RMM:  14    -0.411741073730E+03   -0.36761E-04   -0.53765E-05  4504   0.811E-03    0.208E-02
RMM:  15    -0.411741132591E+03   -0.58861E-04   -0.14416E-04  4951   0.118E-02    0.427E-03
RMM:  16    -0.411741175048E+03   -0.42457E-04   -0.51411E-05  4534   0.677E-03    0.532E-03
RMM:  17    -0.411741204438E+03   -0.29389E-04   -0.18927E-05  3437   0.545E-03    0.314E-03
RMM:  18    -0.411741212607E+03   -0.81694E-05   -0.13078E-05  3208   0.400E-03    0.190E-03
RMM:  19    -0.411741210629E+03    0.19783E-05   -0.78333E-06  3089   0.285E-03    0.867E-04
RMM:  20    -0.411741206231E+03    0.43980E-05   -0.33646E-06  2553   0.188E-03    0.105E-03
RMM:  21    -0.411741197669E+03    0.85612E-05   -0.26047E-06  2526   0.168E-03    0.892E-04
RMM:  22    -0.411741191403E+03    0.62667E-05   -0.97226E-07  2010   0.108E-03    0.394E-04
RMM:  23    -0.411741184261E+03    0.71419E-05   -0.65501E-07  1992   0.984E-04    0.204E-04
RMM:  24    -0.411741179309E+03    0.49518E-05   -0.35326E-07  1599   0.788E-04    0.157E-04
RMM:  25    -0.411741176258E+03    0.30511E-05   -0.18690E-07  1307   0.675E-04    0.120E-04
RMM:  26    -0.411741173943E+03    0.23148E-05   -0.13282E-07  1302   0.635E-04    0.625E-05
RMM:  27    -0.411741172752E+03    0.11915E-05   -0.82638E-08  1145   0.571E-04    0.499E-05
RMM:  28    -0.411741172413E+03    0.33811E-06   -0.42891E-08   926   0.511E-04
  148 T=  1716. E= -.40331164E+03 F= -.41174117E+03 E0= -.41171741E+03  EK= 0.84295E+01 SP= 0.00E+00 SK= 0.00E+00
       N       E                     dE             d eps       ncg     rms          rms(c)
RMM:   1    -0.413709407313E+03   -0.19682E+01   -0.99037E+01  4665   0.164E+01    0.466E+00
RMM:   2    -0.412811344955E+03    0.89806E+00   -0.90258E+00  4854   0.379E+00    0.414E+00
RMM:   3    -0.413275986093E+03   -0.46464E+00   -0.24284E+00  5581   0.157E+00    0.487E+00
RMM:   4    -0.412406135434E+03    0.86985E+00   -0.91409E-01  5151   0.108E+00    0.239E+00
RMM:   5    -0.412359061040E+03    0.47074E-01   -0.58719E-01  5169   0.885E-01    0.165E+00
RMM:   6    -0.412386578584E+03   -0.27518E-01   -0.62843E-01  5172   0.820E-01    0.122E+00
RMM:   7    -0.412339234804E+03    0.47344E-01   -0.92034E-02  5216   0.398E-01    0.803E-01
RMM:   8    -0.412318298605E+03    0.20936E-01   -0.80981E-02  5410   0.279E-01    0.222E-01
RMM:   9    -0.412320490893E+03   -0.21923E-02   -0.28885E-02  5511   0.154E-01    0.150E-01
RMM:  10    -0.412319539279E+03    0.95161E-03   -0.25869E-03  4849   0.660E-02    0.644E-02
RMM:  11    -0.412319662479E+03   -0.12320E-03   -0.10449E-03  5667   0.348E-02    0.402E-02
RMM:  12    -0.412319821039E+03   -0.15856E-03   -0.30023E-04  4598   0.239E-02    0.185E-02
RMM:  13    -0.412319884943E+03   -0.63904E-04   -0.11736E-04  5664   0.119E-02    0.132E-02
RMM:  14    -0.412319952727E+03   -0.67784E-04   -0.46275E-05  4506   0.857E-03    0.120E-02
RMM:  15    -0.412319980172E+03   -0.27444E-04   -0.25916E-05  3825   0.606E-03    0.588E-03
RMM:  16    -0.412319997820E+03   -0.17648E-04   -0.24453E-05  3885   0.479E-03    0.285E-03
RMM:  17    -0.412320015440E+03   -0.17621E-04   -0.95684E-06  3131   0.382E-03    0.146E-03
RMM:  18    -0.412320021127E+03   -0.56862E-05   -0.91637E-06  3058   0.319E-03    0.130E-03
RMM:  19    -0.412320018339E+03    0.27877E-05   -0.73796E-06  2950   0.264E-03    0.126E-03
RMM:  20    -0.412320012350E+03    0.59887E-05   -0.52508E-06  2744   0.224E-03    0.659E-04
RMM:  21    -0.412320005590E+03    0.67606E-05   -0.20301E-06  2132   0.136E-03    0.371E-04
RMM:  22    -0.412319997741E+03    0.78485E-05   -0.91610E-07  2006   0.112E-03    0.270E-04
RMM:  23    -0.412319991387E+03    0.63545E-05   -0.47176E-07  1764   0.889E-04    0.229E-04
RMM:  24    -0.412319985903E+03    0.54833E-05   -0.32896E-07  1583   0.779E-04    0.111E-04
RMM:  25    -0.412319984000E+03    0.19037E-05   -0.15328E-07  1216   0.632E-04    0.640E-05
RMM:  26    -0.412319982350E+03    0.16498E-05   -0.10612E-07  1194   0.607E-04    0.431E-05
RMM:  27    -0.412319981531E+03    0.81861E-06   -0.68951E-08  1085   0.561E-04
  149 T=  1832. E= -.40332004E+03 F= -.41231998E+03 E0= -.41229826E+03  EK= 0.89999E+01 SP= 0.00E+00 SK= 0.00E+00
       N       E                     dE             d eps       ncg     rms          rms(c)
RMM:   1    -0.412418815581E+03   -0.98833E-01   -0.82706E+01  4412   0.142E+01    0.260E+00
RMM:   2    -0.412067903979E+03    0.35091E+00   -0.82401E+00  4738   0.349E+00    0.258E+00
RMM:   3    -0.412282419026E+03   -0.21452E+00   -0.16720E+00  5592   0.128E+00    0.328E+00
RMM:   4    -0.411879592382E+03    0.40283E+00   -0.35876E-01  5219   0.665E-01    0.185E+00
RMM:   5    -0.411836435026E+03    0.43157E-01   -0.91677E-02  5160   0.359E-01    0.146E+00
RMM:   6    -0.411880238258E+03   -0.43803E-01   -0.79419E-01  4870   0.885E-01    0.136E+00
RMM:   7    -0.411845009563E+03    0.35229E-01   -0.12501E-01  5476   0.404E-01    0.111E+00
RMM:   8    -0.411800043255E+03    0.44966E-01   -0.10517E-01  4740   0.332E-01    0.273E-01
RMM:   9    -0.411803581246E+03   -0.35380E-02   -0.18780E-02  5691   0.147E-01    0.198E-01
RMM:  10    -0.411803665017E+03   -0.83771E-04   -0.43438E-03  5259   0.813E-02    0.130E-01
RMM:  11    -0.411803564224E+03    0.10079E-03   -0.34376E-03  5509   0.565E-02    0.423E-02
RMM:  12    -0.411803833669E+03   -0.26944E-03   -0.92877E-04  5516   0.343E-02    0.202E-02
RMM:  13    -0.411803913316E+03   -0.79648E-04   -0.30397E-04  5888   0.149E-02    0.269E-02
RMM:  14    -0.411803934063E+03   -0.20747E-04   -0.63604E-05  4285   0.105E-02    0.139E-02
RMM:  15    -0.411803950926E+03   -0.16863E-04   -0.44524E-05  4372   0.724E-03    0.571E-03
RMM:  16    -0.411803978133E+03   -0.27207E-04   -0.34988E-05  3675   0.740E-03    0.222E-03
RMM:  17    -0.411803984856E+03   -0.67225E-05   -0.18033E-05  3381   0.448E-03    0.253E-03
RMM:  18    -0.411803983435E+03    0.14204E-05   -0.10416E-05  3107   0.373E-03    0.142E-03
RMM:  19    -0.411803976167E+03    0.72678E-05   -0.88909E-06  3026   0.314E-03    0.828E-04
RMM:  20    -0.411803967431E+03    0.87368E-05   -0.52272E-06  2802   0.221E-03    0.557E-04
RMM:  21    -0.411803959652E+03    0.77789E-05   -0.17408E-06  2144   0.132E-03    0.350E-04
RMM:  22    -0.411803949242E+03    0.10410E-04   -0.10851E-06  2102   0.120E-03    0.241E-04
RMM:  23    -0.411803944846E+03    0.43955E-05   -0.40952E-07  1587   0.843E-04    0.156E-04
RMM:  24    -0.411803940332E+03    0.45137E-05   -0.29007E-07  1604   0.790E-04    0.105E-04
RMM:  25    -0.411803937375E+03    0.29577E-05   -0.18971E-07  1516   0.700E-04    0.100E-04
RMM:  26    -0.411803936191E+03    0.11840E-05   -0.99352E-08  1181   0.584E-04    0.579E-05
RMM:  27    -0.411803935323E+03    0.86738E-06   -0.65433E-08  1102   0.556E-04
  150 T=  1739. E= -.40326272E+03 F= -.41180394E+03 E0= -.41178260E+03  EK= 0.85412E+01 SP= 0.00E+00 SK= 0.00E+00
