       N       E                     dE             d eps       ncg     rms          rms(c)
RMM:   1     0.220142277549E+04    0.22014E+04   -0.52441E+04  2132   0.654E+02
RMM:   2     0.705536241931E+03   -0.14959E+04   -0.16260E+04  2132   0.177E+02
RMM:   3     0.137381028929E+03   -0.56816E+03   -0.65811E+03  2132   0.117E+02
RMM:   4    -0.159282875407E+03   -0.29666E+03   -0.27849E+03  2132   0.936E+01
RMM:   5    -0.287568683896E+03   -0.12829E+03   -0.11444E+03  2132   0.595E+01
RMM:   6    -0.349798471467E+03   -0.62230E+02   -0.55139E+02  2132   0.423E+01
RMM:   7    -0.382688858550E+03   -0.32890E+02   -0.30406E+02  2132   0.293E+01
RMM:   8    -0.404204011011E+03   -0.21515E+02   -0.18424E+02  2132   0.233E+01
RMM:   9    -0.435971706766E+03   -0.31768E+02   -0.30720E+02  6100   0.173E+01
RMM:  10    -0.441232714388E+03   -0.52610E+01   -0.62685E+01  6393   0.538E+00
RMM:  11    -0.442509674164E+03   -0.12770E+01   -0.11313E+01  6235   0.174E+00
RMM:  12    -0.442901265252E+03   -0.39159E+00   -0.28342E+00  6373   0.610E-01    0.134E+02
RMM:  13    -0.425628954512E+03    0.17272E+02   -0.80984E+01  4673   0.119E+01    0.712E+01
RMM:  14    -0.499984285163E+03   -0.74355E+02   -0.54208E+02  5417   0.233E+01    0.308E+01
RMM:  15    -0.417103489141E+03    0.82881E+02   -0.20327E+02  5105   0.164E+01    0.784E+00
RMM:  16    -0.414038548761E+03    0.30649E+01   -0.40434E+01  6091   0.619E+00    0.433E+00
RMM:  17    -0.413209968227E+03    0.82858E+00   -0.26853E+00  5418   0.193E+00    0.244E+00
RMM:  18    -0.413178600753E+03    0.31367E-01   -0.74807E-01  6002   0.885E-01    0.171E+00
RMM:  19    -0.413173543480E+03    0.50573E-02   -0.25202E-01  5675   0.549E-01    0.921E-01
RMM:  20    -0.413195734240E+03   -0.22191E-01   -0.34189E-01  5580   0.598E-01    0.695E-01
RMM:  21    -0.413169438307E+03    0.26296E-01   -0.37608E-02  4970   0.257E-01    0.323E-01
RMM:  22    -0.413165166528E+03    0.42718E-02   -0.27995E-02  5833   0.163E-01    0.137E-01
RMM:  23    -0.413164410280E+03    0.75625E-03   -0.58506E-03  6031   0.680E-02    0.842E-02
RMM:  24    -0.413163352406E+03    0.10579E-02   -0.17236E-03  5312   0.415E-02    0.567E-02
RMM:  25    -0.413162699425E+03    0.65298E-03   -0.86289E-04  5038   0.295E-02    0.410E-02
RMM:  26    -0.413162812330E+03   -0.11290E-03   -0.12081E-03  5795   0.352E-02    0.361E-02
RMM:  27    -0.413163194606E+03   -0.38228E-03   -0.20968E-04  4623   0.199E-02    0.208E-02
RMM:  28    -0.413163637950E+03   -0.44334E-03   -0.16703E-04  5113   0.178E-02    0.993E-03
RMM:  29    -0.413164028358E+03   -0.39041E-03   -0.12242E-04  4787   0.155E-02    0.488E-03
RMM:  30    -0.413164286300E+03   -0.25794E-03   -0.84004E-05  4279   0.111E-02    0.427E-03
RMM:  31    -0.413164441975E+03   -0.15567E-03   -0.64804E-05  3399   0.792E-03    0.378E-03
RMM:  32    -0.413164471704E+03   -0.29729E-04   -0.24633E-05  2997   0.331E-03    0.211E-03
RMM:  33    -0.413164485218E+03   -0.13515E-04   -0.10068E-05  2796   0.227E-03    0.885E-04
RMM:  34    -0.413164489013E+03   -0.37947E-05   -0.53969E-06  2676   0.168E-03    0.487E-04
RMM:  35    -0.413164489534E+03   -0.52047E-06   -0.24753E-06  2378   0.133E-03
    1 T=    61. E= -.41286671E+03 F= -.41316449E+03 E0= -.41314199E+03  EK= 0.29778E+00 SP= 0.00E+00 SK= 0.00E+00
       N       E                     dE             d eps       ncg     rms          rms(c)
RMM:   1    -0.413158468573E+03    0.60204E-02   -0.10182E+01  3995   0.662E-01    0.885E-01
RMM:   2    -0.413167093045E+03   -0.86245E-02   -0.12463E-01  3982   0.958E-02    0.645E-01
RMM:   3    -0.413164289149E+03    0.28039E-02   -0.98731E-03  4576   0.403E-02    0.107E-01
RMM:   4    -0.413174156044E+03   -0.98669E-02   -0.10520E-02  5215   0.850E-02    0.418E-01
RMM:   5    -0.413164163746E+03    0.99923E-02   -0.50746E-03  4870   0.698E-02    0.359E-02
RMM:   6    -0.413164223498E+03   -0.59753E-04   -0.92466E-04  5771   0.293E-02    0.259E-02
RMM:   7    -0.413164224073E+03   -0.57452E-06   -0.21745E-04  5540   0.137E-02    0.136E-02
RMM:   8    -0.413164225413E+03   -0.13396E-05   -0.19436E-05  4044   0.498E-03    0.590E-03
RMM:   9    -0.413164229696E+03   -0.42832E-05   -0.39092E-06  2821   0.231E-03    0.427E-03
RMM:  10    -0.413164235325E+03   -0.56296E-05   -0.14315E-06  2518   0.177E-03    0.242E-03
RMM:  11    -0.413164241748E+03   -0.64224E-05   -0.11787E-06  2505   0.155E-03    0.957E-04
RMM:  12    -0.413164245932E+03   -0.41840E-05   -0.73601E-07  2325   0.120E-03    0.447E-04
RMM:  13    -0.413164247051E+03   -0.11193E-05   -0.40118E-07  1855   0.852E-04    0.288E-04
RMM:  14    -0.413164248794E+03   -0.17426E-05   -0.28832E-07  1397   0.726E-04    0.152E-04
RMM:  15    -0.413164251080E+03   -0.22859E-05   -0.27727E-07  1357   0.714E-04    0.775E-05
RMM:  16    -0.413164251789E+03   -0.70890E-06   -0.18193E-07  1157   0.638E-04
    2 T=    61. E= -.41286654E+03 F= -.41316425E+03 E0= -.41314175E+03  EK= 0.29771E+00 SP= 0.00E+00 SK= 0.00E+00
       N       E                     dE             d eps       ncg     rms          rms(c)
RMM:   1    -0.413159552751E+03    0.46983E-02   -0.10199E+01  4191   0.668E-01    0.907E-01
RMM:   2    -0.413167076227E+03   -0.75235E-02   -0.12259E-01  4068   0.942E-02    0.639E-01
RMM:   3    -0.413165091841E+03    0.19844E-02   -0.10024E-02  4901   0.432E-02    0.141E-01
RMM:   4    -0.413195129413E+03   -0.30038E-01   -0.31164E-02  5175   0.147E-01    0.722E-01
RMM:   5    -0.413164602568E+03    0.30527E-01   -0.14709E-02  4826   0.121E-01    0.465E-02
RMM:   6    -0.413164790476E+03   -0.18791E-03   -0.25501E-03  5769   0.486E-02    0.301E-02
RMM:   7    -0.413164792511E+03   -0.20356E-05   -0.38587E-04  5768   0.176E-02    0.189E-02
RMM:   8    -0.413164787678E+03    0.48334E-05   -0.57449E-05  5082   0.791E-03    0.871E-03
RMM:   9    -0.413164786098E+03    0.15803E-05   -0.11873E-05  3786   0.382E-03    0.644E-03
RMM:  10    -0.413164786355E+03   -0.25733E-06   -0.17962E-06  2576   0.205E-03
    3 T=    61. E= -.41286682E+03 F= -.41316479E+03 E0= -.41314229E+03  EK= 0.29796E+00 SP= 0.00E+00 SK= 0.00E+00
       N       E                     dE             d eps       ncg     rms          rms(c)
RMM:   1    -0.413159012714E+03    0.57734E-02   -0.10117E+01  4225   0.669E-01    0.891E-01
RMM:   2    -0.413166781632E+03   -0.77689E-02   -0.12186E-01  4212   0.930E-02    0.634E-01
RMM:   3    -0.413168147681E+03   -0.13660E-02   -0.12372E-02  5152   0.683E-02    0.279E-01
RMM:   4    -0.413195033266E+03   -0.26886E-01   -0.41851E-02  5129   0.173E-01    0.722E-01
RMM:   5    -0.413164471660E+03    0.30562E-01   -0.12702E-02  4739   0.120E-01    0.579E-02
RMM:   6    -0.413164535198E+03   -0.63538E-04   -0.22752E-03  5551   0.473E-02    0.277E-02
RMM:   7    -0.413164558126E+03   -0.22928E-04   -0.36371E-04  6041   0.166E-02    0.173E-02
RMM:   8    -0.413164557986E+03    0.13965E-06   -0.65577E-05  5265   0.873E-03    0.770E-03
RMM:   9    -0.413164556070E+03    0.19165E-05   -0.96757E-06  3477   0.370E-03    0.375E-03
RMM:  10    -0.413164557252E+03   -0.11825E-05   -0.21120E-06  2587   0.215E-03    0.249E-03
RMM:  11    -0.413164559090E+03   -0.18382E-05   -0.14388E-06  2536   0.185E-03    0.148E-03
RMM:  12    -0.413164559980E+03   -0.88922E-06   -0.71971E-07  2479   0.139E-03
    4 T=    61. E= -.41286654E+03 F= -.41316456E+03 E0= -.41314207E+03  EK= 0.29802E+00 SP= 0.00E+00 SK= 0.00E+00
       N       E                     dE             d eps       ncg     rms          rms(c)
RMM:   1    -0.413158916815E+03    0.56423E-02   -0.10170E+01  4237   0.675E-01    0.883E-01
RMM:   2    -0.413167313764E+03   -0.83969E-02   -0.12472E-01  3950   0.903E-02    0.644E-01
RMM:   3    -0.413165025557E+03    0.22882E-02   -0.99690E-03  4956   0.405E-02    0.129E-01
RMM:   4    -0.413194481215E+03   -0.29456E-01   -0.30586E-02  5157   0.146E-01    0.716E-01
RMM:   5    -0.413164498269E+03    0.29983E-01   -0.14464E-02  4822   0.119E-01    0.445E-02
RMM:   6    -0.413164687035E+03   -0.18877E-03   -0.24638E-03  5793   0.476E-02    0.280E-02
RMM:   7    -0.413164699527E+03   -0.12492E-04   -0.36131E-04  5798   0.170E-02    0.181E-02
RMM:   8    -0.413164700775E+03   -0.12476E-05   -0.59046E-05  5027   0.794E-03    0.865E-03
RMM:   9    -0.413164702489E+03   -0.17140E-05   -0.11839E-05  3815   0.390E-03    0.637E-03
RMM:  10    -0.413164706754E+03   -0.42655E-05   -0.17380E-06  2569   0.203E-03    0.415E-03
RMM:  11    -0.413164711963E+03   -0.52087E-05   -0.15019E-06  2554   0.188E-03    0.197E-03
RMM:  12    -0.413164717575E+03   -0.56124E-05   -0.14827E-06  2549   0.176E-03    0.822E-04
RMM:  13    -0.413164718270E+03   -0.69451E-06   -0.41393E-07  2223   0.110E-03
    5 T=    61. E= -.41286651E+03 F= -.41316472E+03 E0= -.41314224E+03  EK= 0.29821E+00 SP= 0.00E+00 SK= 0.00E+00
       N       E                     dE             d eps       ncg     rms          rms(c)
RMM:   1    -0.413159765293E+03    0.49523E-02   -0.10201E+01  4251   0.680E-01    0.903E-01
RMM:   2    -0.413167417371E+03   -0.76521E-02   -0.12291E-01  4069   0.934E-02    0.642E-01
RMM:   3    -0.413165336512E+03    0.20809E-02   -0.99114E-03  4738   0.405E-02    0.126E-01
RMM:   4    -0.413184638585E+03   -0.19302E-01   -0.19603E-02  5158   0.117E-01    0.583E-01
RMM:   5    -0.413165038855E+03    0.19600E-01   -0.96163E-03  4834   0.965E-02    0.403E-02
RMM:   6    -0.413165157383E+03   -0.11853E-03   -0.16327E-03  5812   0.385E-02    0.258E-02
RMM:   7    -0.413165161507E+03   -0.41243E-05   -0.26821E-04  5682   0.155E-02    0.164E-02
RMM:   8    -0.413165155472E+03    0.60354E-05   -0.47181E-05  4870   0.738E-03    0.787E-03
RMM:   9    -0.413165154453E+03    0.10192E-05   -0.92320E-06  3563   0.352E-03    0.620E-03
RMM:  10    -0.413165155055E+03   -0.60225E-06   -0.14073E-06  2536   0.201E-03
    6 T=    61. E= -.41286666E+03 F= -.41316516E+03 E0= -.41314269E+03  EK= 0.29850E+00 SP= 0.00E+00 SK= 0.00E+00
       N       E                     dE             d eps       ncg     rms          rms(c)
RMM:   1    -0.413159536269E+03    0.56182E-02   -0.10146E+01  4256   0.682E-01    0.899E-01
RMM:   2    -0.413167208275E+03   -0.76720E-02   -0.12209E-01  4217   0.944E-02    0.635E-01
RMM:   3    -0.413167525852E+03   -0.31758E-03   -0.11686E-02  5098   0.625E-02    0.246E-01
RMM:   4    -0.413199952912E+03   -0.32427E-01   -0.44079E-02  5125   0.176E-01    0.773E-01
RMM:   5    -0.413164832412E+03    0.35120E-01   -0.15283E-02  4770   0.128E-01    0.577E-02
RMM:   6    -0.413164934232E+03   -0.10182E-03   -0.26472E-03  5614   0.506E-02    0.284E-02
RMM:   7    -0.413164955768E+03   -0.21536E-04   -0.39760E-04  6031   0.169E-02    0.178E-02
RMM:   8    -0.413164954069E+03    0.16989E-05   -0.66301E-05  5250   0.862E-03    0.789E-03
RMM:   9    -0.413164950546E+03    0.35233E-05   -0.10433E-05  3516   0.371E-03    0.397E-03
RMM:  10    -0.413164950513E+03    0.33015E-07   -0.24748E-06  2608   0.224E-03
    7 T=    61. E= -.41286641E+03 F= -.41316495E+03 E0= -.41314250E+03  EK= 0.29854E+00 SP= 0.00E+00 SK= 0.00E+00
       N       E                     dE             d eps       ncg     rms          rms(c)
RMM:   1    -0.413160439550E+03    0.45110E-02   -0.10156E+01  4267   0.701E-01    0.881E-01
RMM:   2    -0.413168212387E+03   -0.77728E-02   -0.12489E-01  4178   0.953E-02    0.642E-01
RMM:   3    -0.413166449370E+03    0.17630E-02   -0.10352E-02  5030   0.500E-02    0.168E-01
RMM:   4    -0.413208226808E+03   -0.41777E-01   -0.46187E-02  5140   0.179E-01    0.851E-01
RMM:   5    -0.413165282255E+03    0.42945E-01   -0.20232E-02  4802   0.142E-01    0.521E-02
RMM:   6    -0.413165495043E+03   -0.21279E-03   -0.33284E-03  5759   0.563E-02    0.293E-02
RMM:   7    -0.413165512611E+03   -0.17568E-04   -0.46309E-04  5947   0.185E-02    0.196E-02
RMM:   8    -0.413165514387E+03   -0.17755E-05   -0.73118E-05  5226   0.862E-03    0.933E-03
RMM:   9    -0.413165514275E+03    0.11217E-06   -0.14684E-05  3992   0.420E-03    0.581E-03
RMM:  10    -0.413165517608E+03   -0.33336E-05   -0.26055E-06  2625   0.220E-03    0.386E-03
RMM:  11    -0.413165520773E+03   -0.31646E-05   -0.12335E-06  2524   0.172E-03    0.201E-03
RMM:  12    -0.413165524588E+03   -0.38154E-05   -0.14247E-06  2550   0.173E-03    0.671E-04
RMM:  13    -0.413165525798E+03   -0.12097E-05   -0.54839E-07  2289   0.118E-03    0.550E-04
RMM:  14    -0.413165525657E+03    0.14080E-06   -0.22272E-07  1721   0.815E-04
    8 T=    61. E= -.41286670E+03 F= -.41316553E+03 E0= -.41314310E+03  EK= 0.29883E+00 SP= 0.00E+00 SK= 0.00E+00
       N       E                     dE             d eps       ncg     rms          rms(c)
RMM:   1    -0.413160250930E+03    0.52749E-02   -0.10198E+01  4283   0.694E-01    0.898E-01
RMM:   2    -0.413168282619E+03   -0.80317E-02   -0.12361E-01  4187   0.954E-02    0.644E-01
RMM:   3    -0.413165979346E+03    0.23033E-02   -0.10026E-02  4794   0.421E-02    0.127E-01
RMM:   4    -0.413190214169E+03   -0.24235E-01   -0.24860E-02  5153   0.131E-01    0.651E-01
RMM:   5    -0.413165559657E+03    0.24655E-01   -0.12054E-02  4817   0.108E-01    0.426E-02
RMM:   6    -0.413165718458E+03   -0.15880E-03   -0.20491E-03  5797   0.432E-02    0.280E-02
RMM:   7    -0.413165721216E+03   -0.27588E-05   -0.32136E-04  5683   0.165E-02    0.176E-02
RMM:   8    -0.413165716672E+03    0.45445E-05   -0.50728E-05  4951   0.758E-03    0.823E-03
RMM:   9    -0.413165715512E+03    0.11597E-05   -0.10224E-05  3625   0.364E-03    0.631E-03
RMM:  10    -0.413165716258E+03   -0.74566E-06   -0.14715E-06  2542   0.199E-03
    9 T=    61. E= -.41286666E+03 F= -.41316572E+03 E0= -.41314331E+03  EK= 0.29905E+00 SP= 0.00E+00 SK= 0.00E+00
       N       E                     dE             d eps       ncg     rms          rms(c)
RMM:   1    -0.413160547158E+03    0.51684E-02   -0.10174E+01  4295   0.695E-01    0.905E-01
RMM:   2    -0.413168010596E+03   -0.74634E-02   -0.12215E-01  4264   0.948E-02    0.636E-01
RMM:   3    -0.413168440321E+03   -0.42972E-03   -0.11906E-02  5088   0.653E-02    0.250E-01
RMM:   4    -0.413200059913E+03   -0.31620E-01   -0.43619E-02  5116   0.175E-01    0.766E-01
RMM:   5    -0.413165646715E+03    0.34413E-01   -0.15000E-02  4756   0.127E-01    0.573E-02
RMM:   6    -0.413165752044E+03   -0.10533E-03   -0.25678E-03  5609   0.501E-02    0.288E-02
RMM:   7    -0.413165767003E+03   -0.14959E-04   -0.38910E-04  6012   0.168E-02    0.179E-02
RMM:   8    -0.413165763043E+03    0.39594E-05   -0.65975E-05  5241   0.863E-03    0.796E-03
RMM:   9    -0.413165758245E+03    0.47983E-05   -0.10402E-05  3510   0.372E-03    0.400E-03
RMM:  10    -0.413165757078E+03    0.11672E-05   -0.24506E-06  2608   0.223E-03    0.277E-03
RMM:  11    -0.413165755347E+03    0.17305E-05   -0.12468E-06  2516   0.176E-03    0.144E-03
RMM:  12    -0.413165753503E+03    0.18441E-05   -0.76898E-07  2479   0.139E-03    0.481E-04
RMM:  13    -0.413165752616E+03    0.88675E-06   -0.36883E-07  2047   0.987E-04
   10 T=    61. E= -.41286647E+03 F= -.41316575E+03 E0= -.41314337E+03  EK= 0.29928E+00 SP= 0.00E+00 SK= 0.00E+00
       N       E                     dE             d eps       ncg     rms          rms(c)
RMM:   1    -0.413160872086E+03    0.48814E-02   -0.10131E+01  4283   0.704E-01    0.882E-01
RMM:   2    -0.413169059676E+03   -0.81876E-02   -0.12359E-01  4222   0.964E-02    0.639E-01
RMM:   3    -0.413166885006E+03    0.21747E-02   -0.99068E-03  4863   0.441E-02    0.133E-01
RMM:   4    -0.413197124360E+03   -0.30239E-01   -0.31449E-02  5141   0.147E-01    0.725E-01
RMM:   5    -0.413166314564E+03    0.30810E-01   -0.14947E-02  4802   0.121E-01    0.452E-02
RMM:   6    -0.413166501172E+03   -0.18661E-03   -0.25275E-03  5789   0.480E-02    0.288E-02
RMM:   7    -0.413166507187E+03   -0.60145E-05   -0.37160E-04  5750   0.172E-02    0.185E-02
RMM:   8    -0.413166504024E+03    0.31624E-05   -0.59591E-05  5014   0.803E-03    0.886E-03
RMM:   9    -0.413166502659E+03    0.13649E-05   -0.12274E-05  3847   0.396E-03    0.654E-03
RMM:  10    -0.413166503820E+03   -0.11609E-05   -0.17625E-06  2564   0.205E-03    0.425E-03
RMM:  11    -0.413166505358E+03   -0.15376E-05   -0.15681E-06  2553   0.193E-03    0.197E-03
RMM:  12    -0.413166506747E+03   -0.13889E-05   -0.13970E-06  2534   0.175E-03    0.799E-04
RMM:  13    -0.413166506865E+03   -0.11833E-06   -0.39914E-07  2220   0.110E-03
   11 T=    61. E= -.41286673E+03 F= -.41316651E+03 E0= -.41314415E+03  EK= 0.29978E+00 SP= 0.00E+00 SK= 0.00E+00
       N       E                     dE             d eps       ncg     rms          rms(c)
RMM:   1    -0.413161117980E+03    0.53888E-02   -0.10207E+01  4292   0.713E-01    0.894E-01
RMM:   2    -0.413169047388E+03   -0.79294E-02   -0.12470E-01  4214   0.947E-02    0.647E-01
RMM:   3    -0.413166691187E+03    0.23562E-02   -0.10031E-02  4801   0.416E-02    0.125E-01
RMM:   4    -0.413191515422E+03   -0.24824E-01   -0.25546E-02  5134   0.133E-01    0.658E-01
RMM:   5    -0.413166298723E+03    0.25217E-01   -0.12293E-02  4809   0.109E-01    0.424E-02
RMM:   6    -0.413166455734E+03   -0.15701E-03   -0.21007E-03  5803   0.433E-02    0.270E-02
RMM:   7    -0.413166462853E+03   -0.71196E-05   -0.31264E-04  5722   0.162E-02    0.173E-02
RMM:   8    -0.413166458613E+03    0.42400E-05   -0.56096E-05  4959   0.784E-03    0.852E-03
RMM:   9    -0.413166457220E+03    0.13930E-05   -0.11319E-05  3775   0.384E-03    0.654E-03
RMM:  10    -0.413166458094E+03   -0.87405E-06   -0.15216E-06  2544   0.202E-03
   12 T=    61. E= -.41286636E+03 F= -.41316646E+03 E0= -.41314413E+03  EK= 0.30010E+00 SP= 0.00E+00 SK= 0.00E+00
       N       E                     dE             d eps       ncg     rms          rms(c)
RMM:   1    -0.413161975083E+03    0.44821E-02   -0.10206E+01  4304   0.708E-01    0.910E-01
RMM:   2    -0.413169043031E+03   -0.70679E-02   -0.12250E-01  4267   0.910E-02    0.639E-01
RMM:   3    -0.413170025172E+03   -0.98214E-03   -0.12313E-02  5125   0.636E-02    0.261E-01
RMM:   4    -0.413200008703E+03   -0.29984E-01   -0.43309E-02  5111   0.175E-01    0.751E-01
RMM:   5    -0.413166906878E+03    0.33102E-01   -0.14179E-02  4742   0.124E-01    0.571E-02
RMM:   6    -0.413167002628E+03   -0.95751E-04   -0.24500E-03  5602   0.489E-02    0.290E-02
RMM:   7    -0.413167014235E+03   -0.11607E-04   -0.37731E-04  5999   0.168E-02    0.181E-02
RMM:   8    -0.413167009372E+03    0.48636E-05   -0.66864E-05  5228   0.873E-03    0.800E-03
RMM:   9    -0.413167003304E+03    0.60680E-05   -0.10207E-05  3511   0.376E-03    0.395E-03
RMM:  10    -0.413167001253E+03    0.20504E-05   -0.23708E-06  2603   0.221E-03    0.270E-03
RMM:  11    -0.413166998274E+03    0.29796E-05   -0.12444E-06  2517   0.176E-03    0.142E-03
RMM:  12    -0.413166995375E+03    0.28991E-05   -0.73246E-07  2463   0.138E-03    0.469E-04
RMM:  13    -0.413166994022E+03    0.13527E-05   -0.35592E-07  2039   0.977E-04    0.300E-04
RMM:  14    -0.413166992780E+03    0.12422E-05   -0.21267E-07  1568   0.789E-04    0.205E-04
RMM:  15    -0.413166990822E+03    0.19579E-05   -0.18956E-07  1400   0.737E-04    0.102E-04
RMM:  16    -0.413166988988E+03    0.18337E-05   -0.15195E-07  1371   0.699E-04    0.109E-04
RMM:  17    -0.413166986993E+03    0.19954E-05   -0.14541E-07  1375   0.670E-04    0.606E-05
RMM:  18    -0.413166985729E+03    0.12637E-05   -0.81985E-08  1074   0.590E-04    0.266E-05
RMM:  19    -0.413166985171E+03    0.55844E-06   -0.43236E-08   861   0.547E-04
   13 T=    61. E= -.41286640E+03 F= -.41316699E+03 E0= -.41314468E+03  EK= 0.30059E+00 SP= 0.00E+00 SK= 0.00E+00
       N       E                     dE             d eps       ncg     rms          rms(c)
RMM:   1    -0.413162993892E+03    0.39918E-02   -0.10139E+01  4293   0.725E-01    0.886E-01
RMM:   2    -0.413170103351E+03   -0.71095E-02   -0.12325E-01  4237   0.922E-02    0.638E-01
RMM:   3    -0.413168153268E+03    0.19501E-02   -0.10024E-02  4940   0.432E-02    0.142E-01
RMM:   4    -0.413202076804E+03   -0.33924E-01   -0.35769E-02  5140   0.157E-01    0.767E-01
RMM:   5    -0.413167481957E+03    0.34595E-01   -0.16850E-02  4799   0.128E-01    0.472E-02
RMM:   6    -0.413167675130E+03   -0.19317E-03   -0.27237E-03  5766   0.506E-02    0.299E-02
RMM:   7    -0.413167680847E+03   -0.57170E-05   -0.39917E-04  5746   0.179E-02    0.190E-02
RMM:   8    -0.413167677427E+03    0.34198E-05   -0.63496E-05  5106   0.829E-03    0.906E-03
RMM:   9    -0.413167674547E+03    0.28802E-05   -0.13299E-05  3924   0.410E-03    0.639E-03
RMM:  10    -0.413167674430E+03    0.11711E-06   -0.18769E-06  2563   0.206E-03
   14 T=    61. E= -.41286658E+03 F= -.41316767E+03 E0= -.41314541E+03  EK= 0.30109E+00 SP= 0.00E+00 SK= 0.00E+00
       N       E                     dE             d eps       ncg     rms          rms(c)
RMM:   1    -0.413162181467E+03    0.54931E-02   -0.10215E+01  4303   0.719E-01    0.891E-01
RMM:   2    -0.413170581722E+03   -0.84003E-02   -0.12527E-01  4301   0.961E-02    0.649E-01
RMM:   3    -0.413171377152E+03   -0.79543E-03   -0.12875E-02  5117   0.693E-02    0.277E-01
RMM:   4    -0.413202063368E+03   -0.30686E-01   -0.46431E-02  5104   0.181E-01    0.764E-01
RMM:   5    -0.413167583595E+03    0.34480E-01   -0.14451E-02  4731   0.125E-01    0.572E-02
RMM:   6    -0.413167677274E+03   -0.93679E-04   -0.25086E-03  5604   0.494E-02    0.271E-02
RMM:   7    -0.413167698448E+03   -0.21174E-04   -0.37921E-04  6008   0.168E-02    0.176E-02
RMM:   8    -0.413167700008E+03   -0.15601E-05   -0.68927E-05  5220   0.877E-03    0.800E-03
RMM:   9    -0.413167697953E+03    0.20551E-05   -0.10673E-05  3538   0.383E-03    0.376E-03
RMM:  10    -0.413167699229E+03   -0.12767E-05   -0.23736E-06  2598   0.219E-03    0.255E-03
RMM:  11    -0.413167700688E+03   -0.14588E-05   -0.13703E-06  2521   0.180E-03    0.140E-03
RMM:  12    -0.413167701306E+03   -0.61777E-06   -0.74436E-07  2471   0.138E-03
   15 T=    61. E= -.41286629E+03 F= -.41316770E+03 E0= -.41314547E+03  EK= 0.30141E+00 SP= 0.00E+00 SK= 0.00E+00
       N       E                     dE             d eps       ncg     rms          rms(c)
RMM:   1    -0.413163698524E+03    0.40022E-02   -0.10228E+01  4308   0.721E-01    0.912E-01
RMM:   2    -0.413171182725E+03   -0.74842E-02   -0.12317E-01  4249   0.975E-02    0.642E-01
RMM:   3    -0.413169317244E+03    0.18655E-02   -0.10455E-02  4928   0.472E-02    0.152E-01
RMM:   4    -0.413205013384E+03   -0.35696E-01   -0.37801E-02  5134   0.161E-01    0.787E-01
RMM:   5    -0.413168562371E+03    0.36451E-01   -0.17655E-02  4798   0.131E-01    0.490E-02
RMM:   6    -0.413168768446E+03   -0.20607E-03   -0.29651E-03  5772   0.524E-02    0.313E-02
RMM:   7    -0.413168767809E+03    0.63713E-06   -0.42615E-04  5760   0.186E-02    0.201E-02
RMM:   8    -0.413168758749E+03    0.90591E-05   -0.69400E-05  5136   0.864E-03    0.992E-03
RMM:   9    -0.413168752365E+03    0.63842E-05   -0.14077E-05  4028   0.421E-03    0.699E-03
RMM:  10    -0.413168748621E+03    0.37446E-05   -0.20418E-06  2577   0.215E-03    0.447E-03
RMM:  11    -0.413168744996E+03    0.36245E-05   -0.14144E-06  2529   0.186E-03    0.227E-03
RMM:  12    -0.413168739807E+03    0.51896E-05   -0.15737E-06  2550   0.190E-03    0.872E-04
RMM:  13    -0.413168738376E+03    0.14308E-05   -0.47719E-07  2314   0.122E-03    0.610E-04
RMM:  14    -0.413168738346E+03    0.29740E-07   -0.21968E-07  1831   0.828E-04
   16 T=    61. E= -.41286666E+03 F= -.41316874E+03 E0= -.41314654E+03  EK= 0.30208E+00 SP= 0.00E+00 SK= 0.00E+00
       N       E                     dE             d eps       ncg     rms          rms(c)
RMM:   1    -0.413163913634E+03    0.48247E-02   -0.10146E+01  4298   0.725E-01    0.892E-01
RMM:   2    -0.413171778679E+03   -0.78650E-02   -0.12314E-01  4261   0.981E-02    0.638E-01
RMM:   3    -0.413169530280E+03    0.22484E-02   -0.99558E-03  4847   0.442E-02    0.136E-01
RMM:   4    -0.413198477159E+03   -0.28947E-01   -0.30021E-02  5137   0.144E-01    0.709E-01
RMM:   5    -0.413169039084E+03    0.29438E-01   -0.14392E-02  4806   0.118E-01    0.453E-02
RMM:   6    -0.413169214324E+03   -0.17524E-03   -0.24402E-03  5793   0.469E-02    0.294E-02
RMM:   7    -0.413169213459E+03    0.86567E-06   -0.36304E-04  5700   0.173E-02    0.186E-02
RMM:   8    -0.413169205385E+03    0.80738E-05   -0.59675E-05  5018   0.811E-03    0.900E-03
RMM:   9    -0.413169200946E+03    0.44391E-05   -0.12312E-05  3841   0.397E-03    0.668E-03
RMM:  10    -0.413169198754E+03    0.21915E-05   -0.16527E-06  2551   0.204E-03    0.428E-03
RMM:  11    -0.413169196041E+03    0.27126E-05   -0.15317E-06  2540   0.193E-03    0.196E-03
RMM:  12    -0.413169192981E+03    0.30606E-05   -0.12643E-06  2515   0.173E-03    0.791E-04
RMM:  13    -0.413169192460E+03    0.52104E-06   -0.38450E-07  2208   0.109E-03
   17 T=    62. E= -.41286655E+03 F= -.41316919E+03 E0= -.41314703E+03  EK= 0.30264E+00 SP= 0.00E+00 SK= 0.00E+00
       N       E                     dE             d eps       ncg     rms          rms(c)
RMM:   1    -0.413164224043E+03    0.49689E-02   -0.10221E+01  4297   0.730E-01    0.889E-01
RMM:   2    -0.413172523149E+03   -0.82991E-02   -0.12563E-01  4263   0.962E-02    0.650E-01
RMM:   3    -0.413170015142E+03    0.25080E-02   -0.10343E-02  4865   0.441E-02    0.127E-01
RMM:   4    -0.413198723217E+03   -0.28708E-01   -0.29856E-02  5136   0.143E-01    0.707E-01
RMM:   5    -0.413169483489E+03    0.29240E-01   -0.14310E-02  4802   0.117E-01    0.442E-02
RMM:   6    -0.413169662829E+03   -0.17934E-03   -0.23936E-03  5810   0.464E-02    0.279E-02
RMM:   7    -0.413169669859E+03   -0.70298E-05   -0.34255E-04  5735   0.170E-02    0.178E-02
RMM:   8    -0.413169665375E+03    0.44836E-05   -0.62867E-05  5005   0.820E-03    0.906E-03
RMM:   9    -0.413169662662E+03    0.27129E-05   -0.13001E-05  3970   0.408E-03    0.672E-03
RMM:  10    -0.413169662818E+03   -0.15621E-06   -0.17044E-06  2556   0.205E-03
   18 T=    62. E= -.41286636E+03 F= -.41316966E+03 E0= -.41314754E+03  EK= 0.30330E+00 SP= 0.00E+00 SK= 0.00E+00
       N       E                     dE             d eps       ncg     rms          rms(c)
RMM:   1    -0.413165919048E+03    0.37436E-02   -0.10254E+01  4302   0.735E-01    0.911E-01
RMM:   2    -0.413173209282E+03   -0.72902E-02   -0.12410E-01  4318   0.955E-02    0.646E-01
RMM:   3    -0.413174434143E+03   -0.12249E-02   -0.12914E-02  5108   0.683E-02    0.278E-01
RMM:   4    -0.413203123659E+03   -0.28690E-01   -0.43976E-02  5095   0.176E-01    0.742E-01
RMM:   5    -0.413170787614E+03    0.32336E-01   -0.13636E-02  4722   0.122E-01    0.567E-02
RMM:   6    -0.413170879277E+03   -0.91662E-04   -0.24076E-03  5603   0.480E-02    0.288E-02
RMM:   7    -0.413170888168E+03   -0.88910E-05   -0.36766E-04  6003   0.166E-02    0.181E-02
RMM:   8    -0.413170882504E+03    0.56637E-05   -0.66384E-05  5198   0.871E-03    0.799E-03
RMM:   9    -0.413170875561E+03    0.69428E-05   -0.10309E-05  3542   0.379E-03    0.387E-03
RMM:  10    -0.413170873033E+03    0.25277E-05   -0.22799E-06  2581   0.218E-03    0.264E-03
RMM:  11    -0.413170869152E+03    0.38810E-05   -0.12145E-06  2512   0.176E-03    0.141E-03
RMM:  12    -0.413170865542E+03    0.36108E-05   -0.66857E-07  2449   0.136E-03    0.456E-04
RMM:  13    -0.413170863740E+03    0.18011E-05   -0.32606E-07  2020   0.958E-04    0.290E-04
RMM:  14    -0.413170862154E+03    0.15864E-05   -0.18986E-07  1521   0.772E-04    0.200E-04
RMM:  15    -0.413170859509E+03    0.26449E-05   -0.15834E-07  1353   0.724E-04    0.971E-05
RMM:  16    -0.413170857218E+03    0.22912E-05   -0.12832E-07  1365   0.687E-04    0.106E-04
RMM:  17    -0.413170854595E+03    0.26232E-05   -0.11628E-07  1359   0.660E-04    0.589E-05
RMM:  18    -0.413170852949E+03    0.16455E-05   -0.69860E-08  1067   0.583E-04    0.268E-05
RMM:  19    -0.413170852204E+03    0.74486E-06   -0.36229E-08   847   0.540E-04
   19 T=    62. E= -.41286662E+03 F= -.41317085E+03 E0= -.41314877E+03  EK= 0.30423E+00 SP= 0.00E+00 SK= 0.00E+00
       N       E                     dE             d eps       ncg     rms          rms(c)
RMM:   1    -0.413165981606E+03    0.48713E-02   -0.10192E+01  4297   0.732E-01    0.901E-01
RMM:   2    -0.413173429989E+03   -0.74484E-02   -0.12360E-01  4262   0.939E-02    0.640E-01
RMM:   3    -0.413171785734E+03    0.16443E-02   -0.10331E-02  4955   0.450E-02    0.153E-01
RMM:   4    -0.413208281408E+03   -0.36496E-01   -0.38919E-02  5132   0.164E-01    0.795E-01
RMM:   5    -0.413170991354E+03    0.37290E-01   -0.18174E-02  4795   0.132E-01    0.494E-02
RMM:   6    -0.413171197983E+03   -0.20663E-03   -0.29834E-03  5777   0.526E-02    0.315E-02
RMM:   7    -0.413171196966E+03    0.10163E-05   -0.42814E-04  5741   0.186E-02    0.200E-02
RMM:   8    -0.413171188662E+03    0.83045E-05   -0.70684E-05  5172   0.872E-03    0.975E-03
RMM:   9    -0.413171182130E+03    0.65320E-05   -0.14885E-05  4110   0.431E-03    0.673E-03
RMM:  10    -0.413171178553E+03    0.35769E-05   -0.20611E-06  2575   0.212E-03    0.435E-03
RMM:  11    -0.413171175223E+03    0.33302E-05   -0.12490E-06  2510   0.178E-03    0.225E-03
RMM:  12    -0.413171170456E+03    0.47669E-05   -0.14428E-06  2528   0.186E-03    0.833E-04
RMM:  13    -0.413171168905E+03    0.15510E-05   -0.46445E-07  2303   0.121E-03    0.593E-04
RMM:  14    -0.413171168978E+03   -0.73029E-07   -0.21782E-07  1807   0.823E-04
   20 T=    62. E= -.41286626E+03 F= -.41317117E+03 E0= -.41314914E+03  EK= 0.30491E+00 SP= 0.00E+00 SK= 0.00E+00
       N       E                     dE             d eps       ncg     rms          rms(c)
RMM:   1    -0.413167091492E+03    0.40774E-02   -0.10238E+01  4295   0.751E-01    0.889E-01
RMM:   2    -0.413175250509E+03   -0.81590E-02   -0.12721E-01  4270   0.974E-02    0.650E-01
RMM:   3    -0.413172686340E+03    0.25642E-02   -0.10366E-02  4870   0.437E-02    0.129E-01
RMM:   4    -0.413201661809E+03   -0.28975E-01   -0.30190E-02  5135   0.144E-01    0.710E-01
RMM:   5    -0.413172169196E+03    0.29493E-01   -0.14521E-02  4804   0.118E-01    0.445E-02
RMM:   6    -0.413172335123E+03   -0.16593E-03   -0.23763E-03  5813   0.465E-02    0.282E-02
RMM:   7    -0.413172340115E+03   -0.49915E-05   -0.34649E-04  5702   0.171E-02    0.178E-02
RMM:   8    -0.413172334891E+03    0.52239E-05   -0.63982E-05  5013   0.826E-03    0.908E-03
RMM:   9    -0.413172331133E+03    0.37583E-05   -0.13143E-05  3997   0.412E-03    0.663E-03
RMM:  10    -0.413172330502E+03    0.63067E-06   -0.16956E-06  2557   0.202E-03
   21 T=    62. E= -.41286646E+03 F= -.41317233E+03 E0= -.41315034E+03  EK= 0.30587E+00 SP= 0.00E+00 SK= 0.00E+00
       N       E                     dE             d eps       ncg     rms          rms(c)
RMM:   1    -0.413168402021E+03    0.39291E-02   -0.10288E+01  4300   0.751E-01    0.909E-01
RMM:   2    -0.413176100892E+03   -0.76989E-02   -0.12547E-01  4311   0.980E-02    0.651E-01
RMM:   3    -0.413176452991E+03   -0.35210E-03   -0.12583E-02  5085   0.660E-02    0.259E-01
RMM:   4    -0.413209673115E+03   -0.33220E-01   -0.46932E-02  5109   0.182E-01    0.784E-01
RMM:   5    -0.413173312044E+03    0.36361E-01   -0.15840E-02  4749   0.130E-01    0.567E-02
RMM:   6    -0.413173425330E+03   -0.11329E-03   -0.27148E-03  5646   0.511E-02    0.292E-02
RMM:   7    -0.413173433503E+03   -0.81734E-05   -0.39997E-04  5975   0.173E-02    0.187E-02
RMM:   8    -0.413173427860E+03    0.56437E-05   -0.70371E-05  5195   0.887E-03    0.835E-03
RMM:   9    -0.413173421021E+03    0.68387E-05   -0.11904E-05  3686   0.397E-03    0.413E-03
RMM:  10    -0.413173418406E+03    0.26152E-05   -0.25182E-06  2608   0.224E-03    0.287E-03
RMM:  11    -0.413173414866E+03    0.35396E-05   -0.11081E-06  2500   0.171E-03    0.147E-03
RMM:  12    -0.413173410957E+03    0.39089E-05   -0.70253E-07  2462   0.137E-03    0.450E-04
RMM:  13    -0.413173408913E+03    0.20444E-05   -0.34402E-07  2047   0.982E-04    0.284E-04
RMM:  14    -0.413173407502E+03    0.14111E-05   -0.19113E-07  1568   0.776E-04    0.182E-04
RMM:  15    -0.413173404872E+03    0.26294E-05   -0.14941E-07  1339   0.717E-04    0.982E-05
RMM:  16    -0.413173402517E+03    0.23556E-05   -0.11653E-07  1311   0.681E-04    0.116E-04
RMM:  17    -0.413173400571E+03    0.19457E-05   -0.85759E-08  1232   0.639E-04    0.697E-05
RMM:  18    -0.413173398333E+03    0.22382E-05   -0.74006E-08  1176   0.608E-04    0.377E-05
RMM:  19    -0.413173397410E+03    0.92240E-06   -0.34460E-08   861   0.545E-04
   22 T=    62. E= -.41286655E+03 F= -.41317340E+03 E0= -.41315145E+03  EK= 0.30684E+00 SP= 0.00E+00 SK= 0.00E+00
       N       E                     dE             d eps       ncg     rms          rms(c)
RMM:   1    -0.413169087997E+03    0.43103E-02   -0.10258E+01  4296   0.747E-01    0.911E-01
RMM:   2    -0.413176684883E+03   -0.75969E-02   -0.12463E-01  4278   0.998E-02    0.644E-01
RMM:   3    -0.413174602432E+03    0.20825E-02   -0.10576E-02  4888   0.483E-02    0.150E-01
RMM:   4    -0.413209591827E+03   -0.34989E-01   -0.36892E-02  5136   0.160E-01    0.778E-01
RMM:   5    -0.413173918792E+03    0.35673E-01   -0.17453E-02  4796   0.130E-01    0.488E-02
RMM:   6    -0.413174118729E+03   -0.19994E-03   -0.29306E-03  5788   0.516E-02    0.317E-02
RMM:   7    -0.413174117253E+03    0.14761E-05   -0.41033E-04  5716   0.186E-02    0.199E-02
RMM:   8    -0.413174107466E+03    0.97872E-05   -0.72612E-05  5137   0.884E-03    0.102E-02
RMM:   9    -0.413174099653E+03    0.78132E-05   -0.14974E-05  4145   0.438E-03    0.715E-03
RMM:  10    -0.413174094816E+03    0.48369E-05   -0.20200E-06  2568   0.217E-03    0.457E-03
RMM:  11    -0.413174090316E+03    0.44998E-05   -0.13800E-06  2526   0.185E-03    0.239E-03
RMM:  12    -0.413174083715E+03    0.66005E-05   -0.15271E-06  2526   0.193E-03    0.882E-04
RMM:  13    -0.413174081697E+03    0.20188E-05   -0.49946E-07  2327   0.126E-03    0.635E-04
RMM:  14    -0.413174081695E+03    0.21173E-08   -0.23177E-07  1860   0.846E-04
   23 T=    63. E= -.41286639E+03 F= -.41317408E+03 E0= -.41315219E+03  EK= 0.30770E+00 SP= 0.00E+00 SK= 0.00E+00
       N       E                     dE             d eps       ncg     rms          rms(c)
RMM:   1    -0.413172271069E+03    0.18106E-02   -0.10274E+01  4294   0.792E-01    0.892E-01
RMM:   2    -0.413178741978E+03   -0.64709E-02   -0.12702E-01  4272   0.103E-01    0.650E-01
RMM:   3    -0.413175880635E+03    0.28613E-02   -0.10404E-02  4739   0.470E-02    0.125E-01
RMM:   4    -0.413200846724E+03   -0.24966E-01   -0.25617E-02  5138   0.133E-01    0.659E-01
RMM:   5    -0.413175500863E+03    0.25346E-01   -0.12541E-02  4802   0.109E-01    0.431E-02
RMM:   6    -0.413175644207E+03   -0.14334E-03   -0.21235E-03  5823   0.431E-02    0.272E-02
RMM:   7    -0.413175647420E+03   -0.32130E-05   -0.28857E-04  5693   0.161E-02    0.161E-02
RMM:   8    -0.413175642085E+03    0.53357E-05   -0.60867E-05  4985   0.802E-03    0.921E-03
RMM:   9    -0.413175637040E+03    0.50450E-05   -0.12459E-05  4000   0.409E-03    0.678E-03
RMM:  10    -0.413175635287E+03    0.17526E-05   -0.16094E-06  2553   0.206E-03    0.433E-03
RMM:  11    -0.413175633093E+03    0.21941E-05   -0.15769E-06  2526   0.201E-03    0.205E-03
RMM:  12    -0.413175630452E+03    0.26409E-05   -0.11870E-06  2493   0.171E-03    0.706E-04
RMM:  13    -0.413175629787E+03    0.66511E-06   -0.39193E-07  2188   0.109E-03
   24 T=    63. E= -.41286670E+03 F= -.41317563E+03 E0= -.41315378E+03  EK= 0.30893E+00 SP= 0.00E+00 SK= 0.00E+00
       N       E                     dE             d eps       ncg     rms          rms(c)
RMM:   1    -0.413178491809E+03   -0.28614E-02   -0.10405E+01  4300   0.832E-01    0.907E-01
RMM:   2    -0.413179598440E+03   -0.11066E-02   -0.12989E-01  4273   0.106E-01    0.656E-01
RMM:   3    -0.413176807292E+03    0.27911E-02   -0.10549E-02  4726   0.455E-02    0.126E-01
RMM:   4    -0.413199216166E+03   -0.22409E-01   -0.22926E-02  5138   0.126E-01    0.626E-01
RMM:   5    -0.413176463756E+03    0.22752E-01   -0.11234E-02  4809   0.104E-01    0.424E-02
RMM:   6    -0.413176587032E+03   -0.12328E-03   -0.19341E-03  5827   0.407E-02    0.261E-02
RMM:   7    -0.413176587303E+03   -0.27045E-06   -0.22903E-04  5692   0.146E-02    0.134E-02
RMM:   8    -0.413176583506E+03    0.37968E-05   -0.49308E-05  4969   0.711E-03    0.908E-03
RMM:   9    -0.413176578479E+03    0.50269E-05   -0.11065E-05  3883   0.379E-03    0.684E-03
RMM:  10    -0.413176576075E+03    0.24041E-05   -0.15197E-06  2539   0.209E-03    0.436E-03
RMM:  11    -0.413176572889E+03    0.31856E-05   -0.15571E-06  2525   0.199E-03    0.220E-03
RMM:  12    -0.413176568558E+03    0.43311E-05   -0.12127E-06  2487   0.176E-03    0.731E-04
RMM:  13    -0.413176567597E+03    0.96092E-06   -0.39858E-07  2197   0.111E-03
   25 T=    63. E= -.41286648E+03 F= -.41317657E+03 E0= -.41315477E+03  EK= 0.31009E+00 SP= 0.00E+00 SK= 0.00E+00
       N       E                     dE             d eps       ncg     rms          rms(c)
RMM:   1    -0.413173161789E+03    0.34068E-02   -0.10342E+01  4297   0.764E-01    0.920E-01
RMM:   2    -0.413180369731E+03   -0.72079E-02   -0.12580E-01  4273   0.992E-02    0.649E-01
RMM:   3    -0.413178152766E+03    0.22170E-02   -0.10579E-02  4678   0.440E-02    0.130E-01
RMM:   4    -0.413196287854E+03   -0.18135E-01   -0.18544E-02  5144   0.114E-01    0.564E-01
RMM:   5    -0.413177905666E+03    0.18382E-01   -0.91767E-03  4816   0.931E-02    0.418E-02
RMM:   6    -0.413177985189E+03   -0.79523E-04   -0.15486E-03  5816   0.365E-02    0.247E-02
RMM:   7    -0.413177977244E+03    0.79456E-05   -0.17251E-04  5574   0.130E-02    0.111E-02
RMM:   8    -0.413177969102E+03    0.81423E-05   -0.27354E-05  4575   0.541E-03    0.756E-03
RMM:   9    -0.413177963243E+03    0.58584E-05   -0.32539E-06  2696   0.232E-03    0.469E-03
RMM:  10    -0.413177959525E+03    0.37183E-05   -0.96083E-07  2479   0.155E-03    0.319E-03
RMM:  11    -0.413177950716E+03    0.88092E-05   -0.17028E-06  2540   0.210E-03    0.165E-03
RMM:  12    -0.413177947195E+03    0.35206E-05   -0.63686E-07  2376   0.140E-03    0.757E-04
RMM:  13    -0.413177945201E+03    0.19940E-05   -0.25873E-07  1942   0.900E-04    0.420E-04
RMM:  14    -0.413177943031E+03    0.21704E-05   -0.14205E-07  1434   0.716E-04    0.244E-04
RMM:  15    -0.413177939396E+03    0.36344E-05   -0.13238E-07  1560   0.720E-04    0.224E-04
RMM:  16    -0.413177937474E+03    0.19223E-05   -0.66630E-08  1073   0.612E-04    0.147E-04
RMM:  17    -0.413177933965E+03    0.35089E-05   -0.78486E-08  1246   0.629E-04    0.145E-04
RMM:  18    -0.413177931567E+03    0.23977E-05   -0.49818E-08   941   0.565E-04    0.808E-05
RMM:  19    -0.413177930601E+03    0.96651E-06   -0.26899E-08   823   0.542E-04
   26 T=    63. E= -.41286645E+03 F= -.41317793E+03 E0= -.41315618E+03  EK= 0.31148E+00 SP= 0.00E+00 SK= 0.00E+00
       N       E                     dE             d eps       ncg     rms          rms(c)
RMM:   1    -0.413174533455E+03    0.33981E-02   -0.10305E+01  4294   0.780E-01    0.897E-01
RMM:   2    -0.413182355061E+03   -0.78216E-02   -0.12733E-01  4276   0.103E-01    0.651E-01
RMM:   3    -0.413180019150E+03    0.23359E-02   -0.10596E-02  4788   0.473E-02    0.131E-01
RMM:   4    -0.413206881394E+03   -0.26862E-01   -0.27634E-02  5141   0.138E-01    0.684E-01
RMM:   5    -0.413179573615E+03    0.27308E-01   -0.13537E-02  4798   0.114E-01    0.446E-02
RMM:   6    -0.413179723152E+03   -0.14954E-03   -0.23015E-03  5820   0.450E-02    0.285E-02
RMM:   7    -0.413179724784E+03   -0.16322E-05   -0.31271E-04  5694   0.167E-02    0.169E-02
RMM:   8    -0.413179718521E+03    0.62636E-05   -0.64861E-05  5009   0.829E-03    0.964E-03
RMM:   9    -0.413179712601E+03    0.59196E-05   -0.13250E-05  4082   0.420E-03    0.701E-03
RMM:  10    -0.413179710020E+03    0.25810E-05   -0.17067E-06  2558   0.210E-03    0.448E-03
RMM:  11    -0.413179707187E+03    0.28331E-05   -0.14637E-06  2519   0.194E-03    0.223E-03
RMM:  12    -0.413179703518E+03    0.36695E-05   -0.13115E-06  2498   0.180E-03    0.779E-04
RMM:  13    -0.413179702533E+03    0.98445E-06   -0.42195E-07  2242   0.114E-03
   27 T=    64. E= -.41286659E+03 F= -.41317970E+03 E0= -.41315800E+03  EK= 0.31311E+00 SP= 0.00E+00 SK= 0.00E+00
       N       E                     dE             d eps       ncg     rms          rms(c)
RMM:   1    -0.413177616099E+03    0.20874E-02   -0.10435E+01  4291   0.813E-01    0.906E-01
RMM:   2    -0.413183699684E+03   -0.60836E-02   -0.13385E-01  4269   0.108E-01    0.662E-01
RMM:   3    -0.413180966501E+03    0.27332E-02   -0.10705E-02  4544   0.459E-02    0.118E-01
RMM:   4    -0.413192762037E+03   -0.11796E-01   -0.12138E-02  5142   0.925E-02    0.457E-01
RMM:   5    -0.413180825682E+03    0.11936E-01   -0.60229E-03  4828   0.750E-02    0.379E-02
RMM:   6    -0.413180864959E+03   -0.39277E-04   -0.10038E-03  5844   0.295E-02    0.221E-02
RMM:   7    -0.413180870389E+03   -0.54295E-05   -0.18885E-04  5541   0.136E-02    0.145E-02
RMM:   8    -0.413180855834E+03    0.14555E-04   -0.31339E-05  4670   0.639E-03    0.665E-03
RMM:   9    -0.413180854538E+03    0.12962E-05   -0.64000E-06  3207   0.308E-03    0.524E-03
RMM:  10    -0.413180852278E+03    0.22599E-05   -0.12076E-06  2502   0.193E-03    0.302E-03
RMM:  11    -0.413180849543E+03    0.27346E-05   -0.90209E-07  2479   0.159E-03    0.151E-03
RMM:  12    -0.413180846521E+03    0.30224E-05   -0.58395E-07  2346   0.124E-03    0.578E-04
RMM:  13    -0.413180845532E+03    0.98922E-06   -0.23818E-07  1881   0.856E-04
   28 T=    64. E= -.41286627E+03 F= -.41318085E+03 E0= -.41315920E+03  EK= 0.31458E+00 SP= 0.00E+00 SK= 0.00E+00
       N       E                     dE             d eps       ncg     rms          rms(c)
RMM:   1    -0.413178164878E+03    0.26816E-02   -0.10445E+01  4291   0.789E-01    0.928E-01
RMM:   2    -0.413185338495E+03   -0.71736E-02   -0.12812E-01  4270   0.106E-01    0.656E-01
RMM:   3    -0.413182955068E+03    0.23834E-02   -0.11061E-02  4478   0.484E-02    0.124E-01
RMM:   4    -0.413191801506E+03   -0.88464E-02   -0.92566E-03  5150   0.805E-02    0.397E-01
RMM:   5    -0.413182857851E+03    0.89437E-02   -0.45777E-03  4832   0.654E-02    0.386E-02
RMM:   6    -0.413182879421E+03   -0.21570E-04   -0.83460E-04  5822   0.269E-02    0.230E-02
RMM:   7    -0.413182876598E+03    0.28226E-05   -0.20380E-04  5410   0.144E-02    0.154E-02
RMM:   8    -0.413182859741E+03    0.16858E-04   -0.23700E-05  4462   0.602E-03    0.669E-03
RMM:   9    -0.413182856187E+03    0.35539E-05   -0.47631E-06  2972   0.275E-03    0.491E-03
RMM:  10    -0.413182850479E+03    0.57081E-05   -0.14218E-06  2495   0.203E-03    0.268E-03
RMM:  11    -0.413182844045E+03    0.64331E-05   -0.92304E-07  2473   0.164E-03    0.131E-03
RMM:  12    -0.413182838593E+03    0.54529E-05   -0.47954E-07  2299   0.119E-03    0.612E-04
RMM:  13    -0.413182836354E+03    0.22384E-05   -0.23227E-07  1861   0.848E-04    0.293E-04
RMM:  14    -0.413182833336E+03    0.30178E-05   -0.13921E-07  1455   0.718E-04    0.193E-04
RMM:  15    -0.413182828099E+03    0.52370E-05   -0.11330E-07  1376   0.692E-04    0.105E-04
RMM:  16    -0.413182826417E+03    0.16825E-05   -0.52960E-08   987   0.602E-04    0.843E-05
RMM:  17    -0.413182822355E+03    0.40614E-05   -0.66773E-08  1181   0.626E-04    0.526E-05
RMM:  18    -0.413182819914E+03    0.24413E-05   -0.46126E-08  1059   0.577E-04    0.253E-05
RMM:  19    -0.413182819530E+03    0.38403E-06   -0.15499E-08   712   0.514E-04
   29 T=    64. E= -.41286651E+03 F= -.41318282E+03 E0= -.41316122E+03  EK= 0.31631E+00 SP= 0.00E+00 SK= 0.00E+00
       N       E                     dE             d eps       ncg     rms          rms(c)
RMM:   1    -0.413179654073E+03    0.31658E-02   -0.10391E+01  4286   0.798E-01    0.907E-01
RMM:   2    -0.413187732576E+03   -0.80785E-02   -0.12912E-01  4263   0.112E-01    0.654E-01
RMM:   3    -0.413184819678E+03    0.29129E-02   -0.10852E-02  4492   0.484E-02    0.118E-01
RMM:   4    -0.413194102730E+03   -0.92831E-02   -0.96501E-03  5153   0.828E-02    0.406E-01
RMM:   5    -0.413184742001E+03    0.93607E-02   -0.47519E-03  4825   0.668E-02    0.381E-02
RMM:   6    -0.413184768834E+03   -0.26833E-04   -0.85220E-04  5822   0.275E-02    0.237E-02
RMM:   7    -0.413184767742E+03    0.10920E-05   -0.21783E-04  5399   0.146E-02    0.157E-02
RMM:   8    -0.413184751805E+03    0.15937E-04   -0.24573E-05  4509   0.612E-03    0.673E-03
RMM:   9    -0.413184749550E+03    0.22551E-05   -0.46579E-06  2966   0.273E-03    0.488E-03
RMM:  10    -0.413184745939E+03    0.36103E-05   -0.13623E-06  2490   0.194E-03    0.269E-03
RMM:  11    -0.413184742084E+03    0.38556E-05   -0.89005E-07  2469   0.158E-03    0.132E-03
RMM:  12    -0.413184738639E+03    0.34445E-05   -0.50166E-07  2302   0.120E-03    0.650E-04
RMM:  13    -0.413184737168E+03    0.14716E-05   -0.22779E-07  1844   0.846E-04    0.289E-04
RMM:  14    -0.413184735269E+03    0.18984E-05   -0.12841E-07  1364   0.701E-04    0.178E-04
RMM:  15    -0.413184732369E+03    0.28999E-05   -0.91245E-08  1200   0.661E-04    0.796E-05
RMM:  16    -0.413184730941E+03    0.14283E-05   -0.50646E-08   974   0.610E-04    0.659E-05
RMM:  17    -0.413184728849E+03    0.20923E-05   -0.48012E-08  1004   0.605E-04    0.439E-05
RMM:  18    -0.413184726507E+03    0.23419E-05   -0.46366E-08  1055   0.597E-04    0.272E-05
RMM:  19    -0.413184726001E+03    0.50610E-06   -0.15184E-08   703   0.537E-04
   30 T=    65. E= -.41286670E+03 F= -.41318473E+03 E0= -.41316318E+03  EK= 0.31802E+00 SP= 0.00E+00 SK= 0.00E+00
       N       E                     dE             d eps       ncg     rms          rms(c)
RMM:   1    -0.413183430646E+03    0.12959E-02   -0.10525E+01  4291   0.842E-01    0.908E-01
RMM:   2    -0.413190116063E+03   -0.66854E-02   -0.13698E-01  4276   0.120E-01    0.667E-01
RMM:   3    -0.413186413273E+03    0.37028E-02   -0.11165E-02  4392   0.546E-02    0.114E-01
RMM:   4    -0.413192569256E+03   -0.61560E-02   -0.65829E-03  5161   0.684E-02    0.330E-01
RMM:   5    -0.413186424592E+03    0.61447E-02   -0.31206E-03  4825   0.542E-02    0.364E-02
RMM:   6    -0.413186443796E+03   -0.19204E-04   -0.61495E-04  5799   0.237E-02    0.236E-02
RMM:   7    -0.413186439818E+03    0.39785E-05   -0.20673E-04  5302   0.142E-02    0.149E-02
RMM:   8    -0.413186428007E+03    0.11811E-04   -0.17289E-05  4222   0.547E-03    0.633E-03
RMM:   9    -0.413186426846E+03    0.11612E-05   -0.30073E-06  2728   0.233E-03    0.417E-03
RMM:  10    -0.413186424890E+03    0.19561E-05   -0.12887E-06  2489   0.180E-03    0.220E-03
RMM:  11    -0.413186422980E+03    0.19095E-05   -0.76109E-07  2443   0.143E-03    0.104E-03
RMM:  12    -0.413186421251E+03    0.17295E-05   -0.39398E-07  2156   0.105E-03    0.493E-04
RMM:  13    -0.413186420139E+03    0.11122E-05   -0.19677E-07  1624   0.781E-04    0.249E-04
RMM:  14    -0.413186418694E+03    0.14445E-05   -0.11426E-07  1207   0.679E-04    0.153E-04
RMM:  15    -0.413186416530E+03    0.21638E-05   -0.89303E-08  1117   0.655E-04    0.754E-05
RMM:  16    -0.413186415561E+03    0.96953E-06   -0.48015E-08   922   0.601E-04
   31 T=    65. E= -.41286659E+03 F= -.41318642E+03 E0= -.41316492E+03  EK= 0.31983E+00 SP= 0.00E+00 SK= 0.00E+00
       N       E                     dE             d eps       ncg     rms          rms(c)
RMM:   1    -0.413184515509E+03    0.19010E-02   -0.10556E+01  4291   0.822E-01    0.933E-01
RMM:   2    -0.413192072788E+03   -0.75573E-02   -0.13179E-01  4281   0.125E-01    0.663E-01
RMM:   3    -0.413189056978E+03    0.30158E-02   -0.11398E-02  4355   0.545E-02    0.120E-01
RMM:   4    -0.413192256420E+03   -0.31994E-02   -0.38057E-03  5150   0.526E-02    0.239E-01
RMM:   5    -0.413189092699E+03    0.31637E-02   -0.16186E-03  4824   0.396E-02    0.375E-02
RMM:   6    -0.413189104835E+03   -0.12136E-04   -0.45541E-04  5641   0.211E-02    0.268E-02
RMM:   7    -0.413189078234E+03    0.26601E-04   -0.20269E-04  5103   0.143E-02    0.145E-02
RMM:   8    -0.413189070409E+03    0.78250E-05   -0.16353E-05  4129   0.505E-03    0.590E-03
RMM:   9    -0.413189068115E+03    0.22946E-05   -0.21777E-06  2559   0.209E-03    0.359E-03
RMM:  10    -0.413189061807E+03    0.63076E-05   -0.94336E-07  2474   0.160E-03    0.184E-03
RMM:  11    -0.413189056982E+03    0.48250E-05   -0.54057E-07  2303   0.117E-03    0.817E-04
RMM:  12    -0.413189052098E+03    0.48844E-05   -0.31349E-07  2027   0.943E-04    0.311E-04
RMM:  13    -0.413189049114E+03    0.29839E-05   -0.15390E-07  1448   0.731E-04    0.201E-04
RMM:  14    -0.413189045537E+03    0.35771E-05   -0.89496E-08  1073   0.654E-04    0.137E-04
RMM:  15    -0.413189040756E+03    0.47807E-05   -0.86753E-08  1222   0.658E-04    0.767E-05
RMM:  16    -0.413189038865E+03    0.18912E-05   -0.48715E-08   984   0.590E-04    0.690E-05
RMM:  17    -0.413189035451E+03    0.34138E-05   -0.56490E-08  1154   0.600E-04    0.357E-05
RMM:  18    -0.413189034043E+03    0.14074E-05   -0.26755E-08   809   0.530E-04    0.233E-05
RMM:  19    -0.413189033677E+03    0.36630E-06   -0.13145E-08   648   0.505E-04
   32 T=    66. E= -.41286695E+03 F= -.41318903E+03 E0= -.41316758E+03  EK= 0.32209E+00 SP= 0.00E+00 SK= 0.00E+00
       N       E                     dE             d eps       ncg     rms          rms(c)
RMM:   1    -0.413186381467E+03    0.26526E-02   -0.10521E+01  4289   0.838E-01    0.921E-01
RMM:   2    -0.413193912295E+03   -0.75308E-02   -0.13264E-01  4277   0.125E-01    0.659E-01
RMM:   3    -0.413190919369E+03    0.29929E-02   -0.11139E-02  4248   0.514E-02    0.119E-01
RMM:   4    -0.413191294198E+03   -0.37483E-03   -0.11448E-03  5004   0.259E-02    0.779E-02
RMM:   5    -0.413191028705E+03    0.26549E-03   -0.20926E-04  4753   0.146E-02    0.386E-02
RMM:   6    -0.413191025332E+03    0.33734E-05   -0.26198E-04  5313   0.161E-02    0.268E-02
RMM:   7    -0.413190992903E+03    0.32429E-04   -0.17093E-04  4818   0.127E-02    0.150E-02
RMM:   8    -0.413190988657E+03    0.42459E-05   -0.16436E-05  4010   0.460E-03    0.533E-03
RMM:   9    -0.413190987401E+03    0.12560E-05   -0.27504E-06  2367   0.203E-03    0.214E-03
RMM:  10    -0.413190980234E+03    0.71675E-05   -0.87045E-07  2300   0.140E-03    0.803E-04
RMM:  11    -0.413190976467E+03    0.37664E-05   -0.27148E-07  1769   0.871E-04    0.351E-04
RMM:  12    -0.413190972630E+03    0.38367E-05   -0.16697E-07  1440   0.751E-04    0.193E-04
RMM:  13    -0.413190969144E+03    0.34866E-05   -0.97890E-08  1111   0.662E-04    0.130E-04
RMM:  14    -0.413190964793E+03    0.43504E-05   -0.74072E-08  1001   0.632E-04    0.927E-05
RMM:  15    -0.413190960626E+03    0.41673E-05   -0.60238E-08   955   0.609E-04    0.465E-05
RMM:  16    -0.413190958205E+03    0.24208E-05   -0.36142E-08   780   0.561E-04    0.412E-05
RMM:  17    -0.413190957227E+03    0.97842E-06   -0.16415E-08   566   0.523E-04
   33 T=    66. E= -.41286676E+03 F= -.41319096E+03 E0= -.41316956E+03  EK= 0.32420E+00 SP= 0.00E+00 SK= 0.00E+00
       N       E                     dE             d eps       ncg     rms          rms(c)
RMM:   1    -0.413197960630E+03   -0.70024E-02   -0.10712E+01  4301   0.920E-01    0.912E-01
RMM:   2    -0.413196535263E+03    0.14254E-02   -0.15404E-01  4277   0.136E-01    0.674E-01
RMM:   3    -0.413193443477E+03    0.30918E-02   -0.10612E-02  4244   0.566E-02    0.136E-01
RMM:   4    -0.413194170849E+03   -0.72737E-03   -0.17686E-03  5061   0.339E-02    0.115E-01
RMM:   5    -0.413193496741E+03    0.67411E-03   -0.38553E-04  4754   0.199E-02    0.363E-02
RMM:   6    -0.413193500316E+03   -0.35756E-05   -0.26376E-04  5424   0.163E-02    0.252E-02
RMM:   7    -0.413193477194E+03    0.23122E-04   -0.17526E-04  4883   0.128E-02    0.154E-02
RMM:   8    -0.413193472401E+03    0.47929E-05   -0.15523E-05  3718   0.442E-03    0.496E-03
RMM:   9    -0.413193471912E+03    0.48909E-06   -0.21724E-06  2447   0.200E-03
   34 T=    67. E= -.41286676E+03 F= -.41319347E+03 E0= -.41317212E+03  EK= 0.32671E+00 SP= 0.00E+00 SK= 0.00E+00
       N       E                     dE             d eps       ncg     rms          rms(c)
RMM:   1    -0.413194656216E+03   -0.11838E-02   -0.10732E+01  4303   0.897E-01    0.938E-01
RMM:   2    -0.413199161759E+03   -0.45055E-02   -0.13833E-01  4273   0.130E-01    0.673E-01
RMM:   3    -0.413196200950E+03    0.29608E-02   -0.11493E-02  4355   0.575E-02    0.121E-01
RMM:   4    -0.413197638442E+03   -0.14375E-02   -0.22761E-03  5154   0.393E-02    0.160E-01
RMM:   5    -0.413196264041E+03    0.13744E-02   -0.73911E-04  4819   0.273E-02    0.389E-02
RMM:   6    -0.413196258226E+03    0.58151E-05   -0.30993E-04  5485   0.178E-02    0.290E-02
RMM:   7    -0.413196231757E+03    0.26469E-04   -0.20265E-04  4904   0.129E-02    0.164E-02
RMM:   8    -0.413196225393E+03    0.63641E-05   -0.17533E-05  4005   0.470E-03    0.593E-03
RMM:   9    -0.413196223665E+03    0.17279E-05   -0.28715E-06  2495   0.203E-03    0.277E-03
RMM:  10    -0.413196215266E+03    0.83991E-05   -0.96984E-07  2415   0.155E-03    0.123E-03
RMM:  11    -0.413196210246E+03    0.50198E-05   -0.41839E-07  2067   0.102E-03    0.438E-04
RMM:  12    -0.413196205422E+03    0.48242E-05   -0.23414E-07  1735   0.833E-04    0.250E-04
RMM:  13    -0.413196201641E+03    0.37805E-05   -0.12347E-07  1251   0.686E-04    0.170E-04
RMM:  14    -0.413196194858E+03    0.67831E-05   -0.11964E-07  1226   0.682E-04    0.121E-04
RMM:  15    -0.413196189271E+03    0.55870E-05   -0.92806E-08  1229   0.641E-04    0.899E-05
RMM:  16    -0.413196186726E+03    0.25447E-05   -0.46573E-08   866   0.556E-04    0.541E-05
RMM:  17    -0.413196184701E+03    0.20256E-05   -0.31823E-08   727   0.532E-04    0.283E-05
RMM:  18    -0.413196184049E+03    0.65235E-06   -0.16572E-08   589   0.510E-04
   35 T=    67. E= -.41286675E+03 F= -.41319618E+03 E0= -.41317487E+03  EK= 0.32944E+00 SP= 0.00E+00 SK= 0.00E+00
       N       E                     dE             d eps       ncg     rms          rms(c)
RMM:   1    -0.413196412372E+03   -0.22767E-03   -0.10726E+01  4300   0.923E-01    0.938E-01
RMM:   2    -0.413200966014E+03   -0.45536E-02   -0.13715E-01  4251   0.131E-01    0.667E-01
RMM:   3    -0.413198343964E+03    0.26221E-02   -0.11687E-02  4515   0.599E-02    0.132E-01
RMM:   4    -0.413211324625E+03   -0.12981E-01   -0.13211E-02  5170   0.968E-02    0.480E-01
RMM:   5    -0.413198286127E+03    0.13038E-01   -0.66221E-03  4814   0.797E-02    0.420E-02
RMM:   6    -0.413198287102E+03   -0.97483E-06   -0.12058E-03  5811   0.335E-02    0.282E-02
RMM:   7    -0.413198286396E+03    0.70622E-06   -0.28758E-04  5443   0.165E-02    0.175E-02
RMM:   8    -0.413198268681E+03    0.17715E-04   -0.36147E-05  4817   0.705E-03    0.771E-03
RMM:   9    -0.413198265661E+03    0.30201E-05   -0.65178E-06  3170   0.316E-03    0.530E-03
RMM:  10    -0.413198259903E+03    0.57582E-05   -0.13389E-06  2503   0.204E-03    0.290E-03
RMM:  11    -0.413198253994E+03    0.59090E-05   -0.97957E-07  2488   0.163E-03    0.149E-03
RMM:  12    -0.413198247371E+03    0.66232E-05   -0.67952E-07  2414   0.135E-03    0.744E-04
RMM:  13    -0.413198244660E+03    0.27108E-05   -0.28542E-07  2018   0.933E-04    0.376E-04
RMM:  14    -0.413198242498E+03    0.21621E-05   -0.14040E-07  1391   0.710E-04    0.241E-04
RMM:  15    -0.413198238208E+03    0.42898E-05   -0.94059E-08  1220   0.668E-04    0.957E-05
RMM:  16    -0.413198235315E+03    0.28928E-05   -0.58509E-08  1006   0.623E-04    0.738E-05
RMM:  17    -0.413198232611E+03    0.27038E-05   -0.47118E-08  1017   0.605E-04    0.662E-05
RMM:  18    -0.413198228736E+03    0.38757E-05   -0.51725E-08  1175   0.611E-04    0.430E-05
RMM:  19    -0.413198227608E+03    0.11281E-05   -0.22281E-08   793   0.535E-04    0.285E-05
RMM:  20    -0.413198227245E+03    0.36235E-06   -0.11871E-08   665   0.517E-04
   36 T=    68. E= -.41286629E+03 F= -.41319823E+03 E0= -.41317696E+03  EK= 0.33194E+00 SP= 0.00E+00 SK= 0.00E+00
       N       E                     dE             d eps       ncg     rms          rms(c)
RMM:   1    -0.413212074042E+03   -0.13846E-01   -0.10916E+01  4303   0.104E+00    0.921E-01
RMM:   2    -0.413204856343E+03    0.72177E-02   -0.15940E-01  4251   0.144E-01    0.679E-01
RMM:   3    -0.413201474301E+03    0.33820E-02   -0.10928E-02  4654   0.586E-02    0.155E-01
RMM:   4    -0.413226596522E+03   -0.25122E-01   -0.25490E-02  5162   0.134E-01    0.662E-01
RMM:   5    -0.413201238399E+03    0.25358E-01   -0.12781E-02  4802   0.110E-01    0.461E-02
RMM:   6    -0.413201268719E+03   -0.30320E-04   -0.21537E-03  5849   0.437E-02    0.291E-02
RMM:   7    -0.413201280041E+03   -0.11322E-04   -0.29487E-04  5651   0.162E-02    0.157E-02
RMM:   8    -0.413201270925E+03    0.91165E-05   -0.56304E-05  4978   0.789E-03    0.927E-03
RMM:   9    -0.413201269636E+03    0.12891E-05   -0.15905E-05  4334   0.455E-03    0.676E-03
RMM:  10    -0.413201265773E+03    0.38627E-05   -0.19922E-06  2596   0.233E-03    0.393E-03
RMM:  11    -0.413201263495E+03    0.22780E-05   -0.11048E-06  2495   0.170E-03    0.241E-03
RMM:  12    -0.413201258053E+03    0.54421E-05   -0.15951E-06  2524   0.200E-03    0.113E-03
RMM:  13    -0.413201255598E+03    0.24550E-05   -0.54637E-07  2334   0.130E-03    0.670E-04
RMM:  14    -0.413201255339E+03    0.25887E-06   -0.22863E-07  1853   0.846E-04
   37 T=    68. E= -.41286657E+03 F= -.41320126E+03 E0= -.41318003E+03  EK= 0.33469E+00 SP= 0.00E+00 SK= 0.00E+00
       N       E                     dE             d eps       ncg     rms          rms(c)
RMM:   1    -0.413221261639E+03   -0.20006E-01   -0.11085E+01  4308   0.108E+00    0.941E-01
RMM:   2    -0.413207455519E+03    0.13806E-01   -0.16513E-01  4254   0.134E-01    0.685E-01
RMM:   3    -0.413203973899E+03    0.34816E-02   -0.10993E-02  4770   0.539E-02    0.173E-01
RMM:   4    -0.413238335625E+03   -0.34362E-01   -0.35157E-02  5154   0.157E-01    0.772E-01
RMM:   5    -0.413203544058E+03    0.34792E-01   -0.17545E-02  4801   0.129E-01    0.502E-02
RMM:   6    -0.413203609264E+03   -0.65206E-04   -0.28988E-03  5844   0.505E-02    0.315E-02
RMM:   7    -0.413203621573E+03   -0.12309E-04   -0.36010E-04  5723   0.175E-02    0.165E-02
RMM:   8    -0.413203613417E+03    0.81561E-05   -0.60378E-05  5008   0.800E-03    0.984E-03
RMM:   9    -0.413203611513E+03    0.19042E-05   -0.21380E-05  4568   0.498E-03    0.737E-03
RMM:  10    -0.413203605544E+03    0.59691E-05   -0.27981E-06  2664   0.262E-03    0.428E-03
RMM:  11    -0.413203602226E+03    0.33176E-05   -0.13595E-06  2497   0.189E-03    0.266E-03
RMM:  12    -0.413203593948E+03    0.82777E-05   -0.17927E-06  2535   0.219E-03    0.122E-03
RMM:  13    -0.413203590328E+03    0.36199E-05   -0.65452E-07  2387   0.143E-03    0.809E-04
RMM:  14    -0.413203590119E+03    0.20923E-06   -0.25863E-07  2003   0.915E-04
   38 T=    69. E= -.41286640E+03 F= -.41320359E+03 E0= -.41318241E+03  EK= 0.33719E+00 SP= 0.00E+00 SK= 0.00E+00
       N       E                     dE             d eps       ncg     rms          rms(c)
RMM:   1    -0.413204545790E+03   -0.95546E-03   -0.10908E+01  4305   0.102E+00    0.955E-01
RMM:   2    -0.413209655778E+03   -0.51100E-02   -0.14300E-01  4257   0.124E-01    0.677E-01
RMM:   3    -0.413206968027E+03    0.26878E-02   -0.12350E-02  4966   0.565E-02    0.177E-01
RMM:   4    -0.413251662394E+03   -0.44694E-01   -0.47789E-02  5133   0.182E-01    0.878E-01
RMM:   5    -0.413206130188E+03    0.45532E-01   -0.22541E-02  4792   0.147E-01    0.554E-02
RMM:   6    -0.413206238348E+03   -0.10816E-03   -0.36571E-03  5821   0.572E-02    0.338E-02
RMM:   7    -0.413206249364E+03   -0.11016E-04   -0.43040E-04  5699   0.190E-02    0.175E-02
RMM:   8    -0.413206241520E+03    0.78438E-05   -0.54932E-05  4850   0.730E-03    0.906E-03
RMM:   9    -0.413206234093E+03    0.74267E-05   -0.14479E-05  3927   0.399E-03    0.614E-03
RMM:  10    -0.413206230510E+03    0.35839E-05   -0.38812E-06  2827   0.259E-03    0.420E-03
RMM:  11    -0.413206224039E+03    0.64707E-05   -0.13671E-06  2492   0.200E-03    0.241E-03
RMM:  12    -0.413206212232E+03    0.11807E-04   -0.14572E-06  2503   0.201E-03    0.947E-04
RMM:  13    -0.413206208760E+03    0.34715E-05   -0.49181E-07  2384   0.129E-03    0.705E-04
RMM:  14    -0.413206208563E+03    0.19757E-06   -0.21831E-07  1915   0.849E-04
   39 T=    69. E= -.41286645E+03 F= -.41320621E+03 E0= -.41318507E+03  EK= 0.33976E+00 SP= 0.00E+00 SK= 0.00E+00
       N       E                     dE             d eps       ncg     rms          rms(c)
RMM:   1    -0.413227677117E+03   -0.21468E-01   -0.11112E+01  4311   0.117E+00    0.932E-01
RMM:   2    -0.413213227454E+03    0.14450E-01   -0.16700E-01  4264   0.133E-01    0.684E-01
RMM:   3    -0.413210319391E+03    0.29081E-02   -0.11389E-02  5012   0.577E-02    0.210E-01
RMM:   4    -0.413264075459E+03   -0.53756E-01   -0.58905E-02  5131   0.202E-01    0.961E-01
RMM:   5    -0.413209047946E+03    0.55028E-01   -0.27077E-02  4782   0.162E-01    0.592E-02
RMM:   6    -0.413209201462E+03   -0.15352E-03   -0.43765E-03  5816   0.626E-02    0.346E-02
RMM:   7    -0.413209218188E+03   -0.16726E-04   -0.51773E-04  5800   0.202E-02    0.200E-02
RMM:   8    -0.413209219929E+03   -0.17410E-05   -0.11001E-04  5239   0.101E-02    0.131E-02
RMM:   9    -0.413209207604E+03    0.12325E-04   -0.29383E-05  4729   0.600E-03    0.696E-03
RMM:  10    -0.413209203197E+03    0.44070E-05   -0.48756E-06  2860   0.300E-03    0.432E-03
RMM:  11    -0.413209199474E+03    0.37229E-05   -0.16577E-06  2507   0.211E-03    0.255E-03
RMM:  12    -0.413209192196E+03    0.72779E-05   -0.14093E-06  2505   0.199E-03    0.880E-04
RMM:  13    -0.413209188377E+03    0.38185E-05   -0.60778E-07  2404   0.137E-03    0.619E-04
RMM:  14    -0.413209187530E+03    0.84743E-06   -0.26989E-07  2004   0.919E-04
   40 T=    70. E= -.41286679E+03 F= -.41320919E+03 E0= -.41318808E+03  EK= 0.34240E+00 SP= 0.00E+00 SK= 0.00E+00
       N       E                     dE             d eps       ncg     rms          rms(c)
RMM:   1    -0.413226993061E+03   -0.17805E-01   -0.11204E+01  4310   0.119E+00    0.944E-01
RMM:   2    -0.413215503294E+03    0.11490E-01   -0.17266E-01  4269   0.139E-01    0.695E-01
RMM:   3    -0.413213108560E+03    0.23947E-02   -0.12153E-02  5035   0.630E-02    0.240E-01
RMM:   4    -0.413269173013E+03   -0.56064E-01   -0.64720E-02  5125   0.212E-01    0.985E-01
RMM:   5    -0.413211163003E+03    0.58010E-01   -0.27947E-02  4772   0.166E-01    0.621E-02
RMM:   6    -0.413211320889E+03   -0.15789E-03   -0.46306E-03  5800   0.642E-02    0.354E-02
RMM:   7    -0.413211337877E+03   -0.16988E-04   -0.57050E-04  5845   0.211E-02    0.225E-02
RMM:   8    -0.413211338574E+03   -0.69668E-06   -0.13055E-04  5267   0.112E-02    0.140E-02
RMM:   9    -0.413211324697E+03    0.13877E-04   -0.27352E-05  4663   0.612E-03    0.644E-03
RMM:  10    -0.413211320583E+03    0.41148E-05   -0.58861E-06  3030   0.305E-03    0.405E-03
RMM:  11    -0.413211317156E+03    0.34268E-05   -0.15475E-06  2507   0.206E-03    0.237E-03
RMM:  12    -0.413211310871E+03    0.62851E-05   -0.12087E-06  2489   0.185E-03    0.795E-04
RMM:  13    -0.413211307281E+03    0.35895E-05   -0.56469E-07  2392   0.130E-03    0.511E-04
RMM:  14    -0.413211306242E+03    0.10388E-05   -0.26395E-07  1981   0.905E-04    0.347E-04
RMM:  15    -0.413211303924E+03    0.23182E-05   -0.14305E-07  1462   0.724E-04    0.166E-04
RMM:  16    -0.413211300000E+03    0.39243E-05   -0.10720E-07  1266   0.683E-04    0.146E-04
RMM:  17    -0.413211298288E+03    0.17117E-05   -0.60758E-08  1024   0.619E-04    0.840E-05
RMM:  18    -0.413211295102E+03    0.31860E-05   -0.61921E-08  1172   0.633E-04    0.763E-05
RMM:  19    -0.413211293109E+03    0.19933E-05   -0.39061E-08  1013   0.592E-04    0.377E-05
RMM:  20    -0.413211292286E+03    0.82315E-06   -0.24578E-08   864   0.559E-04
   41 T=    70. E= -.41286661E+03 F= -.41321129E+03 E0= -.41319022E+03  EK= 0.34468E+00 SP= 0.00E+00 SK= 0.00E+00
       N       E                     dE             d eps       ncg     rms          rms(c)
RMM:   1    -0.413217974222E+03   -0.66811E-02   -0.11106E+01  4311   0.118E+00    0.968E-01
RMM:   2    -0.413217500436E+03    0.47379E-03   -0.14961E-01  4297   0.134E-01    0.687E-01
RMM:   3    -0.413217488187E+03    0.12249E-04   -0.14991E-02  5073   0.755E-02    0.287E-01
RMM:   4    -0.413255347740E+03   -0.37860E-01   -0.53329E-02  5092   0.194E-01    0.838E-01
RMM:   5    -0.413213931901E+03    0.41416E-01   -0.18463E-02  4741   0.139E-01    0.597E-02
RMM:   6    -0.413213993976E+03   -0.62075E-04   -0.32307E-03  5759   0.542E-02    0.347E-02
RMM:   7    -0.413213998929E+03   -0.49531E-05   -0.45636E-04  5750   0.195E-02    0.221E-02
RMM:   8    -0.413213995044E+03    0.38853E-05   -0.12282E-04  5202   0.113E-02    0.126E-02
RMM:   9    -0.413213981008E+03    0.14035E-04   -0.20199E-05  4435   0.561E-03    0.528E-03
RMM:  10    -0.413213975746E+03    0.52620E-05   -0.43836E-06  2865   0.269E-03    0.335E-03
RMM:  11    -0.413213970588E+03    0.51582E-05   -0.12247E-06  2492   0.188E-03    0.182E-03
RMM:  12    -0.413213962524E+03    0.80639E-05   -0.82522E-07  2463   0.157E-03    0.679E-04
RMM:  13    -0.413213958044E+03    0.44805E-05   -0.39641E-07  2219   0.110E-03    0.345E-04
RMM:  14    -0.413213956019E+03    0.20248E-05   -0.20768E-07  1753   0.817E-04    0.235E-04
RMM:  15    -0.413213951251E+03    0.47679E-05   -0.12883E-07  1362   0.716E-04    0.130E-04
RMM:  16    -0.413213948107E+03    0.31445E-05   -0.83591E-08  1178   0.655E-04    0.106E-04
RMM:  17    -0.413213944978E+03    0.31290E-05   -0.64138E-08  1132   0.632E-04    0.726E-05
RMM:  18    -0.413213941946E+03    0.30311E-05   -0.52455E-08  1125   0.614E-04    0.451E-05
RMM:  19    -0.413213939417E+03    0.25290E-05   -0.42617E-08  1103   0.596E-04    0.339E-05
RMM:  20    -0.413213939089E+03    0.32845E-06   -0.17900E-08   745   0.536E-04
   42 T=    71. E= -.41286692E+03 F= -.41321394E+03 E0= -.41319290E+03  EK= 0.34702E+00 SP= 0.00E+00 SK= 0.00E+00
       N       E                     dE             d eps       ncg     rms          rms(c)
RMM:   1    -0.413236672185E+03   -0.22733E-01   -0.11218E+01  4312   0.134E+00    0.945E-01
RMM:   2    -0.413219806920E+03    0.16865E-01   -0.16733E-01  4296   0.149E-01    0.689E-01
RMM:   3    -0.413220517233E+03   -0.71031E-03   -0.14781E-02  5081   0.806E-02    0.323E-01
RMM:   4    -0.413257056141E+03   -0.36539E-01   -0.55066E-02  5090   0.198E-01    0.835E-01
RMM:   5    -0.413216072537E+03    0.40984E-01   -0.18004E-02  4727   0.139E-01    0.608E-02
RMM:   6    -0.413216131865E+03   -0.59328E-04   -0.31699E-03  5751   0.538E-02    0.344E-02
RMM:   7    -0.413216136567E+03   -0.47026E-05   -0.45546E-04  5770   0.194E-02    0.227E-02
RMM:   8    -0.413216133034E+03    0.35335E-05   -0.12099E-04  5187   0.113E-02    0.120E-02
RMM:   9    -0.413216120878E+03    0.12155E-04   -0.20698E-05  4466   0.566E-03    0.476E-03
RMM:  10    -0.413216117470E+03    0.34080E-05   -0.42466E-06  2831   0.262E-03    0.304E-03
RMM:  11    -0.413216113347E+03    0.41235E-05   -0.12771E-06  2497   0.187E-03    0.164E-03
RMM:  12    -0.413216107846E+03    0.55011E-05   -0.74635E-07  2445   0.147E-03    0.603E-04
RMM:  13    -0.413216104715E+03    0.31306E-05   -0.36894E-07  2095   0.103E-03    0.291E-04
RMM:  14    -0.413216102632E+03    0.20836E-05   -0.19988E-07  1594   0.797E-04    0.188E-04
RMM:  15    -0.413216098514E+03    0.41176E-05   -0.14115E-07  1323   0.724E-04    0.111E-04
RMM:  16    -0.413216096483E+03    0.20309E-05   -0.88418E-08  1145   0.662E-04    0.782E-05
RMM:  17    -0.413216093835E+03    0.26477E-05   -0.73290E-08  1187   0.651E-04    0.522E-05
RMM:  18    -0.413216091415E+03    0.24201E-05   -0.56389E-08  1121   0.619E-04    0.354E-05
RMM:  19    -0.413216089780E+03    0.16352E-05   -0.39331E-08   989   0.579E-04    0.222E-05
RMM:  20    -0.413216089334E+03    0.44578E-06   -0.19207E-08   746   0.544E-04
   43 T=    71. E= -.41286705E+03 F= -.41321609E+03 E0= -.41319507E+03  EK= 0.34904E+00 SP= 0.00E+00 SK= 0.00E+00
       N       E                     dE             d eps       ncg     rms          rms(c)
RMM:   1    -0.413233276755E+03   -0.17187E-01   -0.11275E+01  4312   0.136E+00    0.949E-01
RMM:   2    -0.413221543840E+03    0.11733E-01   -0.16668E-01  4294   0.161E-01    0.702E-01
RMM:   3    -0.413223064585E+03   -0.15207E-02   -0.16552E-02  5075   0.899E-02    0.351E-01
RMM:   4    -0.413256433656E+03   -0.33369E-01   -0.55315E-02  5072   0.200E-01    0.813E-01
RMM:   5    -0.413217450520E+03    0.38983E-01   -0.16510E-02  4715   0.135E-01    0.603E-02
RMM:   6    -0.413217494405E+03   -0.43885E-04   -0.29512E-03  5731   0.519E-02    0.337E-02
RMM:   7    -0.413217496469E+03   -0.20638E-05   -0.42246E-04  5765   0.190E-02    0.223E-02
RMM:   8    -0.413217492678E+03    0.37916E-05   -0.11253E-04  5163   0.110E-02    0.114E-02
RMM:   9    -0.413217482390E+03    0.10287E-04   -0.19615E-05  4413   0.554E-03    0.449E-03
RMM:  10    -0.413217479987E+03    0.24033E-05   -0.38545E-06  2781   0.253E-03    0.284E-03
RMM:  11    -0.413217476883E+03    0.31038E-05   -0.12825E-06  2498   0.184E-03    0.152E-03
RMM:  12    -0.413217472976E+03    0.39074E-05   -0.73551E-07  2438   0.143E-03    0.575E-04
RMM:  13    -0.413217470619E+03    0.23572E-05   -0.36222E-07  2010   0.100E-03    0.275E-04
RMM:  14    -0.413217468805E+03    0.18139E-05   -0.20540E-07  1558   0.789E-04    0.172E-04
RMM:  15    -0.413217465426E+03    0.33791E-05   -0.15406E-07  1311   0.724E-04    0.103E-04
RMM:  16    -0.413217463816E+03    0.16093E-05   -0.93131E-08  1130   0.660E-04    0.741E-05
RMM:  17    -0.413217461538E+03    0.22789E-05   -0.78407E-08  1178   0.652E-04    0.450E-05
RMM:  18    -0.413217459598E+03    0.19393E-05   -0.57711E-08  1088   0.621E-04    0.363E-05
RMM:  19    -0.413217458401E+03    0.11977E-05   -0.35224E-08   913   0.578E-04    0.213E-05
RMM:  20    -0.413217457838E+03    0.56216E-06   -0.21925E-08   770   0.551E-04
   44 T=    71. E= -.41286682E+03 F= -.41321746E+03 E0= -.41319647E+03  EK= 0.35064E+00 SP= 0.00E+00 SK= 0.00E+00
       N       E                     dE             d eps       ncg     rms          rms(c)
RMM:   1    -0.413251731961E+03   -0.34274E-01   -0.11433E+01  4311   0.152E+00    0.975E-01
RMM:   2    -0.413222555880E+03    0.29176E-01   -0.17067E-01  4331   0.169E-01    0.698E-01
RMM:   3    -0.413228775242E+03   -0.62194E-02   -0.20117E-02  5117   0.107E-01    0.448E-01
RMM:   4    -0.413243381307E+03   -0.14606E-01   -0.45168E-02  5046   0.184E-01    0.651E-01
RMM:   5    -0.413219182218E+03    0.24199E-01   -0.91991E-03  4641   0.109E-01    0.575E-02
RMM:   6    -0.413219161859E+03    0.20359E-04   -0.18829E-03  5588   0.418E-02    0.330E-02
RMM:   7    -0.413219156493E+03    0.53658E-05   -0.31832E-04  5624   0.172E-02    0.218E-02
RMM:   8    -0.413219147666E+03    0.88268E-05   -0.11303E-04  5070   0.111E-02    0.103E-02
RMM:   9    -0.413219134586E+03    0.13081E-04   -0.15548E-05  4272   0.538E-03    0.419E-03
RMM:  10    -0.413219130676E+03    0.39099E-05   -0.27563E-06  2691   0.229E-03    0.245E-03
RMM:  11    -0.413219124548E+03    0.61280E-05   -0.11629E-06  2485   0.177E-03    0.133E-03
RMM:  12    -0.413219118330E+03    0.62176E-05   -0.59758E-07  2410   0.134E-03    0.603E-04
RMM:  13    -0.413219114792E+03    0.35381E-05   -0.28323E-07  1877   0.914E-04    0.291E-04
RMM:  14    -0.413219111455E+03    0.33366E-05   -0.16068E-07  1388   0.729E-04    0.160E-04
RMM:  15    -0.413219106277E+03    0.51782E-05   -0.12813E-07  1282   0.699E-04    0.122E-04
RMM:  16    -0.413219103745E+03    0.25325E-05   -0.78993E-08  1084   0.638E-04    0.918E-05
RMM:  17    -0.413219099142E+03    0.46030E-05   -0.82242E-08  1312   0.656E-04    0.664E-05
RMM:  18    -0.413219097065E+03    0.20771E-05   -0.47697E-08  1028   0.580E-04    0.416E-05
RMM:  19    -0.413219095911E+03    0.11532E-05   -0.30509E-08   852   0.542E-04    0.225E-05
RMM:  20    -0.413219095365E+03    0.54623E-06   -0.20532E-08   759   0.525E-04
   45 T=    72. E= -.41286711E+03 F= -.41321910E+03 E0= -.41319813E+03  EK= 0.35198E+00 SP= 0.00E+00 SK= 0.00E+00
       N       E                     dE             d eps       ncg     rms          rms(c)
RMM:   1    -0.413258807770E+03   -0.39712E-01   -0.11392E+01  4311   0.162E+00    0.957E-01
RMM:   2    -0.413222822128E+03    0.35986E-01   -0.18039E-01  4354   0.183E-01    0.693E-01
RMM:   3    -0.413231671156E+03   -0.88490E-02   -0.21519E-02  5119   0.116E-01    0.505E-01
RMM:   4    -0.413239393381E+03   -0.77222E-02   -0.43321E-02  5026   0.181E-01    0.598E-01
RMM:   5    -0.413219415167E+03    0.19978E-01   -0.74693E-03  4601   0.102E-01    0.568E-02
RMM:   6    -0.413219370681E+03    0.44485E-04   -0.14843E-03  5445   0.379E-02    0.319E-02
RMM:   7    -0.413219367450E+03    0.32312E-05   -0.26288E-04  5591   0.160E-02    0.214E-02
RMM:   8    -0.413219358657E+03    0.87935E-05   -0.12148E-04  5084   0.114E-02    0.101E-02
RMM:   9    -0.413219345214E+03    0.13443E-04   -0.16054E-05  4304   0.553E-03    0.411E-03
RMM:  10    -0.413219342021E+03    0.31924E-05   -0.27498E-06  2690   0.223E-03    0.236E-03
RMM:  11    -0.413219336066E+03    0.59551E-05   -0.12447E-06  2486   0.180E-03    0.129E-03
RMM:  12    -0.413219331258E+03    0.48085E-05   -0.56689E-07  2416   0.131E-03    0.657E-04
RMM:  13    -0.413219327855E+03    0.34024E-05   -0.26664E-07  1797   0.894E-04    0.323E-04
RMM:  14    -0.413219324438E+03    0.34175E-05   -0.15024E-07  1354   0.716E-04    0.170E-04
RMM:  15    -0.413219320330E+03    0.41078E-05   -0.11527E-07  1269   0.681E-04    0.126E-04
RMM:  16    -0.413219317888E+03    0.24415E-05   -0.73463E-08  1094   0.625E-04    0.105E-04
RMM:  17    -0.413219313979E+03    0.39095E-05   -0.72003E-08  1216   0.630E-04    0.629E-05
RMM:  18    -0.413219311791E+03    0.21878E-05   -0.44472E-08  1010   0.573E-04    0.498E-05
RMM:  19    -0.413219310946E+03    0.84557E-06   -0.25095E-08   812   0.530E-04
   46 T=    72. E= -.41286691E+03 F= -.41321931E+03 E0= -.41319836E+03  EK= 0.35240E+00 SP= 0.00E+00 SK= 0.00E+00
       N       E                     dE             d eps       ncg     rms          rms(c)
RMM:   1    -0.413245804660E+03   -0.26493E-01   -0.11284E+01  4311   0.164E+00    0.943E-01
RMM:   2    -0.413223020723E+03    0.22784E-01   -0.19093E-01  4351   0.195E-01    0.707E-01
RMM:   3    -0.413232416526E+03   -0.93958E-02   -0.22006E-02  5118   0.123E-01    0.528E-01
RMM:   4    -0.413240431582E+03   -0.80151E-02   -0.46381E-02  5025   0.188E-01    0.617E-01
RMM:   5    -0.413219053058E+03    0.21379E-01   -0.80846E-03  4596   0.107E-01    0.589E-02
RMM:   6    -0.413218998854E+03    0.54204E-04   -0.15578E-03  5445   0.390E-02    0.321E-02
RMM:   7    -0.413218993123E+03    0.57302E-05   -0.26848E-04  5644   0.160E-02    0.224E-02
RMM:   8    -0.413218983829E+03    0.92941E-05   -0.12460E-04  5107   0.114E-02    0.103E-02
RMM:   9    -0.413218971741E+03    0.12089E-04   -0.18006E-05  4381   0.574E-03    0.413E-03
RMM:  10    -0.413218969671E+03    0.20698E-05   -0.29631E-06  2720   0.227E-03    0.239E-03
RMM:  11    -0.413218965771E+03    0.39001E-05   -0.14521E-06  2514   0.189E-03    0.136E-03
RMM:  12    -0.413218962791E+03    0.29794E-05   -0.60743E-07  2439   0.136E-03    0.714E-04
RMM:  13    -0.413218960191E+03    0.26008E-05   -0.30626E-07  1830   0.932E-04    0.343E-04
RMM:  14    -0.413218957666E+03    0.25245E-05   -0.17597E-07  1373   0.743E-04    0.178E-04
RMM:  15    -0.413218954993E+03    0.26728E-05   -0.13128E-07  1236   0.690E-04    0.112E-04
RMM:  16    -0.413218953002E+03    0.19918E-05   -0.89381E-08  1152   0.645E-04    0.974E-05
RMM:  17    -0.413218950491E+03    0.25110E-05   -0.80422E-08  1238   0.639E-04    0.546E-05
RMM:  18    -0.413218948558E+03    0.19323E-05   -0.51979E-08  1007   0.586E-04    0.422E-05
RMM:  19    -0.413218948021E+03    0.53770E-06   -0.26686E-08   802   0.538E-04
   47 T=    72. E= -.41286686E+03 F= -.41321895E+03 E0= -.41319801E+03  EK= 0.35209E+00 SP= 0.00E+00 SK= 0.00E+00
       N       E                     dE             d eps       ncg     rms          rms(c)
RMM:   1    -0.413248118139E+03   -0.29170E-01   -0.11243E+01  4306   0.176E+00    0.968E-01
RMM:   2    -0.413221476593E+03    0.26642E-01   -0.18080E-01  4411   0.204E-01    0.702E-01
RMM:   3    -0.413238787123E+03   -0.17311E-01   -0.29406E-02  5139   0.145E-01    0.639E-01
RMM:   4    -0.413230542037E+03    0.82451E-02   -0.42068E-02  4985   0.183E-01    0.484E-01
RMM:   5    -0.413217901077E+03    0.12641E-01   -0.47359E-03  4523   0.909E-02    0.573E-02
RMM:   6    -0.413217797586E+03    0.10349E-03   -0.71055E-04  4912   0.300E-02    0.303E-02
RMM:   7    -0.413217784473E+03    0.13113E-04   -0.16723E-04  5840   0.126E-02    0.123E-02
RMM:   8    -0.413217777268E+03    0.72051E-05   -0.42774E-05  5172   0.753E-03    0.702E-03
RMM:   9    -0.413217771648E+03    0.56197E-05   -0.70160E-06  3313   0.335E-03    0.366E-03
RMM:  10    -0.413217769479E+03    0.21693E-05   -0.21866E-06  2591   0.230E-03    0.223E-03
RMM:  11    -0.413217763513E+03    0.59660E-05   -0.12636E-06  2453   0.191E-03    0.141E-03
RMM:  12    -0.413217760138E+03    0.33749E-05   -0.47985E-07  2364   0.126E-03    0.843E-04
RMM:  13    -0.413217755871E+03    0.42671E-05   -0.25379E-07  1914   0.905E-04    0.451E-04
RMM:  14    -0.413217750924E+03    0.49467E-05   -0.17577E-07  1553   0.752E-04    0.325E-04
RMM:  15    -0.413217747279E+03    0.36454E-05   -0.94887E-08  1030   0.605E-04    0.129E-04
RMM:  16    -0.413217744646E+03    0.26326E-05   -0.68095E-08  1033   0.589E-04    0.968E-05
RMM:  17    -0.413217741590E+03    0.30556E-05   -0.60122E-08  1066   0.591E-04    0.935E-05
RMM:  18    -0.413217740225E+03    0.13650E-05   -0.31123E-08   823   0.536E-04    0.563E-05
RMM:  19    -0.413217738572E+03    0.16535E-05   -0.26255E-08   802   0.531E-04    0.350E-05
RMM:  20    -0.413217737668E+03    0.90391E-06   -0.18867E-08   728   0.515E-04
   48 T=    71. E= -.41286702E+03 F= -.41321774E+03 E0= -.41319681E+03  EK= 0.35071E+00 SP= 0.00E+00 SK= 0.00E+00
       N       E                     dE             d eps       ncg     rms          rms(c)
RMM:   1    -0.413250874258E+03   -0.33136E-01   -0.11106E+01  4306   0.189E+00    0.960E-01
RMM:   2    -0.413218059810E+03    0.32814E-01   -0.18134E-01  4455   0.216E-01    0.692E-01
RMM:   3    -0.413242392475E+03   -0.24333E-01   -0.35142E-02  5153   0.162E-01    0.730E-01
RMM:   4    -0.413223148361E+03    0.19244E-01   -0.41014E-02  4957   0.184E-01    0.410E-01
RMM:   5    -0.413214660110E+03    0.84883E-02   -0.42598E-03  4589   0.883E-02    0.632E-02
RMM:   6    -0.413214488687E+03    0.17142E-03   -0.47135E-04  4686   0.287E-02    0.330E-02
RMM:   7    -0.413214498345E+03   -0.96574E-05   -0.29283E-04  5746   0.178E-02    0.240E-02
RMM:   8    -0.413214463156E+03    0.35189E-04   -0.10257E-04  5017   0.115E-02    0.904E-03
RMM:   9    -0.413214456273E+03    0.68828E-05   -0.18295E-05  4695   0.548E-03    0.472E-03
RMM:  10    -0.413214452039E+03    0.42334E-05   -0.22713E-06  2620   0.239E-03    0.257E-03
RMM:  11    -0.413214445921E+03    0.61185E-05   -0.13165E-06  2501   0.188E-03    0.175E-03
RMM:  12    -0.413214442211E+03    0.37099E-05   -0.41520E-07  2382   0.120E-03    0.909E-04
RMM:  13    -0.413214437372E+03    0.48391E-05   -0.28218E-07  2005   0.899E-04    0.448E-04
RMM:  14    -0.413214432253E+03    0.51186E-05   -0.20908E-07  1724   0.779E-04    0.363E-04
RMM:  15    -0.413214427723E+03    0.45301E-05   -0.12426E-07  1163   0.644E-04    0.145E-04
RMM:  16    -0.413214425243E+03    0.24800E-05   -0.75047E-08  1090   0.602E-04    0.923E-05
RMM:  17    -0.413214421771E+03    0.34717E-05   -0.74520E-08  1177   0.615E-04    0.778E-05
RMM:  18    -0.413214420679E+03    0.10923E-05   -0.36556E-08   922   0.549E-04    0.644E-05
RMM:  19    -0.413214418914E+03    0.17655E-05   -0.35298E-08   989   0.551E-04    0.354E-05
[...]
RMM:  15    -0.413790762336E+03   -0.59080E-05   -0.97926E-07  2453   0.137E-03    0.541E-04
RMM:  16    -0.413790768155E+03   -0.58192E-05   -0.10058E-06  2359   0.126E-03    0.356E-04
RMM:  17    -0.413790772314E+03   -0.41591E-05   -0.68417E-07  2007   0.101E-03    0.221E-04
RMM:  18    -0.413790776209E+03   -0.38948E-05   -0.65125E-07  2026   0.965E-04    0.167E-04
RMM:  19    -0.413790778764E+03   -0.25551E-05   -0.34643E-07  1508   0.753E-04    0.117E-04
RMM:  20    -0.413790780424E+03   -0.16604E-05   -0.17112E-07  1194   0.635E-04    0.691E-05
RMM:  21    -0.413790782079E+03   -0.16551E-05   -0.12124E-07  1183   0.611E-04    0.477E-05
RMM:  22    -0.413790782706E+03   -0.62684E-06   -0.54863E-08   959   0.558E-04
  138 T=   185. E= -.41287984E+03 F= -.41379078E+03 E0= -.41376729E+03  EK= 0.91094E+00 SP= 0.00E+00 SK= 0.00E+00
       N       E                     dE             d eps       ncg     rms          rms(c)
RMM:   1    -0.414007839762E+03   -0.21706E+00   -0.21547E+01  4287   0.854E+00    0.105E+00
RMM:   2    -0.413897797084E+03    0.11004E+00   -0.57474E-01  5331   0.901E-01    0.886E-01
RMM:   3    -0.413939348791E+03   -0.41552E-01   -0.10599E-01  5691   0.356E-01    0.104E+00
RMM:   4    -0.413903427205E+03    0.35922E-01   -0.46850E-02  5049   0.240E-01    0.547E-01
RMM:   5    -0.413901186911E+03    0.22403E-02   -0.45968E-02  5190   0.268E-01    0.285E-01
RMM:   6    -0.413897702230E+03    0.34847E-02   -0.10470E-02  4915   0.135E-01    0.128E-01
RMM:   7    -0.413897127537E+03    0.57469E-03   -0.20349E-03  5304   0.614E-02    0.590E-02
RMM:   8    -0.413897077741E+03    0.49796E-04   -0.94780E-04  5846   0.361E-02    0.359E-02
RMM:   9    -0.413897044402E+03    0.33338E-04   -0.23952E-04  5205   0.196E-02    0.215E-02
RMM:  10    -0.413897033284E+03    0.11118E-04   -0.92420E-05  5683   0.122E-02    0.104E-02
RMM:  11    -0.413897033759E+03   -0.47496E-06   -0.18509E-05  4488   0.513E-03    0.728E-03
RMM:  12    -0.413897037836E+03   -0.40778E-05   -0.92554E-06  4001   0.459E-03    0.342E-03
RMM:  13    -0.413897043576E+03   -0.57396E-05   -0.23747E-06  2682   0.259E-03    0.207E-03
RMM:  14    -0.413897050327E+03   -0.67509E-05   -0.15152E-06  2584   0.200E-03    0.105E-03
RMM:  15    -0.413897055039E+03   -0.47122E-05   -0.84466E-07  2506   0.136E-03    0.670E-04
RMM:  16    -0.413897061502E+03   -0.64633E-05   -0.11484E-06  2560   0.146E-03    0.467E-04
RMM:  17    -0.413897066144E+03   -0.46413E-05   -0.81473E-07  1945   0.109E-03    0.276E-04
RMM:  18    -0.413897070072E+03   -0.39284E-05   -0.74976E-07  2194   0.105E-03    0.192E-04
RMM:  19    -0.413897072625E+03   -0.25529E-05   -0.41665E-07  1591   0.776E-04    0.129E-04
RMM:  20    -0.413897074627E+03   -0.20018E-05   -0.24922E-07  1327   0.667E-04    0.785E-05
RMM:  21    -0.413897076063E+03   -0.14364E-05   -0.14653E-07  1197   0.597E-04    0.564E-05
RMM:  22    -0.413897076993E+03   -0.93019E-06   -0.80361E-08  1016   0.545E-04
  139 T=   204. E= -.41289685E+03 F= -.41389708E+03 E0= -.41387372E+03  EK= 0.10002E+01 SP= 0.00E+00 SK= 0.00E+00
       N       E                     dE             d eps       ncg     rms          rms(c)
RMM:   1    -0.413814494724E+03    0.82581E-01   -0.21748E+01  4280   0.846E+00    0.167E+00
RMM:   2    -0.413716067010E+03    0.98428E-01   -0.74182E-01  5306   0.948E-01    0.137E+00
RMM:   3    -0.413862270233E+03   -0.14620E+00   -0.24475E-01  5543   0.507E-01    0.185E+00
RMM:   4    -0.413716885722E+03    0.14538E+00   -0.12621E-01  4871   0.418E-01    0.474E-01
RMM:   5    -0.413717368787E+03   -0.48307E-03   -0.79483E-02  5323   0.332E-01    0.339E-01
RMM:   6    -0.413711662687E+03    0.57061E-02   -0.15985E-02  4993   0.164E-01    0.141E-01
RMM:   7    -0.413711167494E+03    0.49519E-03   -0.30330E-03  5482   0.707E-02    0.647E-02
RMM:   8    -0.413711127067E+03    0.40427E-04   -0.11227E-03  5787   0.401E-02    0.389E-02
RMM:   9    -0.413711097780E+03    0.29287E-04   -0.29022E-04  5412   0.210E-02    0.249E-02
RMM:  10    -0.413711082570E+03    0.15210E-04   -0.99591E-05  5716   0.123E-02    0.117E-02
RMM:  11    -0.413711081981E+03    0.58874E-06   -0.30879E-05  5287   0.624E-03    0.840E-03
RMM:  12    -0.413711082971E+03   -0.98994E-06   -0.10292E-05  4148   0.477E-03    0.376E-03
RMM:  13    -0.413711086444E+03   -0.34726E-05   -0.27223E-06  2721   0.259E-03    0.208E-03
RMM:  14    -0.413711090840E+03   -0.43958E-05   -0.14772E-06  2578   0.199E-03    0.950E-04
RMM:  15    -0.413711093955E+03   -0.31150E-05   -0.80501E-07  2513   0.142E-03    0.665E-04
RMM:  16    -0.413711097754E+03   -0.37992E-05   -0.81389E-07  2427   0.127E-03    0.397E-04
RMM:  17    -0.413711100569E+03   -0.28149E-05   -0.57355E-07  1872   0.993E-04    0.244E-04
RMM:  18    -0.413711103446E+03   -0.28771E-05   -0.70937E-07  2315   0.109E-03    0.215E-04
RMM:  19    -0.413711104754E+03   -0.13076E-05   -0.30106E-07  1329   0.691E-04    0.121E-04
RMM:  20    -0.413711106006E+03   -0.12523E-05   -0.22320E-07  1302   0.678E-04    0.780E-05
RMM:  21    -0.413711106696E+03   -0.69018E-06   -0.12207E-07  1126   0.602E-04
  140 T=   167. E= -.41289236E+03 F= -.41371111E+03 E0= -.41368780E+03  EK= 0.81874E+00 SP= 0.00E+00 SK= 0.00E+00
       N       E                     dE             d eps       ncg     rms          rms(c)
RMM:   1    -0.413401114930E+03    0.30999E+00   -0.13316E+01  4265   0.671E+00    0.127E+00
RMM:   2    -0.413393642955E+03    0.74720E-02   -0.52573E-01  5320   0.724E-01    0.996E-01
RMM:   3    -0.413500354525E+03   -0.10671E+00   -0.16361E-01  5498   0.412E-01    0.149E+00
RMM:   4    -0.413396935405E+03    0.10342E+00   -0.91205E-02  4930   0.351E-01    0.421E-01
RMM:   5    -0.413394656907E+03    0.22785E-02   -0.50033E-02  5242   0.264E-01    0.229E-01
RMM:   6    -0.413392135825E+03    0.25211E-02   -0.12039E-02  5213   0.137E-01    0.115E-01
RMM:   7    -0.413391545265E+03    0.59056E-03   -0.16227E-03  4813   0.571E-02    0.518E-02
RMM:   8    -0.413391553163E+03   -0.78971E-05   -0.80033E-04  5753   0.338E-02    0.376E-02
RMM:   9    -0.413391531819E+03    0.21343E-04   -0.14867E-04  5467   0.152E-02    0.208E-02
RMM:  10    -0.413391524125E+03    0.76941E-05   -0.10198E-04  5708   0.117E-02    0.102E-02
RMM:  11    -0.413391521745E+03    0.23800E-05   -0.21370E-05  4679   0.530E-03    0.779E-03
RMM:  12    -0.413391518827E+03    0.29183E-05   -0.85227E-06  3926   0.417E-03    0.332E-03
RMM:  13    -0.413391519454E+03   -0.62691E-06   -0.23380E-06  2629   0.249E-03
  141 T=   110. E= -.41285324E+03 F= -.41339152E+03 E0= -.41336806E+03  EK= 0.53828E+00 SP= 0.00E+00 SK= 0.00E+00
       N       E                     dE             d eps       ncg     rms          rms(c)
RMM:   1    -0.413425526976E+03   -0.34008E-01   -0.92085E+00  4264   0.552E+00    0.138E+00
RMM:   2    -0.413418584041E+03    0.69429E-02   -0.34587E-01  5381   0.685E-01    0.118E+00
RMM:   3    -0.413495501212E+03   -0.76917E-01   -0.13326E-01  5371   0.385E-01    0.147E+00
RMM:   4    -0.413420586914E+03    0.74914E-01   -0.96637E-02  5183   0.343E-01    0.658E-01
RMM:   5    -0.413409192733E+03    0.11394E-01   -0.27958E-02  4602   0.238E-01    0.134E-01
RMM:   6    -0.413409016487E+03    0.17625E-03   -0.58527E-03  5543   0.934E-02    0.888E-02
RMM:   7    -0.413408766249E+03    0.25024E-03   -0.13613E-03  5254   0.435E-02    0.551E-02
RMM:   8    -0.413408691291E+03    0.74959E-04   -0.36832E-04  4937   0.255E-02    0.275E-02
RMM:   9    -0.413408692796E+03   -0.15058E-05   -0.25830E-04  5639   0.200E-02    0.241E-02
RMM:  10    -0.413408681476E+03    0.11320E-04   -0.43154E-05  5074   0.903E-03    0.115E-02
RMM:  11    -0.413408680452E+03    0.10237E-05   -0.37927E-05  5421   0.692E-03    0.554E-03
RMM:  12    -0.413408679221E+03    0.12313E-05   -0.39788E-06  2882   0.304E-03    0.252E-03
RMM:  13    -0.413408678759E+03    0.46194E-06   -0.14029E-06  2533   0.195E-03
  142 T=   108. E= -.41287973E+03 F= -.41340868E+03 E0= -.41338484E+03  EK= 0.52895E+00 SP= 0.00E+00 SK= 0.00E+00
       N       E                     dE             d eps       ncg     rms          rms(c)
RMM:   1    -0.413565870796E+03   -0.15719E+00   -0.12687E+01  4277   0.624E+00    0.206E+00
RMM:   2    -0.413535066007E+03    0.30805E-01   -0.53846E-01  5404   0.856E-01    0.180E+00
RMM:   3    -0.413668547638E+03   -0.13348E+00   -0.25097E-01  5381   0.518E-01    0.216E+00
RMM:   4    -0.413527831562E+03    0.14072E+00   -0.20156E-01  5164   0.505E-01    0.894E-01
RMM:   5    -0.413507294920E+03    0.20537E-01   -0.58849E-02  4669   0.338E-01    0.187E-01
RMM:   6    -0.413506873925E+03    0.42100E-03   -0.10682E-02  5573   0.125E-01    0.120E-01
RMM:   7    -0.413506472570E+03    0.40135E-03   -0.23206E-03  5229   0.573E-02    0.715E-02
RMM:   8    -0.413506311317E+03    0.16125E-03   -0.79189E-04  5099   0.368E-02    0.387E-02
RMM:   9    -0.413506321949E+03   -0.10631E-04   -0.41298E-04  5692   0.249E-02    0.316E-02
RMM:  10    -0.413506298590E+03    0.23359E-04   -0.77714E-05  5176   0.120E-02    0.135E-02
RMM:  11    -0.413506299610E+03   -0.10201E-05   -0.64470E-05  5708   0.874E-03    0.734E-03
RMM:  12    -0.413506298364E+03    0.12467E-05   -0.67146E-06  3196   0.375E-03    0.341E-03
RMM:  13    -0.413506298111E+03    0.25296E-06   -0.23127E-06  2686   0.234E-03
  143 T=   128. E= -.41287841E+03 F= -.41350630E+03 E0= -.41348224E+03  EK= 0.62788E+00 SP= 0.00E+00 SK= 0.00E+00
       N       E                     dE             d eps       ncg     rms          rms(c)
RMM:   1    -0.413684357249E+03   -0.17806E+00   -0.14160E+01  4289   0.675E+00    0.145E+00
RMM:   2    -0.413654058606E+03    0.30299E-01   -0.48604E-01  5454   0.792E-01    0.135E+00
RMM:   3    -0.413673266625E+03   -0.19208E-01   -0.13822E-01  5500   0.403E-01    0.140E+00
RMM:   4    -0.413625832152E+03    0.47434E-01   -0.99684E-02  5238   0.370E-01    0.638E-01
RMM:   5    -0.413620006355E+03    0.58258E-02   -0.45936E-02  4822   0.284E-01    0.218E-01
RMM:   6    -0.413618253215E+03    0.17531E-02   -0.17441E-02  5160   0.160E-01    0.146E-01
RMM:   7    -0.413617085126E+03    0.11681E-02   -0.18840E-03  4524   0.658E-02    0.578E-02
RMM:   8    -0.413617073174E+03    0.11953E-04   -0.79244E-04  5577   0.333E-02    0.312E-02
RMM:   9    -0.413617072356E+03    0.81828E-06   -0.23284E-04  5489   0.185E-02    0.211E-02
RMM:  10    -0.413617065235E+03    0.71202E-05   -0.48789E-05  5317   0.881E-03    0.971E-03
RMM:  11    -0.413617068296E+03   -0.30610E-05   -0.30551E-05  5280   0.619E-03    0.600E-03
RMM:  12    -0.413617070376E+03   -0.20792E-05   -0.39905E-06  2919   0.296E-03    0.327E-03
RMM:  13    -0.413617071230E+03   -0.85498E-06   -0.16233E-06  2604   0.206E-03
  144 T=   152. E= -.41287216E+03 F= -.41361707E+03 E0= -.41359309E+03  EK= 0.74491E+00 SP= 0.00E+00 SK= 0.00E+00
       N       E                     dE             d eps       ncg     rms          rms(c)
RMM:   1    -0.413889923328E+03   -0.27285E+00   -0.17927E+01  4297   0.775E+00    0.154E+00
RMM:   2    -0.413845899913E+03    0.44023E-01   -0.53551E-01  5413   0.869E-01    0.151E+00
RMM:   3    -0.413822479000E+03    0.23421E-01   -0.15473E-01  5430   0.440E-01    0.135E+00
RMM:   4    -0.413789170486E+03    0.33309E-01   -0.11491E-01  5318   0.396E-01    0.641E-01
RMM:   5    -0.413781898562E+03    0.72719E-02   -0.66069E-02  4964   0.322E-01    0.289E-01
RMM:   6    -0.413778491923E+03    0.34066E-02   -0.21693E-02  5145   0.185E-01    0.159E-01
RMM:   7    -0.413777495749E+03    0.99617E-03   -0.19955E-03  4489   0.704E-02    0.616E-02
RMM:   8    -0.413777462117E+03    0.33632E-04   -0.66499E-04  5378   0.327E-02    0.341E-02
RMM:   9    -0.413777480933E+03   -0.18816E-04   -0.30453E-04  5591   0.209E-02    0.250E-02
RMM:  10    -0.413777476419E+03    0.45144E-05   -0.60440E-05  5266   0.995E-03    0.128E-02
RMM:  11    -0.413777482163E+03   -0.57439E-05   -0.45740E-05  5519   0.779E-03    0.632E-03
RMM:  12    -0.413777489213E+03   -0.70499E-05   -0.78211E-06  3334   0.381E-03    0.446E-03
RMM:  13    -0.413777492692E+03   -0.34800E-05   -0.30588E-06  2749   0.276E-03    0.187E-03
RMM:  14    -0.413777495152E+03   -0.24596E-05   -0.14672E-06  2585   0.187E-03    0.882E-04
RMM:  15    -0.413777496575E+03   -0.14231E-05   -0.92223E-07  2379   0.138E-03    0.493E-04
RMM:  16    -0.413777497571E+03   -0.99614E-06   -0.88932E-07  2301   0.123E-03
  145 T=   181. E= -.41288625E+03 F= -.41377750E+03 E0= -.41375364E+03  EK= 0.89125E+00 SP= 0.00E+00 SK= 0.00E+00
       N       E                     dE             d eps       ncg     rms          rms(c)
RMM:   1    -0.413929106470E+03   -0.15161E+00   -0.20044E+01  4298   0.830E+00    0.137E+00
RMM:   2    -0.413874399687E+03    0.54707E-01   -0.58497E-01  5412   0.926E-01    0.150E+00
RMM:   3    -0.413831938101E+03    0.42462E-01   -0.13385E-01  5517   0.416E-01    0.122E+00
RMM:   4    -0.413808389941E+03    0.23548E-01   -0.70817E-02  5340   0.319E-01    0.638E-01
RMM:   5    -0.413808434165E+03   -0.44224E-04   -0.57013E-02  4969   0.299E-01    0.349E-01
RMM:   6    -0.413803881267E+03    0.45529E-02   -0.25504E-02  5000   0.196E-01    0.174E-01
RMM:   7    -0.413802609827E+03    0.12714E-02   -0.27002E-03  4587   0.812E-02    0.677E-02
RMM:   8    -0.413802585344E+03    0.24483E-04   -0.81091E-04  5612   0.353E-02    0.452E-02
RMM:   9    -0.413802583507E+03    0.18369E-05   -0.30882E-04  4790   0.228E-02    0.194E-02
RMM:  10    -0.413802589542E+03   -0.60347E-05   -0.83485E-05  5517   0.112E-02    0.112E-02
RMM:  11    -0.413802595027E+03   -0.54855E-05   -0.26621E-05  5141   0.642E-03    0.672E-03
RMM:  12    -0.413802603499E+03   -0.84714E-05   -0.91106E-06  3617   0.430E-03    0.463E-03
RMM:  13    -0.413802607476E+03   -0.39776E-05   -0.33502E-06  2798   0.280E-03    0.181E-03
RMM:  14    -0.413802610032E+03   -0.25555E-05   -0.19391E-06  2620   0.196E-03    0.101E-03
RMM:  15    -0.413802611605E+03   -0.15736E-05   -0.13189E-06  2510   0.156E-03    0.611E-04
RMM:  16    -0.413802611953E+03   -0.34772E-06   -0.85108E-07  2156   0.116E-03
  146 T=   187. E= -.41288170E+03 F= -.41380261E+03 E0= -.41377877E+03  EK= 0.92091E+00 SP= 0.00E+00 SK= 0.00E+00
       N       E                     dE             d eps       ncg     rms          rms(c)
RMM:   1    -0.413806785683E+03   -0.41741E-02   -0.18558E+01  4295   0.801E+00    0.100E+00
RMM:   2    -0.413747417750E+03    0.59368E-01   -0.52908E-01  5410   0.859E-01    0.111E+00
RMM:   3    -0.413732568465E+03    0.14849E-01   -0.91603E-02  5651   0.340E-01    0.962E-01
RMM:   4    -0.413715596559E+03    0.16972E-01   -0.29732E-02  5272   0.216E-01    0.553E-01
RMM:   5    -0.413716852416E+03   -0.12559E-02   -0.32724E-02  4830   0.232E-01    0.309E-01
RMM:   6    -0.413714136314E+03    0.27161E-02   -0.20140E-02  4965   0.170E-01    0.152E-01
RMM:   7    -0.413713080869E+03    0.10554E-02   -0.29832E-03  4965   0.783E-02    0.696E-02
RMM:   8    -0.413713034934E+03    0.45935E-04   -0.67687E-04  5690   0.323E-02    0.483E-02
RMM:   9    -0.413713018032E+03    0.16902E-04   -0.36155E-04  4465   0.253E-02    0.144E-02
RMM:  10    -0.413713031074E+03   -0.13042E-04   -0.92174E-05  5744   0.114E-02    0.117E-02
RMM:  11    -0.413713034404E+03   -0.33297E-05   -0.19516E-05  4418   0.567E-03    0.610E-03
RMM:  12    -0.413713041653E+03   -0.72495E-05   -0.82699E-06  3476   0.403E-03    0.358E-03
RMM:  13    -0.413713045956E+03   -0.43028E-05   -0.26160E-06  2722   0.243E-03    0.152E-03
RMM:  14    -0.413713048843E+03   -0.28873E-05   -0.21845E-06  2664   0.201E-03    0.862E-04
RMM:  15    -0.413713049691E+03   -0.84740E-06   -0.12656E-06  2407   0.142E-03
  147 T=   170. E= -.41287571E+03 F= -.41371305E+03 E0= -.41368917E+03  EK= 0.83734E+00 SP= 0.00E+00 SK= 0.00E+00
       N       E                     dE             d eps       ncg     rms          rms(c)
RMM:   1    -0.413657218487E+03    0.55830E-01   -0.15953E+01  4283   0.730E+00    0.958E-01
RMM:   2    -0.413591795471E+03    0.65423E-01   -0.48413E-01  5404   0.771E-01    0.885E-01
RMM:   3    -0.413613165765E+03   -0.21370E-01   -0.78949E-02  5726   0.300E-01    0.994E-01
RMM:   4    -0.413587360778E+03    0.25805E-01   -0.28666E-02  5032   0.206E-01    0.507E-01
RMM:   5    -0.413587346440E+03    0.14338E-04   -0.26580E-02  4672   0.216E-01    0.220E-01
RMM:   6    -0.413585707986E+03    0.16385E-02   -0.10407E-02  5010   0.127E-01    0.108E-01
RMM:   7    -0.413585139941E+03    0.56805E-03   -0.19967E-03  5237   0.602E-02    0.590E-02
RMM:   8    -0.413585081595E+03    0.58345E-04   -0.41735E-04  5184   0.264E-02    0.380E-02
RMM:   9    -0.413585078128E+03    0.34670E-05   -0.25952E-04  4537   0.213E-02    0.137E-02
RMM:  10    -0.413585083586E+03   -0.54583E-05   -0.56967E-05  5525   0.865E-03    0.954E-03
RMM:  11    -0.413585085089E+03   -0.15027E-05   -0.14705E-05  4187   0.480E-03    0.472E-03
RMM:  12    -0.413585088463E+03   -0.33739E-05   -0.43448E-06  2970   0.309E-03    0.256E-03
RMM:  13    -0.413585090577E+03   -0.21145E-05   -0.14446E-06  2572   0.191E-03    0.130E-03
RMM:  14    -0.413585091846E+03   -0.12685E-05   -0.14335E-06  2576   0.170E-03    0.619E-04
RMM:  15    -0.413585091770E+03    0.76259E-07   -0.77388E-07  2122   0.116E-03
  148 T=   145. E= -.41287430E+03 F= -.41358509E+03 E0= -.41356121E+03  EK= 0.71079E+00 SP= 0.00E+00 SK= 0.00E+00
       N       E                     dE             d eps       ncg     rms          rms(c)
RMM:   1    -0.413507241436E+03    0.77850E-01   -0.12918E+01  4265   0.636E+00    0.103E+00
RMM:   2    -0.413454040924E+03    0.53201E-01   -0.42184E-01  5363   0.678E-01    0.841E-01
RMM:   3    -0.413489496558E+03   -0.35456E-01   -0.74203E-02  5470   0.307E-01    0.893E-01
RMM:   4    -0.413468480292E+03    0.21016E-01   -0.55761E-02  5150   0.244E-01    0.551E-01
RMM:   5    -0.413455725119E+03    0.12755E-01   -0.23962E-02  5073   0.198E-01    0.160E-01
RMM:   6    -0.413454570457E+03    0.11547E-02   -0.27967E-03  4532   0.802E-02    0.540E-02
RMM:   7    -0.413454568072E+03    0.23845E-05   -0.95213E-04  5586   0.369E-02    0.382E-02
RMM:   8    -0.413454579773E+03   -0.11701E-04   -0.21640E-04  5488   0.173E-02    0.232E-02
RMM:   9    -0.413454576529E+03    0.32439E-05   -0.77002E-05  5361   0.103E-02    0.115E-02
RMM:  10    -0.413454571683E+03    0.48457E-05   -0.35159E-05  5502   0.669E-03    0.647E-03
RMM:  11    -0.413454572556E+03   -0.87271E-06   -0.69475E-06  3373   0.344E-03
  149 T=   119. E= -.41286902E+03 F= -.41345457E+03 E0= -.41343072E+03  EK= 0.58555E+00 SP= 0.00E+00 SK= 0.00E+00
       N       E                     dE             d eps       ncg     rms          rms(c)
RMM:   1    -0.413437098148E+03    0.17474E-01   -0.10437E+01  4264   0.566E+00    0.949E-01
RMM:   2    -0.413403238182E+03    0.33860E-01   -0.30841E-01  5392   0.589E-01    0.737E-01
RMM:   3    -0.413454997496E+03   -0.51759E-01   -0.83724E-02  5389   0.315E-01    0.103E+00
RMM:   4    -0.413410292210E+03    0.44705E-01   -0.51632E-02  5121   0.246E-01    0.425E-01
RMM:   5    -0.413403313397E+03    0.69788E-02   -0.19608E-02  5010   0.184E-01    0.107E-01
RMM:   6    -0.413403062480E+03    0.25092E-03   -0.21820E-03  5474   0.636E-02    0.565E-02
RMM:   7    -0.413403015365E+03    0.47115E-04   -0.62148E-04  5145   0.299E-02    0.380E-02
RMM:   8    -0.413403008749E+03    0.66159E-05   -0.34641E-04  5449   0.225E-02    0.274E-02
RMM:   9    -0.413402999922E+03    0.88270E-05   -0.95404E-05  5598   0.121E-02    0.211E-02
RMM:  10    -0.413402990080E+03    0.98423E-05   -0.56572E-05  5318   0.943E-03    0.654E-03
RMM:  11    -0.413402990651E+03   -0.57114E-06   -0.24032E-05  5016   0.528E-03    0.626E-03
RMM:  12    -0.413402988868E+03    0.17828E-05   -0.27366E-06  2712   0.282E-03    0.310E-03
RMM:  13    -0.413402988651E+03    0.21739E-06   -0.13474E-06  2494   0.193E-03
  150 T=   109. E= -.41286598E+03 F= -.41340299E+03 E0= -.41337905E+03  EK= 0.53701E+00 SP= 0.00E+00 SK= 0.00E+00
