       N       E                     dE             d eps       ncg     rms          rms(c)
RMM:   1     0.220154214540E+04    0.22015E+04   -0.52439E+04  2132   0.654E+02
RMM:   2     0.705459147434E+03   -0.14961E+04   -0.16264E+04  2132   0.177E+02
RMM:   3     0.137834649916E+03   -0.56762E+03   -0.65730E+03  2132   0.117E+02
RMM:   4    -0.159407335394E+03   -0.29724E+03   -0.27859E+03  2132   0.936E+01
RMM:   5    -0.287589713049E+03   -0.12818E+03   -0.11446E+03  2132   0.595E+01
RMM:   6    -0.349792108285E+03   -0.62202E+02   -0.55093E+02  2132   0.423E+01
RMM:   7    -0.382783194503E+03   -0.32991E+02   -0.30465E+02  2132   0.293E+01
RMM:   8    -0.404251229110E+03   -0.21468E+02   -0.18431E+02  2132   0.233E+01
RMM:   9    -0.436040054628E+03   -0.31789E+02   -0.30677E+02  6105   0.173E+01
RMM:  10    -0.441282083769E+03   -0.52420E+01   -0.62638E+01  6395   0.538E+00
RMM:  11    -0.442499159427E+03   -0.12171E+01   -0.11104E+01  6221   0.173E+00
RMM:  12    -0.442884229357E+03   -0.38507E+00   -0.27577E+00  6368   0.605E-01    0.134E+02
RMM:  13    -0.425575397756E+03    0.17309E+02   -0.80637E+01  4672   0.119E+01    0.712E+01
RMM:  14    -0.498777311390E+03   -0.73202E+02   -0.53651E+02  5426   0.232E+01    0.306E+01
RMM:  15    -0.415235539583E+03    0.83542E+02   -0.19817E+02  5069   0.163E+01    0.655E+00
RMM:  16    -0.414067772039E+03    0.11678E+01   -0.39322E+01  6080   0.607E+00    0.431E+00
RMM:  17    -0.413219662491E+03    0.84811E+00   -0.23989E+00  5362   0.185E+00    0.246E+00
RMM:  18    -0.413170468151E+03    0.49194E-01   -0.83266E-01  5977   0.941E-01    0.163E+00
RMM:  19    -0.413168356642E+03    0.21115E-02   -0.27250E-01  5711   0.560E-01    0.860E-01
RMM:  20    -0.413184602769E+03   -0.16246E-01   -0.23765E-01  5447   0.524E-01    0.567E-01
RMM:  21    -0.413167151839E+03    0.17451E-01   -0.32650E-02  4993   0.232E-01    0.262E-01
RMM:  22    -0.413165168021E+03    0.19838E-02   -0.16113E-02  6054   0.112E-01    0.142E-01
RMM:  23    -0.413163953879E+03    0.12141E-02   -0.58378E-03  5925   0.705E-02    0.844E-02
RMM:  24    -0.413162840739E+03    0.11131E-02   -0.15569E-03  5275   0.399E-02    0.432E-02
RMM:  25    -0.413162535036E+03    0.30570E-03   -0.82882E-04  5469   0.261E-02    0.330E-02
RMM:  26    -0.413162736544E+03   -0.20151E-03   -0.82255E-04  5807   0.293E-02    0.329E-02
RMM:  27    -0.413163149419E+03   -0.41287E-03   -0.19159E-04  4557   0.190E-02    0.196E-02
RMM:  28    -0.413163615251E+03   -0.46583E-03   -0.19400E-04  5225   0.195E-02    0.918E-03
RMM:  29    -0.413163993229E+03   -0.37798E-03   -0.10880E-04  4470   0.149E-02    0.426E-03
RMM:  30    -0.413164212314E+03   -0.21908E-03   -0.76946E-05  4183   0.985E-03    0.331E-03
RMM:  31    -0.413164336171E+03   -0.12386E-03   -0.51214E-05  3201   0.650E-03    0.315E-03
RMM:  32    -0.413164362699E+03   -0.26529E-04   -0.21322E-05  2952   0.298E-03    0.159E-03
RMM:  33    -0.413164374483E+03   -0.11784E-04   -0.89164E-06  2773   0.209E-03    0.576E-04
RMM:  34    -0.413164378631E+03   -0.41475E-05   -0.49363E-06  2686   0.173E-03    0.878E-04
RMM:  35    -0.413164378859E+03   -0.22822E-06   -0.23774E-06  2301   0.119E-03
    1 T=    61. E= -.41286656E+03 F= -.41316438E+03 E0= -.41314188E+03  EK= 0.29782E+00 SP= 0.00E+00 SK= 0.00E+00
       N       E                     dE             d eps       ncg     rms          rms(c)
RMM:   1    -0.413154660722E+03    0.97179E-02   -0.11105E+01  3981   0.695E-01    0.886E-01
RMM:   2    -0.413165557313E+03   -0.10897E-01   -0.13688E-01  3801   0.100E-01    0.641E-01
RMM:   3    -0.413163872295E+03    0.16850E-02   -0.64341E-03  4473   0.339E-02    0.147E-01
RMM:   4    -0.413170577249E+03   -0.67050E-02   -0.72979E-03  5223   0.716E-02    0.344E-01
RMM:   5    -0.413163834418E+03    0.67428E-02   -0.33675E-03  4861   0.571E-02    0.219E-02
RMM:   6    -0.413163858934E+03   -0.24515E-04   -0.56055E-04  5809   0.228E-02    0.146E-02
RMM:   7    -0.413163870642E+03   -0.11708E-04   -0.80893E-05  5260   0.819E-03    0.837E-03
RMM:   8    -0.413163879477E+03   -0.88354E-05   -0.92776E-06  3152   0.331E-03    0.363E-03
RMM:   9    -0.413163885827E+03   -0.63498E-05   -0.22154E-06  2616   0.189E-03    0.250E-03
RMM:  10    -0.413163892142E+03   -0.63148E-05   -0.10611E-06  2488   0.144E-03    0.149E-03
RMM:  11    -0.413163899442E+03   -0.72998E-05   -0.95345E-07  2388   0.125E-03    0.398E-04
RMM:  12    -0.413163901751E+03   -0.23096E-05   -0.46532E-07  1776   0.897E-04    0.234E-04
RMM:  13    -0.413163903689E+03   -0.19375E-05   -0.32885E-07  1408   0.769E-04    0.136E-04
RMM:  14    -0.413163905956E+03   -0.22674E-05   -0.29822E-07  1412   0.739E-04    0.783E-05
RMM:  15    -0.413163906878E+03   -0.92163E-06   -0.20936E-07  1240   0.670E-04
    2 T=    61. E= -.41286623E+03 F= -.41316391E+03 E0= -.41314141E+03  EK= 0.29768E+00 SP= 0.00E+00 SK= 0.00E+00
       N       E                     dE             d eps       ncg     rms          rms(c)
RMM:   1    -0.413155805039E+03    0.81009E-02   -0.11137E+01  4193   0.701E-01    0.911E-01
RMM:   2    -0.413165685226E+03   -0.98802E-02   -0.13424E-01  3841   0.959E-02    0.633E-01
RMM:   3    -0.413164931297E+03    0.75393E-03   -0.69759E-03  4897   0.388E-02    0.169E-01
RMM:   4    -0.413195179033E+03   -0.30248E-01   -0.30843E-02  5185   0.146E-01    0.724E-01
RMM:   5    -0.413164467012E+03    0.30712E-01   -0.14911E-02  4828   0.122E-01    0.384E-02
RMM:   6    -0.413164658513E+03   -0.19150E-03   -0.24452E-03  5801   0.479E-02    0.199E-02
RMM:   7    -0.413164672222E+03   -0.13709E-04   -0.29463E-04  5927   0.143E-02    0.145E-02
RMM:   8    -0.413164672875E+03   -0.65314E-06   -0.39008E-05  4614   0.565E-03    0.846E-03
RMM:   9    -0.413164672154E+03    0.72111E-06   -0.70374E-06  3122   0.296E-03
    3 T=    61. E= -.41286680E+03 F= -.41316467E+03 E0= -.41314218E+03  EK= 0.29787E+00 SP= 0.00E+00 SK= 0.00E+00
       N       E                     dE             d eps       ncg     rms          rms(c)
RMM:   1    -0.413155453040E+03    0.92198E-02   -0.11051E+01  4226   0.703E-01    0.894E-01
RMM:   2    -0.413165792088E+03   -0.10339E-01   -0.13289E-01  4240   0.991E-02    0.627E-01
RMM:   3    -0.413169040927E+03   -0.32488E-02   -0.10277E-02  5184   0.723E-02    0.327E-01
RMM:   4    -0.413189452255E+03   -0.20411E-01   -0.37803E-02  5130   0.165E-01    0.661E-01
RMM:   5    -0.413164353739E+03    0.25099E-01   -0.10126E-02  4723   0.110E-01    0.531E-02
RMM:   6    -0.413164367037E+03   -0.13299E-04   -0.17517E-03  5529   0.420E-02    0.180E-02
RMM:   7    -0.413164387572E+03   -0.20535E-04   -0.26525E-04  6028   0.146E-02    0.124E-02
RMM:   8    -0.413164390583E+03   -0.30116E-05   -0.36361E-05  4885   0.581E-03    0.708E-03
RMM:   9    -0.413164392712E+03   -0.21288E-05   -0.80170E-06  3303   0.373E-03    0.365E-03
RMM:  10    -0.413164394355E+03   -0.16429E-05   -0.15641E-06  2543   0.204E-03    0.220E-03
RMM:  11    -0.413164396726E+03   -0.23705E-05   -0.11372E-06  2544   0.165E-03    0.117E-03
RMM:  12    -0.413164397927E+03   -0.12014E-05   -0.51945E-07  2330   0.115E-03    0.465E-04
RMM:  13    -0.413164399168E+03   -0.12406E-05   -0.36742E-07  1683   0.869E-04    0.235E-04
RMM:  14    -0.413164399743E+03   -0.57571E-06   -0.21103E-07  1402   0.736E-04
    4 T=    61. E= -.41286658E+03 F= -.41316440E+03 E0= -.41314191E+03  EK= 0.29782E+00 SP= 0.00E+00 SK= 0.00E+00
       N       E                     dE             d eps       ncg     rms          rms(c)
RMM:   1    -0.413155179822E+03    0.92193E-02   -0.11088E+01  4236   0.708E-01    0.884E-01
RMM:   2    -0.413166064701E+03   -0.10885E-01   -0.13681E-01  3908   0.959E-02    0.639E-01
RMM:   3    -0.413164771511E+03    0.12932E-02   -0.65287E-03  4895   0.371E-02    0.161E-01
RMM:   4    -0.413194182807E+03   -0.29411E-01   -0.29959E-02  5168   0.144E-01    0.715E-01
RMM:   5    -0.413164286735E+03    0.29896E-01   -0.14522E-02  4819   0.119E-01    0.360E-02
RMM:   6    -0.413164473903E+03   -0.18717E-03   -0.23296E-03  5803   0.468E-02    0.179E-02
RMM:   7    -0.413164491277E+03   -0.17374E-04   -0.27887E-04  5877   0.138E-02    0.135E-02
RMM:   8    -0.413164496539E+03   -0.52619E-05   -0.36594E-05  4510   0.549E-03    0.798E-03
RMM:   9    -0.413164500957E+03   -0.44187E-05   -0.65847E-06  3049   0.291E-03    0.533E-03
RMM:  10    -0.413164506830E+03   -0.58730E-05   -0.19077E-06  2553   0.200E-03    0.294E-03
RMM:  11    -0.413164512697E+03   -0.58666E-05   -0.14228E-06  2544   0.176E-03    0.144E-03
RMM:  12    -0.413164516602E+03   -0.39056E-05   -0.77889E-07  2440   0.135E-03    0.459E-04
RMM:  13    -0.413164517654E+03   -0.10510E-05   -0.32175E-07  1992   0.923E-04    0.288E-04
RMM:  14    -0.413164518766E+03   -0.11124E-05   -0.19384E-07  1474   0.756E-04    0.170E-04
RMM:  15    -0.413164520622E+03   -0.18564E-05   -0.23369E-07  1545   0.761E-04    0.134E-04
RMM:  16    -0.413164520818E+03   -0.19543E-06   -0.88303E-08  1060   0.622E-04
    5 T=    61. E= -.41286660E+03 F= -.41316452E+03 E0= -.41314204E+03  EK= 0.29792E+00 SP= 0.00E+00 SK= 0.00E+00
       N       E                     dE             d eps       ncg     rms          rms(c)
RMM:   1    -0.413156161940E+03    0.83587E-02   -0.11140E+01  4248   0.714E-01    0.906E-01
RMM:   2    -0.413166226612E+03   -0.10065E-01   -0.13399E-01  3915   0.955E-02    0.635E-01
RMM:   3    -0.413165302986E+03    0.92363E-03   -0.67635E-03  4851   0.367E-02    0.166E-01
RMM:   4    -0.413193683464E+03   -0.28380E-01   -0.28747E-02  5165   0.141E-01    0.702E-01
RMM:   5    -0.413164895232E+03    0.28788E-01   -0.14013E-02  4820   0.117E-01    0.367E-02
RMM:   6    -0.413165071427E+03   -0.17620E-03   -0.22318E-03  5784   0.459E-02    0.192E-02
RMM:   7    -0.413165082631E+03   -0.11204E-04   -0.27303E-04  5880   0.137E-02    0.139E-02
RMM:   8    -0.413165083252E+03   -0.62141E-06   -0.35641E-05  4522   0.550E-03    0.810E-03
RMM:   9    -0.413165082726E+03    0.52674E-06   -0.65448E-06  3041   0.293E-03
    6 T=    61. E= -.41286682E+03 F= -.41316508E+03 E0= -.41314262E+03  EK= 0.29826E+00 SP= 0.00E+00 SK= 0.00E+00
       N       E                     dE             d eps       ncg     rms          rms(c)
RMM:   1    -0.413155847103E+03    0.92361E-02   -0.11085E+01  4269   0.720E-01    0.901E-01
RMM:   2    -0.413165578950E+03   -0.97318E-02   -0.13349E-01  4261   0.990E-02    0.628E-01
RMM:   3    -0.413168861328E+03   -0.32824E-02   -0.10135E-02  5162   0.691E-02    0.316E-01
RMM:   4    -0.413190812701E+03   -0.21951E-01   -0.38269E-02  5115   0.166E-01    0.675E-01
RMM:   5    -0.413164600519E+03    0.26212E-01   -0.10743E-02  4721   0.112E-01    0.532E-02
RMM:   6    -0.413164629008E+03   -0.28489E-04   -0.18479E-03  5537   0.429E-02    0.181E-02
RMM:   7    -0.413164648828E+03   -0.19820E-04   -0.27151E-04  6035   0.146E-02    0.125E-02
RMM:   8    -0.413164650070E+03   -0.12414E-05   -0.37550E-05  4860   0.586E-03    0.712E-03
RMM:   9    -0.413164648617E+03    0.14523E-05   -0.77562E-06  3206   0.370E-03    0.359E-03
RMM:  10    -0.413164648767E+03   -0.14938E-06   -0.16246E-06  2542   0.205E-03
    7 T=    61. E= -.41286621E+03 F= -.41316465E+03 E0= -.41314220E+03  EK= 0.29844E+00 SP= 0.00E+00 SK= 0.00E+00
       N       E                     dE             d eps       ncg     rms          rms(c)
RMM:   1    -0.413158494919E+03    0.61537E-02   -0.11116E+01  4276   0.748E-01    0.883E-01
RMM:   2    -0.413166758521E+03   -0.82636E-02   -0.13659E-01  4004   0.960E-02    0.637E-01
RMM:   3    -0.413165833328E+03    0.92519E-03   -0.66368E-03  4974   0.397E-02    0.171E-01
RMM:   4    -0.413202838702E+03   -0.37005E-01   -0.38207E-02  5148   0.162E-01    0.799E-01
RMM:   5    -0.413165176494E+03    0.37662E-01   -0.18208E-02  4811   0.134E-01    0.418E-02
RMM:   6    -0.413165388016E+03   -0.21152E-03   -0.28913E-03  5765   0.525E-02    0.181E-02
RMM:   7    -0.413165412586E+03   -0.24570E-04   -0.35792E-04  5932   0.153E-02    0.140E-02
RMM:   8    -0.413165417305E+03   -0.47181E-05   -0.42055E-05  4524   0.572E-03    0.805E-03
RMM:   9    -0.413165420774E+03   -0.34691E-05   -0.76366E-06  3081   0.297E-03    0.530E-03
RMM:  10    -0.413165425548E+03   -0.47744E-05   -0.22359E-06  2561   0.210E-03    0.284E-03
RMM:  11    -0.413165429886E+03   -0.43384E-05   -0.14308E-06  2543   0.175E-03    0.134E-03
RMM:  12    -0.413165432461E+03   -0.25744E-05   -0.78318E-07  2448   0.134E-03    0.418E-04
RMM:  13    -0.413165433420E+03   -0.95895E-06   -0.35890E-07  2008   0.945E-04
    8 T=    61. E= -.41286656E+03 F= -.41316543E+03 E0= -.41314300E+03  EK= 0.29887E+00 SP= 0.00E+00 SK= 0.00E+00
       N       E                     dE             d eps       ncg     rms          rms(c)
RMM:   1    -0.413156454277E+03    0.89782E-02   -0.11157E+01  4287   0.726E-01    0.901E-01
RMM:   2    -0.413166783502E+03   -0.10329E-01   -0.13546E-01  4107   0.993E-02    0.638E-01
RMM:   3    -0.413165676749E+03    0.11068E-02   -0.66627E-03  4737   0.385E-02    0.160E-01
RMM:   4    -0.413187859705E+03   -0.22183E-01   -0.22345E-02  5147   0.125E-01    0.624E-01
RMM:   5    -0.413165287459E+03    0.22572E-01   -0.11116E-02  4823   0.103E-01    0.321E-02
RMM:   6    -0.413165428170E+03   -0.14071E-03   -0.17483E-03  5795   0.402E-02    0.180E-02
RMM:   7    -0.413165436463E+03   -0.82925E-05   -0.20918E-04  5793   0.123E-02    0.128E-02
RMM:   8    -0.413165437211E+03   -0.74814E-06   -0.28775E-05  4387   0.513E-03    0.741E-03
RMM:   9    -0.413165437178E+03    0.32524E-07   -0.55276E-06  2935   0.282E-03
    9 T=    61. E= -.41286640E+03 F= -.41316544E+03 E0= -.41314303E+03  EK= 0.29904E+00 SP= 0.00E+00 SK= 0.00E+00
       N       E                     dE             d eps       ncg     rms          rms(c)
RMM:   1    -0.413156878443E+03    0.85588E-02   -0.11139E+01  4290   0.731E-01    0.909E-01
RMM:   2    -0.413166500886E+03   -0.96224E-02   -0.13363E-01  4292   0.966E-02    0.630E-01
RMM:   3    -0.413169770782E+03   -0.32699E-02   -0.10231E-02  5154   0.701E-02    0.317E-01
RMM:   4    -0.413191466356E+03   -0.21696E-01   -0.37913E-02  5105   0.165E-01    0.673E-01
RMM:   5    -0.413165589389E+03    0.25877E-01   -0.10630E-02  4727   0.111E-01    0.525E-02
RMM:   6    -0.413165619730E+03   -0.30341E-04   -0.18327E-03  5550   0.424E-02    0.185E-02
RMM:   7    -0.413165637071E+03   -0.17341E-04   -0.26510E-04  6026   0.145E-02    0.127E-02
RMM:   8    -0.413165637209E+03   -0.13848E-06   -0.36976E-05  4856   0.584E-03    0.714E-03
RMM:   9    -0.413165633703E+03    0.35066E-05   -0.75006E-06  3113   0.362E-03    0.355E-03
RMM:  10    -0.413165632911E+03    0.79153E-06   -0.16032E-06  2540   0.203E-03
   10 T=    61. E= -.41286641E+03 F= -.41316563E+03 E0= -.41314325E+03  EK= 0.29923E+00 SP= 0.00E+00 SK= 0.00E+00
       N       E                     dE             d eps       ncg     rms          rms(c)
RMM:   1    -0.413157062753E+03    0.85710E-02   -0.11088E+01  4296   0.732E-01    0.884E-01
RMM:   2    -0.413167808996E+03   -0.10746E-01   -0.13530E-01  4148   0.952E-02    0.634E-01
RMM:   3    -0.413166881359E+03    0.92764E-03   -0.65796E-03  4966   0.420E-02    0.175E-01
RMM:   4    -0.413205050092E+03   -0.38169E-01   -0.39548E-02  5142   0.165E-01    0.812E-01
RMM:   5    -0.413166134218E+03    0.38916E-01   -0.18951E-02  4814   0.136E-01    0.417E-02
RMM:   6    -0.413166339883E+03   -0.20566E-03   -0.28808E-03  5752   0.530E-02    0.187E-02
RMM:   7    -0.413166359959E+03   -0.20077E-04   -0.36066E-04  5934   0.155E-02    0.143E-02
RMM:   8    -0.413166362190E+03   -0.22309E-05   -0.43397E-05  4592   0.584E-03    0.827E-03
RMM:   9    -0.413166363095E+03   -0.90511E-06   -0.79540E-06  3131   0.304E-03
   11 T=    61. E= -.41286670E+03 F= -.41316636E+03 E0= -.41314400E+03  EK= 0.29966E+00 SP= 0.00E+00 SK= 0.00E+00
       N       E                     dE             d eps       ncg     rms          rms(c)
RMM:   1    -0.413157468232E+03    0.88940E-02   -0.11172E+01  4302   0.751E-01    0.895E-01
RMM:   2    -0.413167539039E+03   -0.10071E-01   -0.13704E-01  4289   0.991E-02    0.641E-01
RMM:   3    -0.413169942329E+03   -0.24033E-02   -0.95072E-03  5142   0.681E-02    0.300E-01
RMM:   4    -0.413198481576E+03   -0.28539E-01   -0.44004E-02  5108   0.176E-01    0.745E-01
RMM:   5    -0.413166092199E+03    0.32389E-01   -0.13648E-02  4730   0.124E-01    0.536E-02
RMM:   6    -0.413166165436E+03   -0.73237E-04   -0.22973E-03  5613   0.474E-02    0.163E-02
RMM:   7    -0.413166190966E+03   -0.25530E-04   -0.31214E-04  6041   0.152E-02    0.123E-02
RMM:   8    -0.413166194320E+03   -0.33543E-05   -0.41678E-05  4895   0.597E-03    0.712E-03
RMM:   9    -0.413166195965E+03   -0.16448E-05   -0.76257E-06  3044   0.352E-03    0.360E-03
RMM:  10    -0.413166197617E+03   -0.16519E-05   -0.19951E-06  2557   0.208E-03    0.209E-03
RMM:  11    -0.413166199386E+03   -0.17695E-05   -0.11643E-06  2545   0.159E-03    0.112E-03
RMM:  12    -0.413166200065E+03   -0.67885E-06   -0.53962E-07  2237   0.111E-03
   12 T=    61. E= -.41286624E+03 F= -.41316620E+03 E0= -.41314387E+03  EK= 0.29996E+00 SP= 0.00E+00 SK= 0.00E+00
       N       E                     dE             d eps       ncg     rms          rms(c)
RMM:   1    -0.413158098656E+03    0.81007E-02   -0.11193E+01  4296   0.745E-01    0.914E-01
RMM:   2    -0.413167772164E+03   -0.96735E-02   -0.13402E-01  4212   0.957E-02    0.632E-01
RMM:   3    -0.413167287642E+03    0.48452E-03   -0.70695E-03  4966   0.385E-02    0.176E-01
RMM:   4    -0.413202204255E+03   -0.34917E-01   -0.35955E-02  5141   0.157E-01    0.777E-01
RMM:   5    -0.413166701140E+03    0.35503E-01   -0.17299E-02  4804   0.130E-01    0.410E-02
RMM:   6    -0.413166907629E+03   -0.20649E-03   -0.27874E-03  5782   0.509E-02    0.209E-02
RMM:   7    -0.413166918891E+03   -0.11261E-04   -0.33450E-04  5900   0.152E-02    0.152E-02
RMM:   8    -0.413166916255E+03    0.26358E-05   -0.44699E-05  4741   0.604E-03    0.929E-03
RMM:   9    -0.413166911293E+03    0.49621E-05   -0.80335E-06  3184   0.310E-03    0.615E-03
RMM:  10    -0.413166907358E+03    0.39345E-05   -0.20612E-06  2550   0.209E-03    0.334E-03
RMM:  11    -0.413166903979E+03    0.33788E-05   -0.15861E-06  2541   0.189E-03    0.159E-03
RMM:  12    -0.413166901169E+03    0.28101E-05   -0.83206E-07  2462   0.146E-03    0.491E-04
RMM:  13    -0.413166900445E+03    0.72472E-06   -0.33922E-07  2118   0.983E-04
   13 T=    61. E= -.41286633E+03 F= -.41316690E+03 E0= -.41314460E+03  EK= 0.30057E+00 SP= 0.00E+00 SK= 0.00E+00
       N       E                     dE             d eps       ncg     rms          rms(c)
RMM:   1    -0.413158161001E+03    0.87402E-02   -0.11115E+01  4295   0.745E-01    0.889E-01
RMM:   2    -0.413168634919E+03   -0.10474E-01   -0.13571E-01  4221   0.944E-02    0.632E-01
RMM:   3    -0.413167726377E+03    0.90854E-03   -0.65527E-03  4888   0.382E-02    0.169E-01
RMM:   4    -0.413199233021E+03   -0.31507E-01   -0.32230E-02  5142   0.149E-01    0.739E-01
RMM:   5    -0.413167195261E+03    0.32038E-01   -0.15635E-02  4808   0.123E-01    0.375E-02
RMM:   6    -0.413167391097E+03   -0.19584E-03   -0.25229E-03  5779   0.482E-02    0.190E-02
RMM:   7    -0.413167404120E+03   -0.13023E-04   -0.29644E-04  5875   0.143E-02    0.141E-02
RMM:   8    -0.413167404045E+03    0.75852E-07   -0.39407E-05  4612   0.573E-03    0.861E-03
RMM:   9    -0.413167402056E+03    0.19888E-05   -0.73155E-06  3125   0.303E-03    0.578E-03
RMM:  10    -0.413167401529E+03    0.52644E-06   -0.19576E-06  2548   0.205E-03
   14 T=    61. E= -.41286626E+03 F= -.41316740E+03 E0= -.41314513E+03  EK= 0.30115E+00 SP= 0.00E+00 SK= 0.00E+00
       N       E                     dE             d eps       ncg     rms          rms(c)
RMM:   1    -0.413158201330E+03    0.92007E-02   -0.11207E+01  4304   0.754E-01    0.892E-01
RMM:   2    -0.413169345253E+03   -0.11144E-01   -0.13816E-01  4298   0.100E-01    0.643E-01
RMM:   3    -0.413171130448E+03   -0.17852E-02   -0.92661E-03  5115   0.663E-02    0.293E-01
RMM:   4    -0.413202134224E+03   -0.31004E-01   -0.46085E-02  5103   0.180E-01    0.770E-01
RMM:   5    -0.413167486310E+03    0.34648E-01   -0.14750E-02  4725   0.128E-01    0.513E-02
RMM:   6    -0.413167591307E+03   -0.10500E-03   -0.24706E-03  5615   0.489E-02    0.157E-02
RMM:   7    -0.413167616985E+03   -0.25678E-04   -0.32098E-04  6013   0.150E-02    0.122E-02
RMM:   8    -0.413167620574E+03   -0.35891E-05   -0.41048E-05  4830   0.590E-03    0.690E-03
RMM:   9    -0.413167621867E+03   -0.12929E-05   -0.70553E-06  2963   0.326E-03    0.330E-03
RMM:  10    -0.413167623281E+03   -0.14139E-05   -0.20735E-06  2552   0.202E-03    0.195E-03
RMM:  11    -0.413167624527E+03   -0.12456E-05   -0.10529E-06  2530   0.149E-03    0.100E-03
RMM:  12    -0.413167625044E+03   -0.51701E-06   -0.52373E-07  2065   0.108E-03
   15 T=    61. E= -.41286606E+03 F= -.41316763E+03 E0= -.41314539E+03  EK= 0.30156E+00 SP= 0.00E+00 SK= 0.00E+00
       N       E                     dE             d eps       ncg     rms          rms(c)
RMM:   1    -0.413162153986E+03    0.54705E-02   -0.11271E+01  4303   0.789E-01    0.916E-01
RMM:   2    -0.413169557411E+03   -0.74034E-02   -0.13774E-01  4245   0.103E-01    0.636E-01
RMM:   3    -0.413168870897E+03    0.68651E-03   -0.70392E-03  4941   0.404E-02    0.179E-01
RMM:   4    -0.413204563922E+03   -0.35693E-01   -0.36729E-02  5146   0.159E-01    0.785E-01
RMM:   5    -0.413168272007E+03    0.36292E-01   -0.17686E-02  4799   0.131E-01    0.410E-02
RMM:   6    -0.413168482506E+03   -0.21050E-03   -0.28869E-03  5792   0.515E-02    0.208E-02
RMM:   7    -0.413168492344E+03   -0.98382E-05   -0.34048E-04  5905   0.152E-02    0.153E-02
RMM:   8    -0.413168489162E+03    0.31814E-05   -0.44888E-05  4758   0.606E-03    0.946E-03
RMM:   9    -0.413168483524E+03    0.56380E-05   -0.81423E-06  3185   0.313E-03    0.627E-03
RMM:  10    -0.413168479005E+03    0.45198E-05   -0.20989E-06  2543   0.213E-03    0.339E-03
RMM:  11    -0.413168474914E+03    0.40907E-05   -0.16410E-06  2541   0.193E-03    0.163E-03
RMM:  12    -0.413168471625E+03    0.32889E-05   -0.82552E-07  2461   0.148E-03    0.511E-04
RMM:  13    -0.413168470771E+03    0.85379E-06   -0.33941E-07  2125   0.989E-04
   16 T=    61. E= -.41286641E+03 F= -.41316847E+03 E0= -.41314627E+03  EK= 0.30206E+00 SP= 0.00E+00 SK= 0.00E+00
       N       E                     dE             d eps       ncg     rms          rms(c)
RMM:   1    -0.413159666269E+03    0.88054E-02   -0.11155E+01  4296   0.758E-01    0.895E-01
RMM:   2    -0.413170205375E+03   -0.10539E-01   -0.13618E-01  4253   0.979E-02    0.632E-01
RMM:   3    -0.413169294008E+03    0.91137E-03   -0.66261E-03  4893   0.401E-02    0.173E-01
RMM:   4    -0.413203067506E+03   -0.33773E-01   -0.34662E-02  5139   0.154E-01    0.764E-01
RMM:   5    -0.413168731554E+03    0.34336E-01   -0.16772E-02  4801   0.128E-01    0.391E-02
RMM:   6    -0.413168929696E+03   -0.19814E-03   -0.27123E-03  5782   0.499E-02    0.198E-02
RMM:   7    -0.413168941082E+03   -0.11387E-04   -0.31648E-04  5897   0.149E-02    0.146E-02
RMM:   8    -0.413168939209E+03    0.18738E-05   -0.42358E-05  4678   0.587E-03    0.904E-03
RMM:   9    -0.413168934884E+03    0.43241E-05   -0.77945E-06  3158   0.308E-03    0.605E-03
RMM:  10    -0.413168931868E+03    0.30168E-05   -0.20341E-06  2546   0.210E-03    0.331E-03
RMM:  11    -0.413168929033E+03    0.28345E-05   -0.15848E-06  2532   0.190E-03    0.161E-03
RMM:  12    -0.413168926702E+03    0.23310E-05   -0.79910E-07  2456   0.144E-03    0.513E-04
RMM:  13    -0.413168926015E+03    0.68755E-06   -0.32996E-07  2113   0.972E-04
   17 T=    62. E= -.41286644E+03 F= -.41316893E+03 E0= -.41314677E+03  EK= 0.30249E+00 SP= 0.00E+00 SK= 0.00E+00
       N       E                     dE             d eps       ncg     rms          rms(c)
RMM:   1    -0.413160042299E+03    0.88844E-02   -0.11235E+01  4299   0.766E-01    0.890E-01
RMM:   2    -0.413171209089E+03   -0.11167E-01   -0.13859E-01  4258   0.101E-01    0.644E-01
RMM:   3    -0.413169927290E+03    0.12818E-02   -0.65596E-03  4900   0.399E-02    0.170E-01
RMM:   4    -0.413204829163E+03   -0.34902E-01   -0.36031E-02  5144   0.157E-01    0.777E-01
RMM:   5    -0.413169270768E+03    0.35558E-01   -0.17358E-02  4796   0.130E-01    0.391E-02
RMM:   6    -0.413169474854E+03   -0.20409E-03   -0.28132E-03  5781   0.509E-02    0.191E-02
RMM:   7    -0.413169490829E+03   -0.15975E-04   -0.32588E-04  5912   0.149E-02    0.145E-02
RMM:   8    -0.413169491652E+03   -0.82329E-06   -0.43307E-05  4714   0.592E-03    0.899E-03
RMM:   9    -0.413169490265E+03    0.13875E-05   -0.79082E-06  3167   0.312E-03    0.598E-03
RMM:  10    -0.413169490567E+03   -0.30219E-06   -0.21786E-06  2554   0.214E-03
   18 T=    62. E= -.41286636E+03 F= -.41316949E+03 E0= -.41314737E+03  EK= 0.30313E+00 SP= 0.00E+00 SK= 0.00E+00
       N       E                     dE             d eps       ncg     rms          rms(c)
RMM:   1    -0.413161733865E+03    0.77564E-02   -0.11292E+01  4303   0.771E-01    0.914E-01
RMM:   2    -0.413171686484E+03   -0.99526E-02   -0.13697E-01  4314   0.101E-01    0.639E-01
RMM:   3    -0.413174620430E+03   -0.29339E-02   -0.99637E-03  5127   0.688E-02    0.311E-01
RMM:   4    -0.413199494839E+03   -0.24874E-01   -0.41066E-02  5090   0.171E-01    0.708E-01
RMM:   5    -0.413170528924E+03    0.28966E-01   -0.12038E-02  4707   0.117E-01    0.496E-02
RMM:   6    -0.413170592462E+03   -0.63538E-04   -0.20430E-03  5594   0.445E-02    0.176E-02
RMM:   7    -0.413170606557E+03   -0.14095E-04   -0.26951E-04  5993   0.141E-02    0.125E-02
RMM:   8    -0.413170604126E+03    0.24312E-05   -0.36286E-05  4782   0.573E-03    0.691E-03
RMM:   9    -0.413170596917E+03    0.72086E-05   -0.65408E-06  2905   0.327E-03    0.319E-03
RMM:  10    -0.413170593967E+03    0.29504E-05   -0.17544E-06  2541   0.192E-03    0.183E-03
RMM:  11    -0.413170590230E+03    0.37372E-05   -0.88876E-07  2508   0.145E-03    0.990E-04
RMM:  12    -0.413170587731E+03    0.24990E-05   -0.45257E-07  2088   0.106E-03    0.481E-04
RMM:  13    -0.413170585158E+03    0.25725E-05   -0.30435E-07  1781   0.880E-04    0.221E-04
RMM:  14    -0.413170583538E+03    0.16197E-05   -0.18236E-07  1418   0.734E-04    0.139E-04
RMM:  15    -0.413170580553E+03    0.29851E-05   -0.20651E-07  1660   0.759E-04    0.126E-04
RMM:  16    -0.413170578974E+03    0.15795E-05   -0.11512E-07  1241   0.627E-04    0.114E-04
RMM:  17    -0.413170577020E+03    0.19536E-05   -0.96592E-08  1203   0.610E-04    0.463E-05
RMM:  18    -0.413170575365E+03    0.16558E-05   -0.70817E-08  1084   0.572E-04    0.297E-05
RMM:  19    -0.413170574845E+03    0.51941E-06   -0.34206E-08   819   0.521E-04
   19 T=    62. E= -.41286660E+03 F= -.41317057E+03 E0= -.41314850E+03  EK= 0.30398E+00 SP= 0.00E+00 SK= 0.00E+00
       N       E                     dE             d eps       ncg     rms          rms(c)
RMM:   1    -0.413176852694E+03   -0.62773E-02   -0.11389E+01  4297   0.841E-01    0.904E-01
RMM:   2    -0.413172204735E+03    0.46480E-02   -0.14943E-01  4254   0.102E-01    0.634E-01
RMM:   3    -0.413171545981E+03    0.65875E-03   -0.66647E-03  4944   0.389E-02    0.193E-01
RMM:   4    -0.413209400317E+03   -0.37854E-01   -0.39177E-02  5152   0.164E-01    0.808E-01
RMM:   5    -0.413170909653E+03    0.38491E-01   -0.18926E-02  4794   0.136E-01    0.420E-02
RMM:   6    -0.413171122004E+03   -0.21235E-03   -0.30643E-03  5761   0.535E-02    0.209E-02
RMM:   7    -0.413171134019E+03   -0.12015E-04   -0.36279E-04  5875   0.157E-02    0.154E-02
RMM:   8    -0.413171130774E+03    0.32451E-05   -0.47829E-05  4810   0.621E-03    0.956E-03
RMM:   9    -0.413171124696E+03    0.60782E-05   -0.87738E-06  3241   0.321E-03    0.640E-03
RMM:  10    -0.413171119805E+03    0.48911E-05   -0.21672E-06  2539   0.218E-03    0.344E-03
RMM:  11    -0.413171115810E+03    0.39951E-05   -0.16237E-06  2525   0.195E-03    0.169E-03
RMM:  12    -0.413171112760E+03    0.30494E-05   -0.81228E-07  2463   0.149E-03    0.525E-04
RMM:  13    -0.413171111971E+03    0.78973E-06   -0.34217E-07  2133   0.100E-03
   20 T=    62. E= -.41286636E+03 F= -.41317111E+03 E0= -.41314908E+03  EK= 0.30475E+00 SP= 0.00E+00 SK= 0.00E+00
       N       E                     dE             d eps       ncg     rms          rms(c)
RMM:   1    -0.413163270214E+03    0.78425E-02   -0.11292E+01  4298   0.792E-01    0.890E-01
RMM:   2    -0.413173599952E+03   -0.10330E-01   -0.14015E-01  4270   0.103E-01    0.644E-01
RMM:   3    -0.413172378200E+03    0.12218E-02   -0.66201E-03  4908   0.421E-02    0.174E-01
RMM:   4    -0.413209695931E+03   -0.37318E-01   -0.38774E-02  5139   0.163E-01    0.802E-01
RMM:   5    -0.413171675427E+03    0.38021E-01   -0.18649E-02  4791   0.135E-01    0.404E-02
RMM:   6    -0.413171890418E+03   -0.21499E-03   -0.30487E-03  5784   0.532E-02    0.195E-02
RMM:   7    -0.413171906992E+03   -0.16574E-04   -0.35318E-04  5910   0.155E-02    0.148E-02
RMM:   8    -0.413171906686E+03    0.30630E-06   -0.47483E-05  4780   0.615E-03    0.936E-03
RMM:   9    -0.413171903608E+03    0.30780E-05   -0.85448E-06  3230   0.322E-03    0.630E-03
RMM:  10    -0.413171902200E+03    0.14080E-05   -0.22987E-06  2555   0.224E-03    0.339E-03
RMM:  11    -0.413171901166E+03    0.10342E-05   -0.18114E-06  2560   0.200E-03    0.166E-03
RMM:  12    -0.413171900077E+03    0.10892E-05   -0.83358E-07  2463   0.148E-03    0.535E-04
RMM:  13    -0.413171899697E+03    0.37915E-06   -0.34218E-07  2118   0.989E-04
   21 T=    62. E= -.41286618E+03 F= -.41317190E+03 E0= -.41314991E+03  EK= 0.30572E+00 SP= 0.00E+00 SK= 0.00E+00
       N       E                     dE             d eps       ncg     rms          rms(c)
RMM:   1    -0.413163764806E+03    0.81353E-02   -0.11366E+01  4299   0.783E-01    0.912E-01
RMM:   2    -0.413174345514E+03   -0.10581E-01   -0.13916E-01  4282   0.101E-01    0.643E-01
RMM:   3    -0.413173491996E+03    0.85352E-03   -0.68355E-03  4859   0.421E-02    0.176E-01
RMM:   4    -0.413208796664E+03   -0.35305E-01   -0.36304E-02  5142   0.158E-01    0.780E-01
RMM:   5    -0.413172924205E+03    0.35872E-01   -0.17650E-02  4793   0.131E-01    0.400E-02
RMM:   6    -0.413173125855E+03   -0.20165E-03   -0.28755E-03  5781   0.517E-02    0.204E-02
RMM:   7    -0.413173138096E+03   -0.12242E-04   -0.33376E-04  5886   0.153E-02    0.150E-02
RMM:   8    -0.413173135251E+03    0.28447E-05   -0.45299E-05  4770   0.609E-03    0.941E-03
RMM:   9    -0.413173129303E+03    0.59485E-05   -0.83185E-06  3224   0.318E-03    0.629E-03
RMM:  10    -0.413173124558E+03    0.47448E-05   -0.20553E-06  2540   0.215E-03    0.344E-03
RMM:  11    -0.413173120016E+03    0.45420E-05   -0.16275E-06  2527   0.196E-03    0.166E-03
RMM:  12    -0.413173116588E+03    0.34284E-05   -0.78978E-07  2458   0.147E-03    0.520E-04
RMM:  13    -0.413173115610E+03    0.97764E-06   -0.33156E-07  2121   0.984E-04
   22 T=    62. E= -.41286642E+03 F= -.41317312E+03 E0= -.41315117E+03  EK= 0.30669E+00 SP= 0.00E+00 SK= 0.00E+00
       N       E                     dE             d eps       ncg     rms          rms(c)
RMM:   1    -0.413164843113E+03    0.82735E-02   -0.11357E+01  4302   0.791E-01    0.915E-01
RMM:   2    -0.413174956841E+03   -0.10114E-01   -0.13752E-01  4276   0.105E-01    0.636E-01
RMM:   3    -0.413174275708E+03    0.68113E-03   -0.69471E-03  4864   0.441E-02    0.179E-01
RMM:   4    -0.413209611035E+03   -0.35335E-01   -0.36462E-02  5144   0.158E-01    0.782E-01
RMM:   5    -0.413173576815E+03    0.36034E-01   -0.17745E-02  4798   0.132E-01    0.407E-02
RMM:   6    -0.413173774973E+03   -0.19816E-03   -0.28971E-03  5788   0.520E-02    0.211E-02
RMM:   7    -0.413173784966E+03   -0.99934E-05   -0.33679E-04  5893   0.154E-02    0.153E-02
RMM:   8    -0.413173779841E+03    0.51248E-05   -0.46450E-05  4796   0.622E-03    0.965E-03
RMM:   9    -0.413173771721E+03    0.81199E-05   -0.85214E-06  3247   0.326E-03    0.643E-03
RMM:  10    -0.413173764517E+03    0.72045E-05   -0.20953E-06  2543   0.221E-03    0.355E-03
RMM:  11    -0.413173757441E+03    0.70764E-05   -0.16942E-06  2531   0.201E-03    0.169E-03
RMM:  12    -0.413173752246E+03    0.51943E-05   -0.80183E-07  2466   0.150E-03    0.526E-04
RMM:  13    -0.413173750911E+03    0.13357E-05   -0.33453E-07  2128   0.993E-04    0.346E-04
RMM:  14    -0.413173748986E+03    0.19246E-05   -0.17697E-07  1597   0.768E-04    0.190E-04
RMM:  15    -0.413173744683E+03    0.43031E-05   -0.18379E-07  1693   0.769E-04    0.186E-04
RMM:  16    -0.413173744120E+03    0.56261E-06   -0.66130E-08  1012   0.602E-04
   23 T=    63. E= -.41286613E+03 F= -.41317374E+03 E0= -.41315185E+03  EK= 0.30761E+00 SP= 0.00E+00 SK= 0.00E+00
       N       E                     dE             d eps       ncg     rms          rms(c)
RMM:   1    -0.413165724169E+03    0.80205E-02   -0.11355E+01  4293   0.791E-01    0.893E-01
RMM:   2    -0.413177090282E+03   -0.11366E-01   -0.14087E-01  4270   0.105E-01    0.644E-01
RMM:   3    -0.413175704363E+03    0.13859E-02   -0.65309E-03  4844   0.425E-02    0.172E-01
RMM:   4    -0.413208490409E+03   -0.32786E-01   -0.33558E-02  5149   0.152E-01    0.753E-01
RMM:   5    -0.413175178231E+03    0.33312E-01   -0.16547E-02  4802   0.126E-01    0.369E-02
RMM:   6    -0.413175354890E+03   -0.17666E-03   -0.25378E-03  5777   0.495E-02    0.192E-02
RMM:   7    -0.413175367775E+03   -0.12885E-04   -0.29477E-04  5862   0.147E-02    0.139E-02
RMM:   8    -0.413175366592E+03    0.11831E-05   -0.42058E-05  4734   0.593E-03    0.897E-03
RMM:   9    -0.413175362182E+03    0.44101E-05   -0.78366E-06  3199   0.316E-03    0.603E-03
RMM:  10    -0.413175359549E+03    0.26326E-05   -0.20050E-06  2549   0.212E-03    0.333E-03
RMM:  11    -0.413175357073E+03    0.24766E-05   -0.16478E-06  2533   0.195E-03    0.160E-03
RMM:  12    -0.413175355129E+03    0.19440E-05   -0.75384E-07  2445   0.143E-03    0.522E-04
RMM:  13    -0.413175354567E+03    0.56226E-06   -0.30916E-07  2096   0.950E-04
   24 T=    63. E= -.41286647E+03 F= -.41317535E+03 E0= -.41315351E+03  EK= 0.30888E+00 SP= 0.00E+00 SK= 0.00E+00
       N       E                     dE             d eps       ncg     rms          rms(c)
RMM:   1    -0.413167020879E+03    0.83342E-02   -0.11463E+01  4296   0.801E-01    0.909E-01
RMM:   2    -0.413177969833E+03   -0.10949E-01   -0.14086E-01  4279   0.106E-01    0.649E-01
RMM:   3    -0.413176647086E+03    0.13227E-02   -0.66705E-03  4831   0.420E-02    0.172E-01
RMM:   4    -0.413206964803E+03   -0.30318E-01   -0.30783E-02  5150   0.146E-01    0.724E-01
RMM:   5    -0.413176198426E+03    0.30766E-01   -0.15286E-02  4810   0.122E-01    0.359E-02
RMM:   6    -0.413176364232E+03   -0.16581E-03   -0.23780E-03  5790   0.475E-02    0.192E-02
RMM:   7    -0.413176375373E+03   -0.11141E-04   -0.26602E-04  5822   0.141E-02    0.133E-02
RMM:   8    -0.413176373479E+03    0.18941E-05   -0.40478E-05  4743   0.588E-03    0.901E-03
RMM:   9    -0.413176367673E+03    0.58060E-05   -0.80842E-06  3286   0.327E-03    0.603E-03
RMM:  10    -0.413176363615E+03    0.40582E-05   -0.19290E-06  2544   0.217E-03    0.338E-03
RMM:  11    -0.413176359254E+03    0.43614E-05   -0.16790E-06  2536   0.200E-03    0.161E-03
RMM:  12    -0.413176356185E+03    0.30689E-05   -0.71783E-07  2442   0.143E-03    0.513E-04
RMM:  13    -0.413176355369E+03    0.81590E-06   -0.29370E-07  2059   0.933E-04
   25 T=    63. E= -.41286644E+03 F= -.41317636E+03 E0= -.41315456E+03  EK= 0.30992E+00 SP= 0.00E+00 SK= 0.00E+00
       N       E                     dE             d eps       ncg     rms          rms(c)
RMM:   1    -0.413168411775E+03    0.79444E-02   -0.11489E+01  4291   0.810E-01    0.924E-01
RMM:   2    -0.413178425723E+03   -0.10014E-01   -0.13995E-01  4272   0.109E-01    0.641E-01
RMM:   3    -0.413177591503E+03    0.83422E-03   -0.69151E-03  4691   0.406E-02    0.170E-01
RMM:   4    -0.413197802429E+03   -0.20211E-01   -0.20396E-02  5148   0.119E-01    0.595E-01
RMM:   5    -0.413177303587E+03    0.20499E-01   -0.10228E-02  4815   0.988E-02    0.319E-02
RMM:   6    -0.413177404182E+03   -0.10059E-03   -0.16107E-03  5806   0.381E-02    0.180E-02
RMM:   7    -0.413177406278E+03   -0.20967E-05   -0.15928E-04  5527   0.113E-02    0.104E-02
RMM:   8    -0.413177397862E+03    0.84161E-05   -0.20063E-05  3753   0.425E-03    0.650E-03
RMM:   9    -0.413177389604E+03    0.82579E-05   -0.33434E-06  2625   0.230E-03    0.372E-03
RMM:  10    -0.413177383451E+03    0.61532E-05   -0.14608E-06  2530   0.179E-03    0.234E-03
RMM:  11    -0.413177377283E+03    0.61679E-05   -0.10008E-06  2487   0.164E-03    0.111E-03
RMM:  12    -0.413177372894E+03    0.43896E-05   -0.44140E-07  2286   0.115E-03    0.419E-04
RMM:  13    -0.413177371537E+03    0.13564E-05   -0.20337E-07  1620   0.796E-04    0.270E-04
RMM:  14    -0.413177368143E+03    0.33942E-05   -0.15861E-07  1541   0.749E-04    0.152E-04
RMM:  15    -0.413177364724E+03    0.34195E-05   -0.11533E-07  1351   0.687E-04    0.131E-04
RMM:  16    -0.413177363196E+03    0.15274E-05   -0.64364E-08  1029   0.607E-04    0.848E-05
RMM:  17    -0.413177358640E+03    0.45559E-05   -0.11277E-07  1488   0.687E-04    0.443E-05
RMM:  18    -0.413177357694E+03    0.94626E-06   -0.41928E-08   909   0.543E-04
   26 T=    63. E= -.41286622E+03 F= -.41317736E+03 E0= -.41315561E+03  EK= 0.31114E+00 SP= 0.00E+00 SK= 0.00E+00
       N       E                     dE             d eps       ncg     rms          rms(c)
RMM:   1    -0.413169482502E+03    0.78761E-02   -0.11456E+01  4293   0.810E-01    0.900E-01
RMM:   2    -0.413180573933E+03   -0.11091E-01   -0.14156E-01  4278   0.104E-01    0.644E-01
RMM:   3    -0.413179493887E+03    0.10800E-02   -0.65903E-03  4680   0.415E-02    0.168E-01
RMM:   4    -0.413201042419E+03   -0.21549E-01   -0.21731E-02  5154   0.123E-01    0.613E-01
RMM:   5    -0.413179209421E+03    0.21833E-01   -0.10877E-02  4809   0.102E-01    0.311E-02
RMM:   6    -0.413179321310E+03   -0.11189E-03   -0.17176E-03  5824   0.391E-02    0.174E-02
RMM:   7    -0.413179327160E+03   -0.58500E-05   -0.16938E-04  5579   0.116E-02    0.106E-02
RMM:   8    -0.413179324252E+03    0.29082E-05   -0.25782E-05  4271   0.481E-03    0.733E-03
RMM:   9    -0.413179319471E+03    0.47815E-05   -0.68834E-06  3194   0.305E-03    0.516E-03
RMM:  10    -0.413179316720E+03    0.27509E-05   -0.15083E-06  2534   0.200E-03    0.313E-03
RMM:  11    -0.413179312536E+03    0.41839E-05   -0.15301E-06  2534   0.191E-03    0.150E-03
RMM:  12    -0.413179309472E+03    0.30639E-05   -0.62628E-07  2419   0.135E-03    0.533E-04
RMM:  13    -0.413179308811E+03    0.66116E-06   -0.22621E-07  1930   0.863E-04
   27 T=    64. E= -.41286654E+03 F= -.41317931E+03 E0= -.41315761E+03  EK= 0.31277E+00 SP= 0.00E+00 SK= 0.00E+00
       N       E                     dE             d eps       ncg     rms          rms(c)
RMM:   1    -0.413170913000E+03    0.83965E-02   -0.11590E+01  4291   0.833E-01    0.908E-01
RMM:   2    -0.413181797108E+03   -0.10884E-01   -0.14467E-01  4269   0.108E-01    0.655E-01
RMM:   3    -0.413180459801E+03    0.13373E-02   -0.66764E-03  4492   0.425E-02    0.163E-01
RMM:   4    -0.413191342772E+03   -0.10883E-01   -0.11280E-02  5152   0.916E-02    0.440E-01
RMM:   5    -0.413180266744E+03    0.11076E-01   -0.54282E-03  4826   0.719E-02    0.244E-02
RMM:   6    -0.413180307105E+03   -0.40361E-04   -0.86165E-04  5850   0.273E-02    0.150E-02
RMM:   7    -0.413180310423E+03   -0.33175E-05   -0.95815E-05  5462   0.921E-03    0.965E-03
RMM:   8    -0.413180303915E+03    0.65076E-05   -0.17057E-05  4064   0.440E-03    0.545E-03
RMM:   9    -0.413180301076E+03    0.28391E-05   -0.35365E-06  2764   0.259E-03    0.382E-03
RMM:  10    -0.413180298079E+03    0.29975E-05   -0.81273E-07  2496   0.156E-03    0.235E-03
RMM:  11    -0.413180294098E+03    0.39803E-05   -0.82158E-07  2483   0.144E-03    0.112E-03
RMM:  12    -0.413180290750E+03    0.33486E-05   -0.45177E-07  2215   0.107E-03    0.369E-04
RMM:  13    -0.413180289974E+03    0.77561E-06   -0.15758E-07  1400   0.721E-04
   28 T=    64. E= -.41286602E+03 F= -.41318029E+03 E0= -.41315864E+03  EK= 0.31427E+00 SP= 0.00E+00 SK= 0.00E+00
       N       E                     dE             d eps       ncg     rms          rms(c)
RMM:   1    -0.413173548487E+03    0.67423E-02   -0.11668E+01  4288   0.841E-01    0.933E-01
RMM:   2    -0.413183587257E+03   -0.10039E-01   -0.14276E-01  4265   0.112E-01    0.647E-01
RMM:   3    -0.413182633631E+03    0.95363E-03   -0.70467E-03  4325   0.412E-02    0.167E-01
RMM:   4    -0.413185897625E+03   -0.32640E-02   -0.38857E-03  5152   0.531E-02    0.241E-01
RMM:   5    -0.413182628263E+03    0.32694E-02   -0.16050E-03  4822   0.395E-02    0.226E-02
RMM:   6    -0.413182627587E+03    0.67583E-06   -0.29458E-04  5741   0.168E-02    0.163E-02
RMM:   7    -0.413182616515E+03    0.11072E-04   -0.60017E-05  5070   0.785E-03    0.677E-03
RMM:   8    -0.413182607794E+03    0.87213E-05   -0.60785E-06  2961   0.311E-03    0.325E-03
RMM:   9    -0.413182603646E+03    0.41478E-05   -0.10358E-06  2512   0.171E-03    0.220E-03
RMM:  10    -0.413182596443E+03    0.72030E-05   -0.62567E-07  2407   0.129E-03    0.115E-03
RMM:  11    -0.413182590595E+03    0.58487E-05   -0.38151E-07  2061   0.993E-04    0.447E-04
RMM:  12    -0.413182586134E+03    0.44606E-05   -0.20721E-07  1588   0.796E-04    0.193E-04
RMM:  13    -0.413182582760E+03    0.33741E-05   -0.12806E-07  1287   0.693E-04    0.106E-04
RMM:  14    -0.413182578397E+03    0.43627E-05   -0.11461E-07  1430   0.689E-04    0.937E-05
RMM:  15    -0.413182574398E+03    0.39990E-05   -0.90896E-08  1331   0.642E-04    0.906E-05
RMM:  16    -0.413182572337E+03    0.20616E-05   -0.56171E-08  1043   0.566E-04    0.433E-05
RMM:  17    -0.413182570596E+03    0.17407E-05   -0.41645E-08   937   0.546E-04    0.263E-05
RMM:  18    -0.413182570183E+03    0.41334E-06   -0.21067E-08   739   0.511E-04
   29 T=    64. E= -.41286636E+03 F= -.41318257E+03 E0= -.41316097E+03  EK= 0.31621E+00 SP= 0.00E+00 SK= 0.00E+00
       N       E                     dE             d eps       ncg     rms          rms(c)
RMM:   1    -0.413174684507E+03    0.78861E-02   -0.11624E+01  4284   0.842E-01    0.910E-01
RMM:   2    -0.413185607749E+03   -0.10923E-01   -0.14512E-01  4265   0.110E-01    0.646E-01
RMM:   3    -0.413184379102E+03    0.12286E-02   -0.66784E-03  4474   0.434E-02    0.168E-01
RMM:   4    -0.413193430202E+03   -0.90511E-02   -0.95289E-03  5157   0.839E-02    0.402E-01
RMM:   5    -0.413184213719E+03    0.92165E-02   -0.46117E-03  4824   0.659E-02    0.243E-02
RMM:   6    -0.413184238120E+03   -0.24400E-04   -0.71446E-04  5840   0.251E-02    0.160E-02
RMM:   7    -0.413184236620E+03    0.15000E-05   -0.96694E-05  5465   0.932E-03    0.994E-03
RMM:   8    -0.413184227830E+03    0.87903E-05   -0.13630E-05  3818   0.423E-03    0.461E-03
RMM:   9    -0.413184223756E+03    0.40737E-05   -0.28725E-06  2695   0.236E-03    0.321E-03
RMM:  10    -0.413184219711E+03    0.40447E-05   -0.73016E-07  2475   0.146E-03    0.197E-03
RMM:  11    -0.413184214429E+03    0.52822E-05   -0.61639E-07  2446   0.126E-03    0.889E-04
RMM:  12    -0.413184210708E+03    0.37207E-05   -0.32931E-07  2037   0.944E-04    0.335E-04
RMM:  13    -0.413184209349E+03    0.13595E-05   -0.14019E-07  1310   0.699E-04    0.185E-04
RMM:  14    -0.413184207109E+03    0.22403E-05   -0.99178E-08  1147   0.658E-04    0.987E-05
RMM:  15    -0.413184204080E+03    0.30285E-05   -0.87124E-08  1209   0.660E-04    0.101E-04
RMM:  16    -0.413184203497E+03    0.58293E-06   -0.41659E-08   892   0.585E-04
   30 T=    65. E= -.41286625E+03 F= -.41318420E+03 E0= -.41316266E+03  EK= 0.31796E+00 SP= 0.00E+00 SK= 0.00E+00
       N       E                     dE             d eps       ncg     rms          rms(c)
RMM:   1    -0.413178942317E+03    0.52618E-02   -0.11783E+01  4290   0.896E-01    0.911E-01
RMM:   2    -0.413188047836E+03   -0.91055E-02   -0.15075E-01  4267   0.120E-01    0.660E-01
RMM:   3    -0.413185972065E+03    0.20758E-02   -0.65268E-03  4381   0.396E-02    0.165E-01
RMM:   4    -0.413189709834E+03   -0.37378E-02   -0.44584E-03  5143   0.570E-02    0.257E-01
RMM:   5    -0.413185970791E+03    0.37390E-02   -0.18495E-03  4821   0.421E-02    0.205E-02
RMM:   6    -0.413185972107E+03   -0.13160E-05   -0.30399E-04  5757   0.171E-02    0.149E-02
RMM:   7    -0.413185969282E+03    0.28259E-05   -0.56322E-05  5064   0.753E-03    0.677E-03
RMM:   8    -0.413185964046E+03    0.52354E-05   -0.74068E-06  3116   0.336E-03    0.323E-03
RMM:   9    -0.413185962379E+03    0.16669E-05   -0.11452E-06  2524   0.178E-03    0.214E-03
RMM:  10    -0.413185959373E+03    0.30061E-05   -0.60938E-07  2315   0.121E-03    0.117E-03
RMM:  11    -0.413185956374E+03    0.29990E-05   -0.40355E-07  2005   0.986E-04    0.436E-04
RMM:  12    -0.413185954185E+03    0.21897E-05   -0.21743E-07  1571   0.788E-04    0.197E-04
RMM:  13    -0.413185952555E+03    0.16293E-05   -0.12856E-07  1224   0.680E-04    0.114E-04
RMM:  14    -0.413185950648E+03    0.19075E-05   -0.98634E-08  1194   0.654E-04    0.656E-05
RMM:  15    -0.413185948224E+03    0.24236E-05   -0.91409E-08  1272   0.647E-04    0.697E-05
RMM:  16    -0.413185947235E+03    0.98886E-06   -0.45205E-08   917   0.568E-04
   31 T=    65. E= -.41286619E+03 F= -.41318595E+03 E0= -.41316445E+03  EK= 0.31976E+00 SP= 0.00E+00 SK= 0.00E+00
       N       E                     dE             d eps       ncg     rms          rms(c)
RMM:   1    -0.413186195249E+03   -0.24702E-03   -0.11929E+01  4294   0.929E-01    0.938E-01
RMM:   2    -0.413189756611E+03   -0.35614E-02   -0.15335E-01  4264   0.119E-01    0.656E-01
RMM:   3    -0.413188693236E+03    0.10634E-02   -0.70202E-03  4304   0.493E-02    0.176E-01
RMM:   4    -0.413191420744E+03   -0.27275E-02   -0.35210E-03  5109   0.526E-02    0.220E-01
RMM:   5    -0.413188684959E+03    0.27358E-02   -0.13291E-03  4813   0.362E-02    0.225E-02
RMM:   6    -0.413188680165E+03    0.47944E-05   -0.24635E-04  5699   0.157E-02    0.165E-02
RMM:   7    -0.413188668124E+03    0.12040E-04   -0.53560E-05  4925   0.749E-03    0.597E-03
RMM:   8    -0.413188660194E+03    0.79306E-05   -0.59246E-06  3006   0.314E-03    0.318E-03
RMM:   9    -0.413188656915E+03    0.32785E-05   -0.88396E-07  2494   0.167E-03    0.207E-03
RMM:  10    -0.413188649436E+03    0.74792E-05   -0.59215E-07  2368   0.121E-03    0.104E-03
RMM:  11    -0.413188644555E+03    0.48807E-05   -0.29961E-07  1854   0.900E-04    0.430E-04
RMM:  12    -0.413188639645E+03    0.49107E-05   -0.19214E-07  1597   0.786E-04    0.182E-04
RMM:  13    -0.413188636074E+03    0.35702E-05   -0.11698E-07  1287   0.683E-04    0.104E-04
RMM:  14    -0.413188632853E+03    0.32216E-05   -0.85904E-08  1223   0.640E-04    0.745E-05
RMM:  15    -0.413188627804E+03    0.50485E-05   -0.90223E-08  1336   0.651E-04    0.641E-05
RMM:  16    -0.413188626184E+03    0.16201E-05   -0.43910E-08   934   0.558E-04    0.476E-05
RMM:  17    -0.413188624303E+03    0.18809E-05   -0.37077E-08   933   0.552E-04    0.238E-05
RMM:  18    -0.413188623836E+03    0.46683E-06   -0.17816E-08   696   0.510E-04
   32 T=    66. E= -.41286656E+03 F= -.41318862E+03 E0= -.41316717E+03  EK= 0.32206E+00 SP= 0.00E+00 SK= 0.00E+00
       N       E                     dE             d eps       ncg     rms          rms(c)
RMM:   1    -0.413185008250E+03    0.36161E-02   -0.11880E+01  4290   0.925E-01    0.925E-01
RMM:   2    -0.413192075134E+03   -0.70669E-02   -0.15295E-01  4272   0.130E-01    0.652E-01
RMM:   3    -0.413190568365E+03    0.15068E-02   -0.66690E-03  4151   0.407E-02    0.176E-01
RMM:   4    -0.413190676880E+03   -0.10851E-03   -0.11676E-03  4835   0.255E-02    0.462E-02
RMM:   5    -0.413190580651E+03    0.96228E-04   -0.84530E-05  4720   0.973E-03    0.241E-02
RMM:   6    -0.413190563783E+03    0.16868E-04   -0.65476E-05  5137   0.854E-03    0.156E-02
RMM:   7    -0.413190548913E+03    0.14870E-04   -0.30291E-05  3992   0.602E-03    0.423E-03
RMM:   8    -0.413190544270E+03    0.46432E-05   -0.24999E-06  2551   0.249E-03    0.264E-03
RMM:   9    -0.413190542208E+03    0.20617E-05   -0.48700E-07  2250   0.134E-03    0.158E-03
RMM:  10    -0.413190535625E+03    0.65834E-05   -0.34068E-07  1682   0.893E-04    0.624E-04
RMM:  11    -0.413190529278E+03    0.63465E-05   -0.19846E-07  1503   0.753E-04    0.248E-04
RMM:  12    -0.413190526692E+03    0.25857E-05   -0.66576E-08  1076   0.599E-04    0.145E-04
RMM:  13    -0.413190519601E+03    0.70914E-05   -0.97219E-08  1208   0.652E-04    0.114E-04
RMM:  14    -0.413190516378E+03    0.32233E-05   -0.39017E-08   906   0.549E-04    0.712E-05
RMM:  15    -0.413190514551E+03    0.18264E-05   -0.22126E-08   744   0.502E-04    0.539E-05
RMM:  16    -0.413190511771E+03    0.27798E-05   -0.27890E-08   833   0.524E-04    0.352E-05
RMM:  17    -0.413190511584E+03    0.18760E-06   -0.45201E-09   478   0.450E-04
   33 T=    66. E= -.41286631E+03 F= -.41319051E+03 E0= -.41316911E+03  EK= 0.32421E+00 SP= 0.00E+00 SK= 0.00E+00
       N       E                     dE             d eps       ncg     rms          rms(c)
RMM:   1    -0.413186055148E+03    0.44566E-02   -0.11987E+01  4286   0.924E-01    0.916E-01
RMM:   2    -0.413194888275E+03   -0.88331E-02   -0.15603E-01  4258   0.127E-01    0.665E-01
RMM:   3    -0.413193062444E+03    0.18258E-02   -0.65517E-03  4410   0.441E-02    0.173E-01
RMM:   4    -0.413197884765E+03   -0.48223E-02   -0.54903E-03  5151   0.652E-02    0.293E-01
RMM:   5    -0.413193065430E+03    0.48193E-02   -0.23526E-03  4799   0.481E-02    0.226E-02
RMM:   6    -0.413193056445E+03    0.89850E-05   -0.38613E-04  5743   0.200E-02    0.158E-02
RMM:   7    -0.413193054816E+03    0.16286E-05   -0.66195E-05  5131   0.825E-03    0.755E-03
RMM:   8    -0.413193049293E+03    0.55231E-05   -0.10280E-05  3460   0.383E-03    0.363E-03
RMM:   9    -0.413193047315E+03    0.19783E-05   -0.16263E-06  2579   0.199E-03    0.226E-03
RMM:  10    -0.413193044085E+03    0.32303E-05   -0.62298E-07  2378   0.127E-03    0.129E-03
RMM:  11    -0.413193040289E+03    0.37959E-05   -0.45317E-07  2194   0.105E-03    0.512E-04
RMM:  12    -0.413193037587E+03    0.27017E-05   -0.23939E-07  1620   0.814E-04    0.214E-04
RMM:  13    -0.413193035947E+03    0.16405E-05   -0.12648E-07  1152   0.680E-04    0.126E-04
RMM:  14    -0.413193034253E+03    0.16937E-05   -0.91850E-08  1090   0.649E-04    0.688E-05
RMM:  15    -0.413193031501E+03    0.27514E-05   -0.91065E-08  1252   0.660E-04    0.644E-05
RMM:  16    -0.413193030959E+03    0.54201E-06   -0.40591E-08   849   0.573E-04
   34 T=    66. E= -.41286646E+03 F= -.41319303E+03 E0= -.41317168E+03  EK= 0.32657E+00 SP= 0.00E+00 SK= 0.00E+00
       N       E                     dE             d eps       ncg     rms          rms(c)
RMM:   1    -0.413186141918E+03    0.68896E-02   -0.12085E+01  4299   0.930E-01    0.941E-01
RMM:   2    -0.413197135620E+03   -0.10994E-01   -0.15668E-01  4258   0.133E-01    0.665E-01
RMM:   3    -0.413195727106E+03    0.14085E-02   -0.68341E-03  4510   0.441E-02    0.180E-01
RMM:   4    -0.413204643495E+03   -0.89164E-02   -0.94700E-03  5160   0.831E-02    0.401E-01
RMM:   5    -0.413195552879E+03    0.90906E-02   -0.46195E-03  4816   0.662E-02    0.266E-02
RMM:   6    -0.413195547547E+03    0.53315E-05   -0.74082E-04  5785   0.264E-02    0.172E-02
RMM:   7    -0.413195545856E+03    0.16913E-05   -0.10892E-04  5431   0.967E-03    0.967E-03
RMM:   8    -0.413195536965E+03    0.88910E-05   -0.15743E-05  3885   0.437E-03    0.459E-03
RMM:   9    -0.413195532271E+03    0.46941E-05   -0.28511E-06  2719   0.234E-03    0.284E-03
RMM:  10    -0.413195526528E+03    0.57433E-05   -0.76766E-07  2475   0.145E-03    0.170E-03
RMM:  11    -0.413195519496E+03    0.70314E-05   -0.55902E-07  2400   0.120E-03    0.754E-04
RMM:  12    -0.413195513907E+03    0.55893E-05   -0.32209E-07  2016   0.934E-04    0.288E-04
RMM:  13    -0.413195511697E+03    0.22102E-05   -0.14712E-07  1319   0.712E-04    0.175E-04
RMM:  14    -0.413195508644E+03    0.30532E-05   -0.10055E-07  1129   0.661E-04    0.995E-05
RMM:  15    -0.413195503893E+03    0.47503E-05   -0.93487E-08  1269   0.672E-04    0.929E-05
RMM:  16    -0.413195502895E+03    0.99820E-06   -0.48622E-08   936   0.595E-04
   35 T=    67. E= -.41286639E+03 F= -.41319550E+03 E0= -.41317420E+03  EK= 0.32911E+00 SP= 0.00E+00 SK= 0.00E+00
       N       E                     dE             d eps       ncg     rms          rms(c)
RMM:   1    -0.413189179874E+03    0.63240E-02   -0.12125E+01  4298   0.960E-01    0.942E-01
RMM:   2    -0.413198945061E+03   -0.97652E-02   -0.15590E-01  4253   0.121E-01    0.658E-01
RMM:   3    -0.413197957025E+03    0.98804E-03   -0.71185E-03  4819   0.453E-02    0.193E-01
RMM:   4    -0.413228742304E+03   -0.30785E-01   -0.31104E-02  5163   0.148E-01    0.732E-01
RMM:   5    -0.413197571480E+03    0.31171E-01   -0.15647E-02  4805   0.122E-01    0.386E-02
RMM:   6    -0.413197638423E+03   -0.66943E-04   -0.24822E-03  5867   0.462E-02    0.204E-02
RMM:   7    -0.413197650368E+03   -0.11946E-04   -0.25965E-04  5792   0.140E-02    0.136E-02
RMM:   8    -0.413197642614E+03    0.77545E-05   -0.38374E-05  4757   0.588E-03    0.879E-03
RMM:   9    -0.413197636795E+03    0.58189E-05   -0.11093E-05  3721   0.381E-03    0.570E-03
RMM:  10    -0.413197628124E+03    0.86715E-05   -0.21407E-06  2549   0.238E-03    0.298E-03
RMM:  11    -0.413197621093E+03    0.70306E-05   -0.14293E-06  2515   0.187E-03    0.165E-03
RMM:  12    -0.413197612184E+03    0.89091E-05   -0.80305E-07  2462   0.157E-03    0.595E-04
RMM:  13    -0.413197609409E+03    0.27753E-05   -0.31906E-07  2171   0.102E-03    0.426E-04
RMM:  14    -0.413197607922E+03    0.14868E-05   -0.14008E-07  1483   0.731E-04    0.269E-04
RMM:  15    -0.413197601251E+03    0.66706E-05   -0.13766E-07  1765   0.753E-04    0.278E-04
RMM:  16    -0.413197600391E+03    0.86056E-06   -0.48140E-08   939   0.567E-04
   36 T=    67. E= -.41286613E+03 F= -.41319760E+03 E0= -.41317634E+03  EK= 0.33148E+00 SP= 0.00E+00 SK= 0.00E+00
       N       E                     dE             d eps       ncg     rms          rms(c)
RMM:   1    -0.413191072548E+03    0.65287E-02   -0.12182E+01  4303   0.984E-01    0.924E-01
RMM:   2    -0.413202492193E+03   -0.11420E-01   -0.16212E-01  4248   0.134E-01    0.670E-01
RMM:   3    -0.413201033001E+03    0.14592E-02   -0.68310E-03  4784   0.520E-02    0.197E-01
RMM:   4    -0.413238427752E+03   -0.37395E-01   -0.37934E-02  5164   0.163E-01    0.804E-01
RMM:   5    -0.413200501163E+03    0.37927E-01   -0.19210E-02  4809   0.134E-01    0.397E-02
RMM:   6    -0.413200591927E+03   -0.90765E-04   -0.28838E-03  5861   0.505E-02    0.203E-02
RMM:   7    -0.413200606971E+03   -0.15043E-04   -0.29247E-04  5758   0.146E-02    0.134E-02
RMM:   8    -0.413200601806E+03    0.51649E-05   -0.37051E-05  4514   0.555E-03    0.857E-03
RMM:   9    -0.413200599294E+03    0.25112E-05   -0.13822E-05  3989   0.395E-03    0.612E-03
RMM:  10    -0.413200592785E+03    0.65094E-05   -0.28276E-06  2614   0.260E-03    0.303E-03
RMM:  11    -0.413200588035E+03    0.47505E-05   -0.18586E-06  2548   0.207E-03    0.172E-03
RMM:  12    -0.413200582655E+03    0.53796E-05   -0.89511E-07  2475   0.163E-03    0.689E-04
RMM:  13    -0.413200581145E+03    0.15101E-05   -0.34104E-07  2234   0.105E-03    0.491E-04
RMM:  14    -0.413200580204E+03    0.94100E-06   -0.14489E-07  1506   0.741E-04
   37 T=    68. E= -.41286634E+03 F= -.41320058E+03 E0= -.41317936E+03  EK= 0.33424E+00 SP= 0.00E+00 SK= 0.00E+00
       N       E                     dE             d eps       ncg     rms          rms(c)
RMM:   1    -0.413199471492E+03    0.11097E-02   -0.12400E+01  4307   0.104E+00    0.945E-01
RMM:   2    -0.413205303124E+03   -0.58316E-02   -0.16189E-01  4247   0.132E-01    0.674E-01
RMM:   3    -0.413203566080E+03    0.17370E-02   -0.70968E-03  4724   0.508E-02    0.194E-01
RMM:   4    -0.413233171279E+03   -0.29605E-01   -0.29786E-02  5156   0.144E-01    0.718E-01
RMM:   5    -0.413203191707E+03    0.29980E-01   -0.15266E-02  4813   0.119E-01    0.368E-02
RMM:   6    -0.413203243950E+03   -0.52243E-04   -0.22788E-03  5846   0.450E-02    0.198E-02
RMM:   7    -0.413203255395E+03   -0.11445E-04   -0.24999E-04  5791   0.136E-02    0.132E-02
RMM:   8    -0.413203248559E+03    0.68360E-05   -0.37207E-05  4761   0.577E-03    0.848E-03
RMM:   9    -0.413203244141E+03    0.44178E-05   -0.10797E-05  3691   0.369E-03    0.535E-03
RMM:  10    -0.413203237085E+03    0.70564E-05   -0.20523E-06  2542   0.227E-03    0.283E-03
RMM:  11    -0.413203231199E+03    0.58855E-05   -0.13667E-06  2513   0.182E-03    0.151E-03
RMM:  12    -0.413203224320E+03    0.68795E-05   -0.73965E-07  2453   0.147E-03    0.555E-04
RMM:  13    -0.413203222128E+03    0.21921E-05   -0.29774E-07  2131   0.978E-04    0.398E-04
RMM:  14    -0.413203220779E+03    0.13492E-05   -0.13384E-07  1431   0.715E-04    0.246E-04
RMM:  15    -0.413203214989E+03    0.57898E-05   -0.13659E-07  1706   0.745E-04    0.252E-04
RMM:  16    -0.413203214104E+03    0.88520E-06   -0.48976E-08   942   0.576E-04
   38 T=    69. E= -.41286646E+03 F= -.41320321E+03 E0= -.41318203E+03  EK= 0.33675E+00 SP= 0.00E+00 SK= 0.00E+00
       N       E                     dE             d eps       ncg     rms          rms(c)
RMM:   1    -0.413200074369E+03    0.31406E-02   -0.12435E+01  4305   0.107E+00    0.959E-01
RMM:   2    -0.413206905921E+03   -0.68316E-02   -0.16441E-01  4256   0.124E-01    0.668E-01
RMM:   3    -0.413206107682E+03    0.79824E-03   -0.76713E-03  4955   0.551E-02    0.224E-01
RMM:   4    -0.413256159908E+03   -0.50052E-01   -0.52928E-02  5138   0.191E-01    0.928E-01
RMM:   5    -0.413205069507E+03    0.51090E-01   -0.25469E-02  4797   0.156E-01    0.481E-02
RMM:   6    -0.413205223029E+03   -0.15352E-03   -0.39566E-03  5839   0.586E-02    0.236E-02
RMM:   7    -0.413205240546E+03   -0.17517E-04   -0.40176E-04  5803   0.169E-02    0.155E-02
RMM:   8    -0.413205236341E+03    0.42050E-05   -0.55467E-05  4840   0.640E-03    0.105E-02
RMM:   9    -0.413205226629E+03    0.97115E-05   -0.16270E-05  4157   0.425E-03    0.659E-03
RMM:  10    -0.413205217893E+03    0.87362E-05   -0.39665E-06  2716   0.285E-03    0.329E-03
RMM:  11    -0.413205210772E+03    0.71209E-05   -0.17397E-06  2514   0.210E-03    0.192E-03
RMM:  12    -0.413205201856E+03    0.89158E-05   -0.86317E-07  2465   0.163E-03    0.660E-04
RMM:  13    -0.413205197736E+03    0.41205E-05   -0.36530E-07  2296   0.110E-03    0.414E-04
RMM:  14    -0.413205194873E+03    0.28626E-05   -0.16530E-07  1705   0.783E-04    0.257E-04
RMM:  15    -0.413205187278E+03    0.75947E-05   -0.13622E-07  1691   0.747E-04    0.232E-04
RMM:  16    -0.413205186299E+03    0.97964E-06   -0.52351E-08   995   0.581E-04
   39 T=    69. E= -.41286621E+03 F= -.41320519E+03 E0= -.41318404E+03  EK= 0.33898E+00 SP= 0.00E+00 SK= 0.00E+00
       N       E                     dE             d eps       ncg     rms          rms(c)
RMM:   1    -0.413203442666E+03    0.17446E-02   -0.12451E+01  4307   0.112E+00    0.935E-01
RMM:   2    -0.413210216805E+03   -0.67741E-02   -0.16640E-01  4256   0.133E-01    0.673E-01
RMM:   3    -0.413209215993E+03    0.10008E-02   -0.74017E-03  5000   0.538E-02    0.231E-01
RMM:   4    -0.413262898096E+03   -0.53682E-01   -0.58107E-02  5135   0.200E-01    0.961E-01
RMM:   5    -0.413207929764E+03    0.54968E-01   -0.26985E-02  4786   0.162E-01    0.504E-02
RMM:   6    -0.413208118341E+03   -0.18858E-03   -0.44335E-03  5829   0.609E-02    0.232E-02
RMM:   7    -0.413208141083E+03   -0.22742E-04   -0.44124E-04  5859   0.176E-02    0.159E-02
RMM:   8    -0.413208140699E+03    0.38475E-06   -0.65786E-05  5033   0.698E-03    0.114E-02
RMM:   9    -0.413208131919E+03    0.87796E-05   -0.16334E-05  4123   0.435E-03    0.667E-03
RMM:  10    -0.413208125393E+03    0.65260E-05   -0.40566E-06  2686   0.289E-03    0.333E-03
RMM:  11    -0.413208120551E+03    0.48417E-05   -0.17583E-06  2517   0.211E-03    0.196E-03
RMM:  12    -0.413208114589E+03    0.59624E-05   -0.90673E-07  2473   0.165E-03    0.708E-04
RMM:  13    -0.413208111801E+03    0.27876E-05   -0.38825E-07  2287   0.111E-03    0.421E-04
RMM:  14    -0.413208109575E+03    0.22260E-05   -0.18901E-07  1787   0.805E-04    0.257E-04
RMM:  15    -0.413208103944E+03    0.56308E-05   -0.15624E-07  1669   0.754E-04    0.236E-04
RMM:  16    -0.413208103351E+03    0.59331E-06   -0.61059E-08  1022   0.591E-04
   40 T=    70. E= -.41286665E+03 F= -.41320810E+03 E0= -.41318700E+03  EK= 0.34145E+00 SP= 0.00E+00 SK= 0.00E+00
       N       E                     dE             d eps       ncg     rms          rms(c)
RMM:   1    -0.413207180659E+03    0.92329E-03   -0.12627E+01  4307   0.119E+00    0.946E-01
RMM:   2    -0.413211466448E+03   -0.42858E-02   -0.17391E-01  4266   0.139E-01    0.684E-01
RMM:   3    -0.413211110689E+03    0.35576E-03   -0.80028E-03  5049   0.580E-02    0.261E-01
RMM:   4    -0.413266279711E+03   -0.55169E-01   -0.63100E-02  5126   0.209E-01    0.979E-01
RMM:   5    -0.413209249655E+03    0.57030E-01   -0.27672E-02  4775   0.165E-01    0.529E-02
RMM:   6    -0.413209417056E+03   -0.16740E-03   -0.43182E-03  5815   0.617E-02    0.229E-02
RMM:   7    -0.413209440023E+03   -0.22967E-04   -0.46153E-04  5931   0.183E-02    0.167E-02
RMM:   8    -0.413209440013E+03    0.10084E-07   -0.73505E-05  5172   0.751E-03    0.116E-02
RMM:   9    -0.413209430437E+03    0.95754E-05   -0.13962E-05  3896   0.429E-03    0.584E-03
RMM:  10    -0.413209424008E+03    0.64288E-05   -0.41564E-06  2670   0.285E-03    0.292E-03
RMM:  11    -0.413209419403E+03    0.46055E-05   -0.15319E-06  2512   0.198E-03    0.157E-03
RMM:  12    -0.413209414146E+03    0.52567E-05   -0.75696E-07  2448   0.149E-03    0.638E-04
RMM:  13    -0.413209411222E+03    0.29239E-05   -0.34654E-07  2187   0.103E-03    0.364E-04
RMM:  14    -0.413209408082E+03    0.31402E-05   -0.19112E-07  1635   0.799E-04    0.218E-04
RMM:  15    -0.413209403923E+03    0.41592E-05   -0.13322E-07  1406   0.714E-04    0.133E-04
RMM:  16    -0.413209402393E+03    0.15302E-05   -0.75163E-08  1096   0.625E-04    0.647E-05
RMM:  17    -0.413209400101E+03    0.22917E-05   -0.62494E-08  1120   0.623E-04    0.456E-05
RMM:  18    -0.413209396707E+03    0.33940E-05   -0.63152E-08  1226   0.629E-04    0.436E-05
RMM:  19    -0.413209396250E+03    0.45677E-06   -0.27395E-08   836   0.555E-04
   41 T=    70. E= -.41286615E+03 F= -.41320940E+03 E0= -.41318832E+03  EK= 0.34324E+00 SP= 0.00E+00 SK= 0.00E+00
       N       E                     dE             d eps       ncg     rms          rms(c)
RMM:   1    -0.413216299206E+03   -0.69025E-02   -0.12756E+01  4307   0.126E+00    0.971E-01
RMM:   2    -0.413213027184E+03    0.32720E-02   -0.17714E-01  4299   0.146E-01    0.677E-01
RMM:   3    -0.413215678924E+03   -0.26517E-02   -0.10365E-02  5130   0.736E-02    0.336E-01
RMM:   4    -0.413249245527E+03   -0.33567E-01   -0.49944E-02  5088   0.188E-01    0.808E-01
RMM:   5    -0.413211760692E+03    0.37485E-01   -0.16808E-02  4729   0.135E-01    0.509E-02
RMM:   6    -0.413211810257E+03   -0.49565E-04   -0.27638E-03  5757   0.497E-02    0.213E-02
RMM:   7    -0.413211821408E+03   -0.11151E-04   -0.32629E-04  5875   0.158E-02    0.160E-02
RMM:   8    -0.413211818085E+03    0.33230E-05   -0.57590E-05  5077   0.701E-03    0.983E-03
RMM:   9    -0.413211805475E+03    0.12610E-04   -0.11485E-05  3598   0.427E-03    0.415E-03
RMM:  10    -0.413211798277E+03    0.71980E-05   -0.28655E-06  2616   0.239E-03    0.223E-03
RMM:  11    -0.413211791287E+03    0.69900E-05   -0.10845E-06  2506   0.164E-03    0.108E-03
RMM:  12    -0.413211785382E+03    0.59048E-05   -0.45804E-07  2360   0.117E-03    0.511E-04
RMM:  13    -0.413211780765E+03    0.46171E-05   -0.25004E-07  1646   0.850E-04    0.241E-04
RMM:  14    -0.413211776942E+03    0.38227E-05   -0.16044E-07  1339   0.739E-04    0.140E-04
RMM:  15    -0.413211770575E+03    0.63670E-05   -0.13980E-07  1459   0.728E-04    0.879E-05
RMM:  16    -0.413211768305E+03    0.22702E-05   -0.86242E-08  1173   0.638E-04    0.631E-05
RMM:  17    -0.413211764131E+03    0.41742E-05   -0.82419E-08  1362   0.648E-04    0.527E-05
RMM:  18    -0.413211761838E+03    0.22933E-05   -0.50935E-08  1043   0.575E-04    0.342E-05
RMM:  19    -0.413211761342E+03    0.49589E-06   -0.30836E-08   837   0.533E-04
   42 T=    70. E= -.41286661E+03 F= -.41321176E+03 E0= -.41319072E+03  EK= 0.34515E+00 SP= 0.00E+00 SK= 0.00E+00
       N       E                     dE             d eps       ncg     rms          rms(c)
RMM:   1    -0.413218209953E+03   -0.64481E-02   -0.12715E+01  4309   0.134E+00    0.947E-01
RMM:   2    -0.413214691315E+03    0.35186E-02   -0.17302E-01  4315   0.151E-01    0.676E-01
RMM:   3    -0.413218722848E+03   -0.40315E-02   -0.11395E-02  5116   0.828E-02    0.371E-01
RMM:   4    -0.413245551619E+03   -0.26829E-01   -0.47051E-02  5063   0.183E-01    0.751E-01
RMM:   5    -0.413213418586E+03    0.32133E-01   -0.13830E-02  4704   0.126E-01    0.491E-02
RMM:   6    -0.413213441266E+03   -0.22680E-04   -0.23630E-03  5727   0.459E-02    0.204E-02
RMM:   7    -0.413213448565E+03   -0.72985E-05   -0.27506E-04  5857   0.149E-02    0.155E-02
RMM:   8    -0.413213445241E+03    0.33244E-05   -0.50787E-05  5027   0.673E-03    0.914E-03
RMM:   9    -0.413213434575E+03    0.10665E-04   -0.10998E-05  3521   0.428E-03    0.393E-03
RMM:  10    -0.413213429285E+03    0.52902E-05   -0.24867E-06  2585   0.231E-03    0.213E-03
RMM:  11    -0.413213423856E+03    0.54295E-05   -0.11187E-06  2506   0.163E-03    0.108E-03
RMM:  12    -0.413213419536E+03    0.43202E-05   -0.46886E-07  2333   0.116E-03    0.501E-04
RMM:  13    -0.413213415837E+03    0.36990E-05   -0.26962E-07  1618   0.850E-04    0.243E-04
RMM:  14    -0.413213413158E+03    0.26789E-05   -0.17180E-07  1335   0.736E-04    0.137E-04
RMM:  15    -0.413213408348E+03    0.48102E-05   -0.14764E-07  1325   0.716E-04    0.744E-05
RMM:  16    -0.413213406135E+03    0.22129E-05   -0.96193E-08  1170   0.654E-04    0.565E-05
RMM:  17    -0.413213403281E+03    0.28537E-05   -0.78201E-08  1226   0.633E-04    0.493E-05
RMM:  18    -0.413213400786E+03    0.24949E-05   -0.59791E-08  1092   0.592E-04    0.390E-05
RMM:  19    -0.413213400270E+03    0.51622E-06   -0.32763E-08   806   0.536E-04
   43 T=    71. E= -.41286667E+03 F= -.41321340E+03 E0= -.41319238E+03  EK= 0.34673E+00 SP= 0.00E+00 SK= 0.00E+00
       N       E                     dE             d eps       ncg     rms          rms(c)
RMM:   1    -0.413239820585E+03   -0.26420E-01   -0.13040E+01  4311   0.149E+00    0.947E-01
RMM:   2    -0.413215683506E+03    0.24137E-01   -0.20237E-01  4328   0.172E-01    0.694E-01
RMM:   3    -0.413220845288E+03   -0.51618E-02   -0.12406E-02  5107   0.919E-02    0.422E-01
RMM:   4    -0.413245304370E+03   -0.24459E-01   -0.48725E-02  5059   0.187E-01    0.746E-01
RMM:   5    -0.413214007828E+03    0.31297E-01   -0.13529E-02  4682   0.127E-01    0.524E-02
RMM:   6    -0.413214011598E+03   -0.37704E-05   -0.23229E-03  5670   0.458E-02    0.210E-02
RMM:   7    -0.413214019020E+03   -0.74213E-05   -0.27894E-04  5894   0.152E-02    0.162E-02
RMM:   8    -0.413214015482E+03    0.35374E-05   -0.49119E-05  5020   0.669E-03    0.940E-03
RMM:   9    -0.413214006184E+03    0.92984E-05   -0.12640E-05  3669   0.463E-03    0.426E-03
RMM:  10    -0.413214001922E+03    0.42622E-05   -0.27367E-06  2606   0.240E-03    0.242E-03
RMM:  11    -0.413213997810E+03    0.41112E-05   -0.14225E-06  2536   0.179E-03    0.119E-03
RMM:  12    -0.413213994806E+03    0.30041E-05   -0.54027E-07  2424   0.125E-03    0.591E-04
RMM:  13    -0.413213991602E+03    0.32047E-05   -0.33061E-07  1688   0.914E-04    0.319E-04
RMM:  14    -0.413213989360E+03    0.22416E-05   -0.20349E-07  1379   0.775E-04    0.173E-04
RMM:  15    -0.413213986759E+03    0.26005E-05   -0.14748E-07  1274   0.714E-04    0.913E-05
RMM:  16    -0.413213983872E+03    0.28873E-05   -0.12003E-07  1282   0.686E-04    0.552E-05
RMM:  17    -0.413213982341E+03    0.15311E-05   -0.76122E-08  1083   0.621E-04    0.505E-05
RMM:  18    -0.413213979909E+03    0.24320E-05   -0.72451E-08  1169   0.611E-04    0.374E-05
RMM:  19    -0.413213979211E+03    0.69845E-06   -0.38500E-08   848   0.549E-04
   44 T=    71. E= -.41286633E+03 F= -.41321398E+03 E0= -.41319299E+03  EK= 0.34764E+00 SP= 0.00E+00 SK= 0.00E+00
       N       E                     dE             d eps       ncg     rms          rms(c)
RMM:   1    -0.413226410643E+03   -0.12431E-01   -0.12942E+01  4308   0.152E+00    0.975E-01
RMM:   2    -0.413215957403E+03    0.10453E-01   -0.18340E-01  4372   0.179E-01    0.683E-01
RMM:   3    -0.413227876450E+03   -0.11919E-01   -0.18511E-02  5138   0.116E-01    0.525E-01
RMM:   4    -0.413231177499E+03   -0.33010E-02   -0.38044E-02  5019   0.170E-01    0.550E-01
RMM:   5    -0.413215216973E+03    0.15961E-01   -0.61100E-03  4568   0.958E-02    0.443E-02
RMM:   6    -0.413215173669E+03    0.43304E-04   -0.11031E-03  5360   0.324E-02    0.191E-02
RMM:   7    -0.413215172483E+03    0.11867E-05   -0.12874E-04  5672   0.109E-02    0.140E-02
RMM:   8    -0.413215167280E+03    0.52030E-05   -0.42834E-05  5046   0.656E-03    0.816E-03
RMM:   9    -0.413215152179E+03    0.15100E-04   -0.11059E-05  3695   0.448E-03    0.368E-03
RMM:  10    -0.413215147542E+03    0.46370E-05   -0.16259E-06  2553   0.202E-03    0.186E-03
RMM:  11    -0.413215140725E+03    0.68174E-05   -0.99751E-07  2494   0.155E-03    0.105E-03
RMM:  12    -0.413215134977E+03    0.57475E-05   -0.41008E-07  2344   0.112E-03    0.493E-04
RMM:  13    -0.413215130453E+03    0.45246E-05   -0.21027E-07  1469   0.777E-04    0.222E-04
RMM:  14    -0.413215126994E+03    0.34590E-05   -0.13173E-07  1231   0.686E-04    0.135E-04
RMM:  15    -0.413215120079E+03    0.69146E-05   -0.13327E-07  1358   0.705E-04    0.101E-04
RMM:  16    -0.413215117778E+03    0.23010E-05   -0.70848E-08  1029   0.601E-04    0.836E-05
RMM:  17    -0.413215114793E+03    0.29850E-05   -0.55764E-08  1016   0.587E-04    0.490E-05
RMM:  18    -0.413215111967E+03    0.28258E-05   -0.51391E-08  1068   0.581E-04    0.357E-05
RMM:  19    -0.413215111477E+03    0.49031E-06   -0.22082E-08   711   0.513E-04
   45 T=    71. E= -.41286667E+03 F= -.41321511E+03 E0= -.41319414E+03  EK= 0.34844E+00 SP= 0.00E+00 SK= 0.00E+00
       N       E                     dE             d eps       ncg     rms          rms(c)
RMM:   1    -0.413231539622E+03   -0.16428E-01   -0.12893E+01  4308   0.162E+00    0.957E-01
RMM:   2    -0.413215434851E+03    0.16105E-01   -0.18221E-01  4388   0.190E-01    0.679E-01
RMM:   3    -0.413229902794E+03   -0.14468E-01   -0.20652E-02  5140   0.126E-01    0.567E-01
RMM:   4    -0.413228116387E+03    0.17864E-02   -0.37246E-02  4998   0.169E-01    0.510E-01
RMM:   5    -0.413214749677E+03    0.13367E-01   -0.52080E-03  4540   0.920E-02    0.442E-02
RMM:   6    -0.413214685331E+03    0.64346E-04   -0.84528E-04  5132   0.295E-02    0.187E-02
RMM:   7    -0.413214683721E+03    0.16097E-05   -0.10266E-04  5636   0.966E-03    0.118E-02
RMM:   8    -0.413214680388E+03    0.33330E-05   -0.44517E-05  5166   0.675E-03    0.846E-03
RMM:   9    -0.413214666904E+03    0.13485E-04   -0.16421E-05  4235   0.488E-03    0.405E-03
RMM:  10    -0.413214663461E+03    0.34425E-05   -0.19419E-06  2544   0.219E-03    0.196E-03
RMM:  11    -0.413214658003E+03    0.54584E-05   -0.13100E-06  2467   0.182E-03    0.116E-03
RMM:  12    -0.413214652744E+03    0.52591E-05   -0.51133E-07  2364   0.130E-03    0.629E-04
RMM:  13    -0.413214648899E+03    0.38449E-05   -0.22359E-07  1653   0.845E-04    0.316E-04
RMM:  14    -0.413214645090E+03    0.38091E-05   -0.12342E-07  1201   0.692E-04    0.148E-04
RMM:  15    -0.413214639333E+03    0.57568E-05   -0.12565E-07  1408   0.697E-04    0.174E-04
RMM:  16    -0.413214637498E+03    0.18350E-05   -0.53780E-08   840   0.553E-04    0.131E-04
RMM:  17    -0.413214633855E+03    0.36428E-05   -0.59350E-08   975   0.575E-04    0.702E-05
RMM:  18    -0.413214631467E+03    0.23883E-05   -0.40669E-08   877   0.550E-04    0.597E-05
RMM:  19    -0.413214630751E+03    0.71636E-06   -0.20462E-08   638   0.507E-04
   46 T=    71. E= -.41286654E+03 F= -.41321463E+03 E0= -.41319367E+03  EK= 0.34809E+00 SP= 0.00E+00 SK= 0.00E+00
       N       E                     dE             d eps       ncg     rms          rms(c)
RMM:   1    -0.413253078221E+03   -0.38447E-01   -0.13138E+01  4310   0.177E+00    0.942E-01
RMM:   2    -0.413214742413E+03    0.38336E-01   -0.21442E-01  4408   0.208E-01    0.695E-01
RMM:   3    -0.413228379490E+03   -0.13637E-01   -0.19943E-02  5137   0.126E-01    0.584E-01
RMM:   4    -0.413228675461E+03   -0.29597E-03   -0.39718E-02  5003   0.175E-01    0.553E-01
RMM:   5    -0.413213288054E+03    0.15387E-01   -0.65009E-03  4553   0.100E-01    0.487E-02
RMM:   6    -0.413213213385E+03    0.74669E-04   -0.10133E-03  5208   0.325E-02    0.204E-02
RMM:   7    -0.413213212393E+03    0.99180E-06   -0.13007E-04  5788   0.108E-02    0.143E-02
RMM:   8    -0.413213209985E+03    0.24083E-05   -0.48420E-05  5165   0.682E-03    0.932E-03
RMM:   9    -0.413213196712E+03    0.13273E-04   -0.16654E-05  4208   0.521E-03    0.447E-03
RMM:  10    -0.413213193575E+03    0.31365E-05   -0.22884E-06  2598   0.223E-03    0.224E-03
RMM:  11    -0.413213189844E+03    0.37312E-05   -0.15366E-06  2523   0.192E-03    0.132E-03
RMM:  12    -0.413213186612E+03    0.32314E-05   -0.51261E-07  2409   0.133E-03    0.695E-04
RMM:  13    -0.413213183566E+03    0.30462E-05   -0.25140E-07  1699   0.864E-04    0.309E-04
RMM:  14    -0.413213181062E+03    0.25039E-05   -0.15136E-07  1255   0.709E-04    0.167E-04
RMM:  15    -0.413213177437E+03    0.36251E-05   -0.14295E-07  1312   0.701E-04    0.103E-04
RMM:  16    -0.413213175839E+03    0.15979E-05   -0.76044E-08  1010   0.597E-04    0.831E-05
RMM:  17    -0.413213173577E+03    0.22620E-05   -0.66389E-08   979   0.583E-04    0.413E-05
RMM:  18    -0.413213172360E+03    0.12171E-05   -0.41336E-08   831   0.546E-04    0.316E-05
RMM:  19    -0.413213171786E+03    0.57394E-06   -0.23611E-08   677   0.521E-04
   47 T=    71. E= -.41286660E+03 F= -.41321317E+03 E0= -.41319223E+03  EK= 0.34657E+00 SP= 0.00E+00 SK= 0.00E+00
       N       E                     dE             d eps       ncg     rms          rms(c)
RMM:   1    -0.413258155180E+03   -0.44983E-01   -0.13156E+01  4306   0.191E+00    0.967E-01
RMM:   2    -0.413211334684E+03    0.46820E-01   -0.20767E-01  4504   0.209E-01    0.688E-01
RMM:   3    -0.413234621593E+03   -0.23287E-01   -0.28880E-02  5154   0.152E-01    0.705E-01
RMM:   4    -0.413218968898E+03    0.15653E-01   -0.37439E-02  4958   0.174E-01    0.436E-01
RMM:   5    -0.413210486206E+03    0.84827E-02   -0.45184E-03  4558   0.892E-02    0.540E-02
RMM:   6    -0.413210321064E+03    0.16514E-03   -0.44224E-04  4720   0.278E-02    0.231E-02
RMM:   7    -0.413210321672E+03   -0.60820E-06   -0.12621E-04  5890   0.113E-02    0.161E-02
RMM:   8    -0.413210309581E+03    0.12091E-04   -0.33030E-05  4906   0.629E-03    0.990E-03
RMM:   9    -0.413210295413E+03    0.14168E-04   -0.11368E-05  3466   0.434E-03    0.469E-03
RMM:  10    -0.413210289890E+03    0.55229E-05   -0.22457E-06  2570   0.243E-03    0.226E-03
RMM:  11    -0.413210284244E+03    0.56458E-05   -0.14651E-06  2487   0.192E-03    0.146E-03
RMM:  12    -0.413210278847E+03    0.53972E-05   -0.58761E-07  2420   0.136E-03    0.717E-04
RMM:  13    -0.413210274424E+03    0.44229E-05   -0.28784E-07  1882   0.904E-04    0.370E-04
RMM:  14    -0.413210270148E+03    0.42763E-05   -0.17382E-07  1429   0.732E-04    0.193E-04
RMM:  15    -0.413210264624E+03    0.55243E-05   -0.15713E-07  1471   0.711E-04    0.165E-04
RMM:  16    -0.413210262342E+03    0.22819E-05   -0.79740E-08  1035   0.588E-04    0.124E-04
RMM:  17    -0.413210259442E+03    0.29001E-05   -0.68804E-08  1039   0.584E-04    0.480E-05
RMM:  18    -0.413210257357E+03    0.20850E-05   -0.51016E-08  1013   0.572E-04    0.404E-05
RMM:  19    -0.413210256547E+03    0.80968E-06   -0.26793E-08   783   0.527E-04
   48 T=    70. E= -.41286678E+03 F= -.41321026E+03 E0= -.41318932E+03  EK= 0.34347E+00 SP= 0.00E+00 SK= 0.00E+00
       N       E                     dE             d eps       ncg     rms          rms(c)
RMM:   1    -0.413259312976E+03   -0.49056E-01   -0.12985E+01  4306   0.204E+00    0.956E-01
RMM:   2    -0.413205207164E+03    0.54106E-01   -0.20265E-01  4551   0.220E-01    0.676E-01
RMM:   3    -0.413235429902E+03   -0.30223E-01   -0.35069E-02  5163   0.168E-01    0.783E-01
RMM:   4    -0.413210251653E+03    0.25178E-01   -0.37345E-02  4927   0.177E-01    0.379E-01
RMM:   5    -0.413204670952E+03    0.55807E-02   -0.48739E-03  4819   0.918E-02    0.676E-02
RMM:   6    -0.413204386674E+03    0.28428E-03   -0.53890E-04  4689   0.319E-02    0.272E-02
RMM:   7    -0.413204381048E+03    0.56259E-05   -0.12825E-04  5689   0.123E-02    0.178E-02
RMM:   8    -0.413204367970E+03    0.13078E-04   -0.24486E-05  4497   0.552E-03    0.103E-02
RMM:   9    -0.413204352676E+03    0.15294E-04   -0.12308E-05  3436   0.435E-03    0.421E-03
RMM:  10    -0.413204345885E+03    0.67906E-05   -0.27608E-06  2627   0.262E-03    0.244E-03
RMM:  11    -0.413204338433E+03    0.74520E-05   -0.15054E-06  2519   0.199E-03    0.147E-03
RMM:  12    -0.413204333652E+03    0.47813E-05   -0.55606E-07  2437   0.133E-03    0.684E-04
RMM:  13    -0.413204328789E+03    0.48628E-05   -0.31587E-07  1962   0.926E-04    0.392E-04
RMM:  14    -0.413204323850E+03    0.49391E-05   -0.21541E-07  1604   0.785E-04    0.239E-04
RMM:  15    -0.413204318693E+03    0.51568E-05   -0.16664E-07  1363   0.721E-04    0.130E-04
RMM:  16    -0.413204316667E+03    0.20258E-05   -0.97633E-08  1194   0.636E-04    0.853E-05
RMM:  17    -0.413204312993E+03    0.36744E-05   -0.95444E-08  1277   0.641E-04    0.521E-05
RMM:  18    -0.413204311864E+03    0.11290E-05   -0.46635E-08   939   0.567E-04    0.370E-05
RMM:  19    -0.413204310956E+03    0.90738E-06   -0.30922E-08   847   0.552E-04
   49 T=    69. E= -.41286651E+03 F= -.41320431E+03 E0= -.41318338E+03  EK= 0.33780E+00 SP= 0.00E+00 SK= 0.00E+00
       N       E                     dE             d eps       ncg     rms          rms(c)
RMM:   1    -0.413238744518E+03   -0.34433E-01   -0.12595E+01  4305   0.208E+00    0.919E-01
RMM:   2    -0.413198011901E+03    0.40733E-01   -0.22398E-01  4540   0.234E-01    0.683E-01
RMM:   3    -0.413224047488E+03   -0.26036E-01   -0.30974E-02  5159   0.161E-01    0.758E-01
RMM:   4    -0.413203668742E+03    0.20379E-01   -0.36637E-02  4935   0.175E-01    0.418E-01
RMM:   5    -0.413196851961E+03    0.68168E-02   -0.55904E-03  4715   0.954E-02    0.681E-02
RMM:   6    -0.413196577756E+03    0.27420E-03   -0.53833E-04  4659   0.324E-02    0.278E-02
RMM:   7    -0.413196573540E+03    0.42166E-05   -0.13596E-04  5759   0.125E-02    0.186E-02
RMM:   8    -0.413196560532E+03    0.13008E-04   -0.28056E-05  4636   0.575E-03    0.111E-02
RMM:   9    -0.413196547095E+03    0.13437E-04   -0.15140E-05  3526   0.472E-03    0.453E-03
RMM:  10    -0.413196541526E+03    0.55688E-05   -0.34822E-06  2727   0.283E-03    0.255E-03
RMM:  11    -0.413196536370E+03    0.51556E-05   -0.16714E-06  2520   0.210E-03    0.158E-03
RMM:  12    -0.413196532507E+03    0.38631E-05   -0.62068E-07  2451   0.140E-03    0.728E-04
RMM:  13    -0.413196529037E+03    0.34705E-05   -0.34474E-07  2007   0.952E-04    0.404E-04
RMM:  14    -0.413196525850E+03    0.31862E-05   -0.23705E-07  1628   0.796E-04    0.262E-04
RMM:  15    -0.413196522236E+03    0.36145E-05   -0.21025E-07  1522   0.745E-04    0.142E-04
RMM:  16    -0.413196520867E+03    0.13690E-05   -0.10623E-07  1173   0.626E-04    0.858E-05
RMM:  17    -0.413196519094E+03    0.17734E-05   -0.95054E-08  1192   0.624E-04    0.470E-05
[...]
RMM:  15    -0.413161015059E+03   -0.32699E-05   -0.30308E-07  1641   0.818E-04    0.167E-04
RMM:  16    -0.413161017114E+03   -0.20553E-05   -0.20944E-07  1534   0.733E-04    0.147E-04
RMM:  17    -0.413161018037E+03   -0.92267E-06   -0.11819E-07  1175   0.624E-04
  136 T=    60. E= -.41286597E+03 F= -.41316102E+03 E0= -.41314028E+03  EK= 0.29505E+00 SP= 0.00E+00 SK= 0.00E+00
       N       E                     dE             d eps       ncg     rms          rms(c)
RMM:   1    -0.413155709251E+03    0.53079E-02   -0.95187E+00  4265   0.797E-01    0.861E-01
RMM:   2    -0.413162146473E+03   -0.64372E-02   -0.10750E-01  4304   0.917E-02    0.598E-01
RMM:   3    -0.413161122718E+03    0.10238E-02   -0.95551E-03  5010   0.440E-02    0.145E-01
RMM:   4    -0.413192349206E+03   -0.31226E-01   -0.33809E-02  5144   0.153E-01    0.737E-01
RMM:   5    -0.413160571176E+03    0.31778E-01   -0.15472E-02  4805   0.123E-01    0.538E-02
RMM:   6    -0.413160599013E+03   -0.27837E-04   -0.26715E-03  5684   0.488E-02    0.286E-02
RMM:   7    -0.413160625088E+03   -0.26075E-04   -0.37111E-04  5932   0.161E-02    0.158E-02
RMM:   8    -0.413160628669E+03   -0.35816E-05   -0.55732E-05  5216   0.762E-03    0.797E-03
RMM:   9    -0.413160629062E+03   -0.39236E-06   -0.92326E-06  3355   0.347E-03
  137 T=    60. E= -.41286585E+03 F= -.41316063E+03 E0= -.41313991E+03  EK= 0.29478E+00 SP= 0.00E+00 SK= 0.00E+00
       N       E                     dE             d eps       ncg     rms          rms(c)
RMM:   1    -0.413155225796E+03    0.54029E-02   -0.97015E+00  4269   0.813E-01    0.838E-01
RMM:   2    -0.413163271464E+03   -0.80457E-02   -0.11176E-01  4310   0.975E-02    0.598E-01
RMM:   3    -0.413164577275E+03   -0.13058E-02   -0.10433E-02  5137   0.653E-02    0.260E-01
RMM:   4    -0.413188948858E+03   -0.24372E-01   -0.37656E-02  5105   0.164E-01    0.687E-01
RMM:   5    -0.413161601696E+03    0.27347E-01   -0.12091E-02  4759   0.116E-01    0.624E-02
RMM:   6    -0.413161470931E+03    0.13076E-03   -0.20238E-03  5454   0.451E-02    0.244E-02
RMM:   7    -0.413161516810E+03   -0.45879E-04   -0.36985E-04  6062   0.174E-02    0.163E-02
RMM:   8    -0.413161525985E+03   -0.91756E-05   -0.66299E-05  5416   0.858E-03    0.823E-03
RMM:   9    -0.413161532936E+03   -0.69504E-05   -0.13820E-05  4131   0.441E-03    0.392E-03
RMM:  10    -0.413161537883E+03   -0.49475E-05   -0.18346E-06  2575   0.203E-03    0.255E-03
RMM:  11    -0.413161547548E+03   -0.96644E-05   -0.17609E-06  2543   0.198E-03    0.151E-03
RMM:  12    -0.413161554946E+03   -0.73986E-05   -0.10370E-06  2510   0.146E-03    0.649E-04
RMM:  13    -0.413161558293E+03   -0.33464E-05   -0.41463E-07  1829   0.934E-04    0.379E-04
RMM:  14    -0.413161561917E+03   -0.36247E-05   -0.36288E-07  1587   0.843E-04    0.221E-04
RMM:  15    -0.413161565361E+03   -0.34441E-05   -0.37219E-07  1777   0.844E-04    0.189E-04
RMM:  16    -0.413161567142E+03   -0.17807E-05   -0.21724E-07  1414   0.698E-04    0.116E-04
RMM:  17    -0.413161568883E+03   -0.17411E-05   -0.25149E-07  1426   0.713E-04    0.667E-05
RMM:  18    -0.413161569247E+03   -0.36358E-06   -0.90171E-08  1114   0.583E-04
  138 T=    60. E= -.41286610E+03 F= -.41316157E+03 E0= -.41314086E+03  EK= 0.29547E+00 SP= 0.00E+00 SK= 0.00E+00
       N       E                     dE             d eps       ncg     rms          rms(c)
RMM:   1    -0.413154786729E+03    0.67822E-02   -0.99849E+00  4264   0.827E-01    0.846E-01
RMM:   2    -0.413163323143E+03   -0.85364E-02   -0.11598E-01  4298   0.988E-02    0.605E-01
RMM:   3    -0.413161850963E+03    0.14722E-02   -0.74492E-03  4853   0.397E-02    0.128E-01
RMM:   4    -0.413181446944E+03   -0.19596E-01   -0.20274E-02  5153   0.119E-01    0.586E-01
RMM:   5    -0.413161647395E+03    0.19800E-01   -0.99290E-03  4817   0.976E-02    0.419E-02
RMM:   6    -0.413161656589E+03   -0.91942E-05   -0.16667E-03  5688   0.389E-02    0.219E-02
RMM:   7    -0.413161682641E+03   -0.26052E-04   -0.22486E-04  5736   0.127E-02    0.118E-02
RMM:   8    -0.413161693067E+03   -0.10426E-04   -0.36311E-05  4806   0.613E-03    0.637E-03
RMM:   9    -0.413161697144E+03   -0.40765E-05   -0.54959E-06  3001   0.286E-03    0.331E-03
RMM:  10    -0.413161704344E+03   -0.72005E-05   -0.19594E-06  2548   0.200E-03    0.215E-03
RMM:  11    -0.413161711276E+03   -0.69323E-05   -0.12090E-06  2504   0.158E-03    0.942E-04
RMM:  12    -0.413161716258E+03   -0.49813E-05   -0.72695E-07  2308   0.121E-03    0.425E-04
RMM:  13    -0.413161719104E+03   -0.28459E-05   -0.38008E-07  1841   0.901E-04    0.270E-04
RMM:  14    -0.413161721267E+03   -0.21633E-05   -0.24827E-07  1445   0.775E-04    0.141E-04
RMM:  15    -0.413161723525E+03   -0.22577E-05   -0.26425E-07  1510   0.767E-04    0.108E-04
RMM:  16    -0.413161724796E+03   -0.12711E-05   -0.17693E-07  1377   0.700E-04    0.771E-05
RMM:  17    -0.413161725009E+03   -0.21329E-06   -0.80776E-08  1024   0.591E-04
  139 T=    60. E= -.41286573E+03 F= -.41316173E+03 E0= -.41314103E+03  EK= 0.29600E+00 SP= 0.00E+00 SK= 0.00E+00
       N       E                     dE             d eps       ncg     rms          rms(c)
RMM:   1    -0.413154567554E+03    0.71572E-02   -0.10172E+01  4264   0.831E-01    0.866E-01
RMM:   2    -0.413162606364E+03   -0.80388E-02   -0.11594E-01  4299   0.960E-02    0.596E-01
RMM:   3    -0.413161913361E+03    0.69300E-03   -0.70760E-03  4845   0.359E-02    0.138E-01
RMM:   4    -0.413173821245E+03   -0.11908E-01   -0.12331E-02  5162   0.935E-02    0.458E-01
RMM:   5    -0.413161876561E+03    0.11945E-01   -0.60545E-03  4822   0.762E-02    0.381E-02
RMM:   6    -0.413161861619E+03    0.14942E-04   -0.10385E-03  5660   0.317E-02    0.209E-02
RMM:   7    -0.413161875072E+03   -0.13454E-04   -0.15195E-04  5566   0.108E-02    0.102E-02
RMM:   8    -0.413161877972E+03   -0.28994E-05   -0.27500E-05  4620   0.549E-03    0.549E-03
RMM:   9    -0.413161878842E+03   -0.87044E-06   -0.31532E-06  2730   0.238E-03
  140 T=    60. E= -.41286592E+03 F= -.41316188E+03 E0= -.41314120E+03  EK= 0.29596E+00 SP= 0.00E+00 SK= 0.00E+00
       N       E                     dE             d eps       ncg     rms          rms(c)
RMM:   1    -0.413154052390E+03    0.78256E-02   -0.10205E+01  4269   0.834E-01    0.842E-01
RMM:   2    -0.413163425934E+03   -0.93735E-02   -0.11810E-01  4303   0.101E-01    0.593E-01
RMM:   3    -0.413162636491E+03    0.78944E-03   -0.63705E-03  4962   0.418E-02    0.155E-01
RMM:   4    -0.413191776470E+03   -0.29140E-01   -0.30375E-02  5150   0.145E-01    0.711E-01
RMM:   5    -0.413162260669E+03    0.29516E-01   -0.14682E-02  4822   0.119E-01    0.479E-02
RMM:   6    -0.413162262806E+03   -0.21368E-05   -0.23595E-03  5697   0.466E-02    0.176E-02
RMM:   7    -0.413162296475E+03   -0.33669E-04   -0.29446E-04  5892   0.143E-02    0.121E-02
RMM:   8    -0.413162305637E+03   -0.91615E-05   -0.40223E-05  4719   0.605E-03    0.701E-03
RMM:   9    -0.413162311663E+03   -0.60267E-05   -0.67093E-06  2975   0.305E-03    0.318E-03
RMM:  10    -0.413162317616E+03   -0.59523E-05   -0.22931E-06  2577   0.203E-03    0.199E-03
RMM:  11    -0.413162323040E+03   -0.54247E-05   -0.13795E-06  2509   0.161E-03    0.101E-03
RMM:  12    -0.413162326500E+03   -0.34597E-05   -0.84410E-07  2317   0.123E-03    0.376E-04
RMM:  13    -0.413162328222E+03   -0.17216E-05   -0.43270E-07  1897   0.932E-04    0.276E-04
RMM:  14    -0.413162330184E+03   -0.19619E-05   -0.49826E-07  1728   0.914E-04    0.156E-04
RMM:  15    -0.413162331010E+03   -0.82695E-06   -0.27953E-07  1567   0.774E-04
  141 T=    60. E= -.41286594E+03 F= -.41316233E+03 E0= -.41314166E+03  EK= 0.29639E+00 SP= 0.00E+00 SK= 0.00E+00
       N       E                     dE             d eps       ncg     rms          rms(c)
RMM:   1    -0.413154136637E+03    0.81935E-02   -0.10355E+01  4264   0.845E-01    0.841E-01
RMM:   2    -0.413163915285E+03   -0.97786E-02   -0.12291E-01  4295   0.101E-01    0.605E-01
RMM:   3    -0.413162777888E+03    0.11374E-02   -0.59100E-03  4653   0.352E-02    0.132E-01
RMM:   4    -0.413162965424E+03   -0.18754E-03   -0.10155E-03  5125   0.262E-02    0.610E-02
RMM:   5    -0.413162803250E+03    0.16217E-03   -0.18217E-04  4921   0.142E-02    0.319E-02
RMM:   6    -0.413162765945E+03    0.37305E-04   -0.10732E-04  5107   0.111E-02    0.121E-02
RMM:   7    -0.413162788596E+03   -0.22651E-04   -0.30890E-05  4945   0.632E-03    0.754E-03
RMM:   8    -0.413162795688E+03   -0.70923E-05   -0.68526E-06  3218   0.347E-03    0.328E-03
RMM:   9    -0.413162800007E+03   -0.43187E-05   -0.13697E-06  2492   0.193E-03    0.178E-03
RMM:  10    -0.413162806114E+03   -0.61070E-05   -0.11487E-06  2448   0.155E-03    0.904E-04
RMM:  11    -0.413162812090E+03   -0.59758E-05   -0.99636E-07  2312   0.129E-03    0.492E-04
RMM:  12    -0.413162814708E+03   -0.26181E-05   -0.39233E-07  1761   0.872E-04    0.275E-04
RMM:  13    -0.413162817144E+03   -0.24362E-05   -0.34408E-07  1597   0.794E-04    0.159E-04
RMM:  14    -0.413162819045E+03   -0.19010E-05   -0.35284E-07  1531   0.759E-04    0.106E-04
RMM:  15    -0.413162819293E+03   -0.24787E-06   -0.92714E-08   977   0.560E-04
  142 T=    61. E= -.41286554E+03 F= -.41316282E+03 E0= -.41314217E+03  EK= 0.29728E+00 SP= 0.00E+00 SK= 0.00E+00
       N       E                     dE             d eps       ncg     rms          rms(c)
RMM:   1    -0.413155118985E+03    0.77001E-02   -0.10430E+01  4264   0.849E-01    0.865E-01
RMM:   2    -0.413164260353E+03   -0.91414E-02   -0.12063E-01  4300   0.992E-02    0.598E-01
RMM:   3    -0.413163576593E+03    0.68376E-03   -0.61147E-03  4717   0.349E-02    0.145E-01
RMM:   4    -0.413165653819E+03   -0.20772E-02   -0.27421E-03  5206   0.451E-02    0.193E-01
RMM:   5    -0.413163611414E+03    0.20424E-02   -0.10965E-03  4837   0.332E-02    0.292E-02
RMM:   6    -0.413163582836E+03    0.28578E-04   -0.26414E-04  5409   0.170E-02    0.141E-02
RMM:   7    -0.413163592921E+03   -0.10085E-04   -0.47603E-05  5095   0.702E-03    0.770E-03
RMM:   8    -0.413163594454E+03   -0.15330E-05   -0.88794E-06  3433   0.362E-03    0.349E-03
RMM:   9    -0.413163596038E+03   -0.15838E-05   -0.24070E-06  2565   0.235E-03    0.179E-03
RMM:  10    -0.413163597328E+03   -0.12903E-05   -0.99946E-07  2477   0.154E-03    0.930E-04
RMM:  11    -0.413163598176E+03   -0.84758E-06   -0.72264E-07  2239   0.117E-03
  143 T=    61. E= -.41286598E+03 F= -.41316360E+03 E0= -.41314296E+03  EK= 0.29762E+00 SP= 0.00E+00 SK= 0.00E+00
       N       E                     dE             d eps       ncg     rms          rms(c)
RMM:   1    -0.413154727866E+03    0.88695E-02   -0.10327E+01  4264   0.848E-01    0.847E-01
RMM:   2    -0.413163967981E+03   -0.92401E-02   -0.12121E-01  4300   0.965E-02    0.593E-01
RMM:   3    -0.413163393542E+03    0.57444E-03   -0.58541E-03  4825   0.357E-02    0.146E-01
RMM:   4    -0.413171246572E+03   -0.78530E-02   -0.83439E-03  5168   0.787E-02    0.374E-01
RMM:   5    -0.413163335975E+03    0.79106E-02   -0.40593E-03  4838   0.621E-02    0.326E-02
RMM:   6    -0.413163305433E+03    0.30542E-04   -0.68772E-04  5613   0.260E-02    0.130E-02
RMM:   7    -0.413163317104E+03   -0.11671E-04   -0.91768E-05  5328   0.882E-03    0.830E-03
RMM:   8    -0.413163320966E+03   -0.38618E-05   -0.14173E-05  3787   0.413E-03    0.456E-03
RMM:   9    -0.413163323748E+03   -0.27824E-05   -0.29436E-06  2602   0.247E-03    0.191E-03
RMM:  10    -0.413163325801E+03   -0.20522E-05   -0.12745E-06  2526   0.160E-03    0.954E-04
RMM:  11    -0.413163327054E+03   -0.12540E-05   -0.89707E-07  2395   0.127E-03    0.525E-04
RMM:  12    -0.413163327275E+03   -0.22045E-06   -0.51764E-07  1942   0.971E-04
  144 T=    61. E= -.41286558E+03 F= -.41316333E+03 E0= -.41314270E+03  EK= 0.29775E+00 SP= 0.00E+00 SK= 0.00E+00
       N       E                     dE             d eps       ncg     rms          rms(c)
RMM:   1    -0.413155638621E+03    0.76884E-02   -0.10306E+01  4264   0.854E-01    0.836E-01
RMM:   2    -0.413165782090E+03   -0.10143E-01   -0.12418E-01  4300   0.992E-02    0.606E-01
RMM:   3    -0.413164621341E+03    0.11607E-02   -0.58698E-03  4949   0.364E-02    0.144E-01
RMM:   4    -0.413181424636E+03   -0.16803E-01   -0.17344E-02  5167   0.110E-01    0.542E-01
RMM:   5    -0.413164502901E+03    0.16922E-01   -0.85461E-03  4834   0.898E-02    0.389E-02
RMM:   6    -0.413164496282E+03    0.66192E-05   -0.14231E-03  5713   0.353E-02    0.127E-02
RMM:   7    -0.413164520482E+03   -0.24200E-04   -0.17470E-04  5623   0.110E-02    0.922E-03
RMM:   8    -0.413164529811E+03   -0.93288E-05   -0.23472E-05  4180   0.480E-03    0.553E-03
RMM:   9    -0.413164536488E+03   -0.66765E-05   -0.41117E-06  2727   0.262E-03    0.244E-03
RMM:  10    -0.413164541849E+03   -0.53613E-05   -0.18333E-06  2565   0.180E-03    0.137E-03
RMM:  11    -0.413164545911E+03   -0.40622E-05   -0.10862E-06  2480   0.139E-03    0.725E-04
RMM:  12    -0.413164547979E+03   -0.20681E-05   -0.63538E-07  2070   0.106E-03    0.298E-04
RMM:  13    -0.413164549007E+03   -0.10277E-05   -0.43088E-07  1800   0.910E-04    0.205E-04
RMM:  14    -0.413164549349E+03   -0.34177E-06   -0.42656E-07  1790   0.866E-04
  145 T=    61. E= -.41286578E+03 F= -.41316455E+03 E0= -.41314393E+03  EK= 0.29877E+00 SP= 0.00E+00 SK= 0.00E+00
       N       E                     dE             d eps       ncg     rms          rms(c)
RMM:   1    -0.413157285444E+03    0.72636E-02   -0.10238E+01  4266   0.855E-01    0.857E-01
RMM:   2    -0.413166252185E+03   -0.89667E-02   -0.12081E-01  4297   0.979E-02    0.603E-01
RMM:   3    -0.413165481169E+03    0.77102E-03   -0.64367E-03  4976   0.390E-02    0.151E-01
RMM:   4    -0.413189021028E+03   -0.23540E-01   -0.24342E-02  5155   0.130E-01    0.640E-01
RMM:   5    -0.413165165636E+03    0.23855E-01   -0.11987E-02  4827   0.107E-01    0.460E-02
RMM:   6    -0.413165180820E+03   -0.15184E-04   -0.19545E-03  5696   0.417E-02    0.173E-02
RMM:   7    -0.413165201186E+03   -0.20366E-04   -0.24693E-04  5795   0.128E-02    0.113E-02
RMM:   8    -0.413165204643E+03   -0.34568E-05   -0.34141E-05  4733   0.583E-03    0.642E-03
RMM:   9    -0.413165204761E+03   -0.11807E-06   -0.60734E-06  2965   0.298E-03
  146 T=    61. E= -.41286591E+03 F= -.41316520E+03 E0= -.41314459E+03  EK= 0.29930E+00 SP= 0.00E+00 SK= 0.00E+00
       N       E                     dE             d eps       ncg     rms          rms(c)
RMM:   1    -0.413157554488E+03    0.76502E-02   -0.10034E+01  4268   0.846E-01    0.853E-01
RMM:   2    -0.413166215156E+03   -0.86607E-02   -0.11900E-01  4299   0.984E-02    0.598E-01
RMM:   3    -0.413166341146E+03   -0.12599E-03   -0.78247E-03  5137   0.501E-02    0.203E-01
RMM:   4    -0.413202320786E+03   -0.35980E-01   -0.42663E-02  5128   0.172E-01    0.797E-01
RMM:   5    -0.413165033817E+03    0.37287E-01   -0.17998E-02  4818   0.134E-01    0.639E-02
RMM:   6    -0.413165003242E+03    0.30576E-04   -0.28289E-03  5592   0.523E-02    0.210E-02
RMM:   7    -0.413165037909E+03   -0.34667E-04   -0.42711E-04  6099   0.174E-02    0.147E-02
RMM:   8    -0.413165039867E+03   -0.19576E-05   -0.65307E-05  5449   0.790E-03    0.838E-03
RMM:   9    -0.413165037739E+03    0.21275E-05   -0.11936E-05  3625   0.402E-03    0.366E-03
RMM:  10    -0.413165037677E+03    0.62428E-07   -0.24604E-06  2592   0.216E-03
  147 T=    61. E= -.41286558E+03 F= -.41316504E+03 E0= -.41314443E+03  EK= 0.29946E+00 SP= 0.00E+00 SK= 0.00E+00
       N       E                     dE             d eps       ncg     rms          rms(c)
RMM:   1    -0.413160221034E+03    0.48167E-02   -0.98513E+00  4280   0.857E-01    0.833E-01
RMM:   2    -0.413168561911E+03   -0.83409E-02   -0.12152E-01  4299   0.102E-01    0.608E-01
RMM:   3    -0.413167472241E+03    0.10897E-02   -0.77952E-03  5117   0.474E-02    0.177E-01
RMM:   4    -0.413206986859E+03   -0.39515E-01   -0.44422E-02  5132   0.175E-01    0.827E-01
RMM:   5    -0.413166466126E+03    0.40521E-01   -0.19766E-02  4818   0.139E-01    0.633E-02
RMM:   6    -0.413166477785E+03   -0.11659E-04   -0.31273E-03  5630   0.546E-02    0.214E-02
RMM:   7    -0.413166516974E+03   -0.39189E-04   -0.44724E-04  6090   0.174E-02    0.147E-02
RMM:   8    -0.413166523092E+03   -0.61177E-05   -0.69516E-05  5458   0.831E-03    0.848E-03
RMM:   9    -0.413166523935E+03   -0.84326E-06   -0.12352E-05  3609   0.397E-03    0.355E-03
RMM:  10    -0.413166526025E+03   -0.20898E-05   -0.29849E-06  2622   0.231E-03    0.222E-03
RMM:  11    -0.413166527755E+03   -0.17302E-05   -0.17543E-06  2539   0.194E-03    0.144E-03
RMM:  12    -0.413166527708E+03    0.47014E-07   -0.99772E-07  2514   0.146E-03
  148 T=    61. E= -.41286582E+03 F= -.41316653E+03 E0= -.41314593E+03  EK= 0.30071E+00 SP= 0.00E+00 SK= 0.00E+00
       N       E                     dE             d eps       ncg     rms          rms(c)
RMM:   1    -0.413161606756E+03    0.49210E-02   -0.96695E+00  4271   0.853E-01    0.849E-01
RMM:   2    -0.413169331768E+03   -0.77250E-02   -0.11731E-01  4295   0.101E-01    0.612E-01
RMM:   3    -0.413167948939E+03    0.13828E-02   -0.87043E-03  5025   0.489E-02    0.162E-01
RMM:   4    -0.413205469612E+03   -0.37521E-01   -0.41351E-02  5129   0.169E-01    0.806E-01
RMM:   5    -0.413167105854E+03    0.38364E-01   -0.18772E-02  4815   0.135E-01    0.602E-02
RMM:   6    -0.413167145599E+03   -0.39744E-04   -0.30072E-03  5655   0.531E-02    0.244E-02
RMM:   7    -0.413167177732E+03   -0.32133E-04   -0.42049E-04  6073   0.168E-02    0.153E-02
RMM:   8    -0.413167181226E+03   -0.34941E-05   -0.70207E-05  5446   0.852E-03    0.867E-03
RMM:   9    -0.413167179265E+03    0.19608E-05   -0.11972E-05  3609   0.398E-03    0.353E-03
RMM:  10    -0.413167179684E+03   -0.41882E-06   -0.33685E-06  2685   0.243E-03
  149 T=    61. E= -.41286574E+03 F= -.41316718E+03 E0= -.41314659E+03  EK= 0.30144E+00 SP= 0.00E+00 SK= 0.00E+00
       N       E                     dE             d eps       ncg     rms          rms(c)
RMM:   1    -0.413162398637E+03    0.47806E-02   -0.93801E+00  4280   0.828E-01    0.857E-01
RMM:   2    -0.413169387412E+03   -0.69888E-02   -0.11265E-01  4296   0.982E-02    0.607E-01
RMM:   3    -0.413168881877E+03    0.50553E-03   -0.10499E-02  5094   0.571E-02    0.203E-01
RMM:   4    -0.413203206924E+03   -0.34325E-01   -0.42399E-02  5118   0.172E-01    0.782E-01
RMM:   5    -0.413167270850E+03    0.35936E-01   -0.17013E-02  4804   0.131E-01    0.667E-02
RMM:   6    -0.413167227162E+03    0.43688E-04   -0.27660E-03  5567   0.518E-02    0.276E-02
RMM:   7    -0.413167256611E+03   -0.29449E-04   -0.46000E-04  6090   0.185E-02    0.179E-02
RMM:   8    -0.413167253108E+03    0.35027E-05   -0.86915E-05  5457   0.979E-03    0.937E-03
RMM:   9    -0.413167246962E+03    0.61461E-05   -0.14072E-05  4016   0.448E-03    0.395E-03
RMM:  10    -0.413167245289E+03    0.16732E-05   -0.25758E-06  2620   0.225E-03    0.259E-03
RMM:  11    -0.413167241427E+03    0.38615E-05   -0.18217E-06  2541   0.204E-03    0.160E-03
RMM:  12    -0.413167236438E+03    0.49895E-05   -0.95009E-07  2514   0.152E-03    0.672E-04
RMM:  13    -0.413167233885E+03    0.25523E-05   -0.38359E-07  2018   0.101E-03    0.386E-04
RMM:  14    -0.413167230086E+03    0.37996E-05   -0.30365E-07  1843   0.891E-04    0.260E-04
RMM:  15    -0.413167225155E+03    0.49307E-05   -0.28576E-07  1766   0.840E-04    0.183E-04
RMM:  16    -0.413167222347E+03    0.28082E-05   -0.14450E-07  1394   0.675E-04    0.101E-04
RMM:  17    -0.413167218955E+03    0.33922E-05   -0.12618E-07  1386   0.671E-04    0.890E-05
RMM:  18    -0.413167217864E+03    0.10910E-05   -0.54522E-08   979   0.560E-04    0.694E-05
RMM:  19    -0.413167216433E+03    0.14306E-05   -0.40732E-08   984   0.551E-04    0.435E-05
RMM:  20    -0.413167215996E+03    0.43738E-06   -0.21746E-08   799   0.513E-04
  150 T=    61. E= -.41286558E+03 F= -.41316722E+03 E0= -.41314663E+03  EK= 0.30163E+00 SP= 0.00E+00 SK= 0.00E+00
