       N       E                     dE             d eps       ncg     rms          rms(c)
RMM:   1     0.220134913388E+04    0.22013E+04   -0.52441E+04  2132   0.654E+02
RMM:   2     0.705626351738E+03   -0.14957E+04   -0.16261E+04  2132   0.177E+02
RMM:   3     0.137748650936E+03   -0.56788E+03   -0.65732E+03  2132   0.117E+02
RMM:   4    -0.159462015948E+03   -0.29721E+03   -0.27844E+03  2132   0.936E+01
RMM:   5    -0.287502540388E+03   -0.12804E+03   -0.11441E+03  2132   0.595E+01
RMM:   6    -0.349842534193E+03   -0.62340E+02   -0.55120E+02  2132   0.423E+01
RMM:   7    -0.382719386319E+03   -0.32877E+02   -0.30398E+02  2132   0.293E+01
RMM:   8    -0.404231728207E+03   -0.21512E+02   -0.18454E+02  2132   0.233E+01
RMM:   9    -0.436045435526E+03   -0.31814E+02   -0.30646E+02  6112   0.173E+01
RMM:  10    -0.441335735248E+03   -0.52903E+01   -0.63020E+01  6393   0.539E+00
RMM:  11    -0.442508625337E+03   -0.11729E+01   -0.11032E+01  6206   0.172E+00
RMM:  12    -0.442865931720E+03   -0.35731E+00   -0.24958E+00  6373   0.593E-01    0.134E+02
RMM:  13    -0.425594832451E+03    0.17271E+02   -0.81304E+01  4673   0.120E+01    0.712E+01
RMM:  14    -0.498919576926E+03   -0.73325E+02   -0.53863E+02  5416   0.232E+01    0.306E+01
RMM:  15    -0.413362390404E+03    0.85557E+02   -0.19301E+02  5045   0.162E+01    0.551E+00
RMM:  16    -0.414144017821E+03   -0.78163E+00   -0.38929E+01  6069   0.599E+00    0.436E+00
RMM:  17    -0.413258388433E+03    0.88563E+00   -0.21630E+00  5302   0.176E+00    0.256E+00
RMM:  18    -0.413155681064E+03    0.10271E+00   -0.10776E+00  5904   0.108E+00    0.155E+00
RMM:  19    -0.413168069977E+03   -0.12389E-01   -0.27960E-01  5791   0.551E-01    0.874E-01
RMM:  20    -0.413187672568E+03   -0.19603E-01   -0.20978E-01  5230   0.517E-01    0.604E-01
RMM:  21    -0.413168291845E+03    0.19381E-01   -0.36990E-02  4973   0.240E-01    0.289E-01
RMM:  22    -0.413166287786E+03    0.20041E-02   -0.16632E-02  6152   0.112E-01    0.167E-01
RMM:  23    -0.413164362233E+03    0.19256E-02   -0.62036E-03  5886   0.737E-02    0.841E-02
RMM:  24    -0.413162945932E+03    0.14163E-02   -0.20880E-03  5741   0.455E-02    0.386E-02
RMM:  25    -0.413162679916E+03    0.26602E-03   -0.79299E-04  5896   0.251E-02    0.268E-02
RMM:  26    -0.413162864622E+03   -0.18471E-03   -0.58827E-04  5826   0.257E-02    0.300E-02
RMM:  27    -0.413163298302E+03   -0.43368E-03   -0.17978E-04  4576   0.191E-02    0.188E-02
RMM:  28    -0.413163729266E+03   -0.43096E-03   -0.16770E-04  5213   0.182E-02    0.920E-03
RMM:  29    -0.413164144058E+03   -0.41479E-03   -0.11312E-04  4375   0.163E-02    0.350E-03
RMM:  30    -0.413164370765E+03   -0.22671E-03   -0.87871E-05  4294   0.106E-02    0.344E-03
RMM:  31    -0.413164458550E+03   -0.87785E-04   -0.43189E-05  3110   0.556E-03    0.218E-03
RMM:  32    -0.413164479702E+03   -0.21152E-04   -0.16792E-05  2922   0.280E-03    0.114E-03
RMM:  33    -0.413164485726E+03   -0.60243E-05   -0.78609E-06  2752   0.200E-03    0.799E-04
RMM:  34    -0.413164487397E+03   -0.16701E-05   -0.34225E-06  2565   0.147E-03    0.663E-04
RMM:  35    -0.413164486832E+03    0.56469E-06   -0.21463E-06  1921   0.101E-03
    1 T=    61. E= -.41286667E+03 F= -.41316449E+03 E0= -.41314199E+03  EK= 0.29781E+00 SP= 0.00E+00 SK= 0.00E+00
       N       E                     dE             d eps       ncg     rms          rms(c)
RMM:   1    -0.413163472307E+03    0.10151E-02   -0.88865E+00  4002   0.610E-01    0.887E-01
RMM:   2    -0.413168530212E+03   -0.50579E-02   -0.10915E-01  3965   0.878E-02    0.652E-01
RMM:   3    -0.413164897534E+03    0.36327E-02   -0.17854E-02  4951   0.535E-02    0.125E-01
RMM:   4    -0.413196707678E+03   -0.31810E-01   -0.35575E-02  5192   0.157E-01    0.744E-01
RMM:   5    -0.413163950373E+03    0.32757E-01   -0.15600E-02  4836   0.125E-01    0.509E-02
RMM:   6    -0.413164175802E+03   -0.22543E-03   -0.28460E-03  5794   0.519E-02    0.342E-02
RMM:   7    -0.413164185809E+03   -0.10007E-04   -0.48048E-04  5743   0.201E-02    0.223E-02
RMM:   8    -0.413164182630E+03    0.31793E-05   -0.72581E-05  5227   0.918E-03    0.105E-02
RMM:   9    -0.413164184068E+03   -0.14387E-05   -0.14518E-05  3991   0.416E-03    0.757E-03
RMM:  10    -0.413164189135E+03   -0.50664E-05   -0.25689E-06  2634   0.233E-03    0.468E-03
RMM:  11    -0.413164192951E+03   -0.38160E-05   -0.12846E-06  2521   0.171E-03    0.283E-03
RMM:  12    -0.413164200525E+03   -0.75740E-05   -0.21717E-06  2610   0.210E-03    0.120E-03
RMM:  13    -0.413164204165E+03   -0.36404E-05   -0.87127E-07  2455   0.145E-03    0.986E-04
RMM:  14    -0.413164203724E+03    0.44181E-06   -0.37606E-07  2016   0.931E-04
    2 T=    61. E= -.41286644E+03 F= -.41316420E+03 E0= -.41314170E+03  EK= 0.29776E+00 SP= 0.00E+00 SK= 0.00E+00
       N       E                     dE             d eps       ncg     rms          rms(c)
RMM:   1    -0.413164563710E+03   -0.35954E-03   -0.88813E+00  4186   0.621E-01    0.905E-01
RMM:   2    -0.413168759737E+03   -0.41960E-02   -0.10819E-01  3891   0.866E-02    0.648E-01
RMM:   3    -0.413165083374E+03    0.36764E-02   -0.16597E-02  4834   0.457E-02    0.981E-02
RMM:   4    -0.413187084570E+03   -0.22001E-01   -0.22786E-02  5166   0.126E-01    0.622E-01
RMM:   5    -0.413164621960E+03    0.22463E-01   -0.10794E-02  4830   0.103E-01    0.469E-02
RMM:   6    -0.413164786686E+03   -0.16473E-03   -0.20177E-03  5796   0.433E-02    0.323E-02
RMM:   7    -0.413164779560E+03    0.71267E-05   -0.37362E-04  5614   0.187E-02    0.205E-02
RMM:   8    -0.413164768739E+03    0.10820E-04   -0.52668E-05  4956   0.830E-03    0.977E-03
RMM:   9    -0.413164767627E+03    0.11123E-05   -0.11006E-05  3691   0.369E-03    0.741E-03
RMM:  10    -0.413164768022E+03   -0.39520E-06   -0.19608E-06  2560   0.231E-03
    3 T=    61. E= -.41286678E+03 F= -.41316477E+03 E0= -.41314227E+03  EK= 0.29798E+00 SP= 0.00E+00 SK= 0.00E+00
       N       E                     dE             d eps       ncg     rms          rms(c)
RMM:   1    -0.413163876134E+03    0.89149E-03   -0.88135E+00  4222   0.621E-01    0.890E-01
RMM:   2    -0.413168334449E+03   -0.44583E-02   -0.10772E-01  4222   0.863E-02    0.642E-01
RMM:   3    -0.413170114843E+03   -0.17804E-02   -0.20375E-02  5166   0.817E-02    0.322E-01
RMM:   4    -0.413188806797E+03   -0.18692E-01   -0.38899E-02  5116   0.169E-01    0.644E-01
RMM:   5    -0.413164484499E+03    0.24322E-01   -0.92395E-03  4708   0.105E-01    0.597E-02
RMM:   6    -0.413164506433E+03   -0.21934E-04   -0.18255E-03  5461   0.432E-02    0.318E-02
RMM:   7    -0.413164527279E+03   -0.20846E-04   -0.35538E-04  5984   0.172E-02    0.192E-02
RMM:   8    -0.413164523515E+03    0.37645E-05   -0.61502E-05  5141   0.911E-03    0.792E-03
RMM:   9    -0.413164521923E+03    0.15918E-05   -0.77403E-06  3359   0.359E-03    0.408E-03
RMM:  10    -0.413164523205E+03   -0.12825E-05   -0.17798E-06  2562   0.216E-03    0.261E-03
RMM:  11    -0.413164524965E+03   -0.17599E-05   -0.13298E-06  2532   0.180E-03    0.146E-03
RMM:  12    -0.413164525939E+03   -0.97431E-06   -0.79757E-07  2492   0.141E-03
    4 T=    61. E= -.41286657E+03 F= -.41316453E+03 E0= -.41314204E+03  EK= 0.29796E+00 SP= 0.00E+00 SK= 0.00E+00
       N       E                     dE             d eps       ncg     rms          rms(c)
RMM:   1    -0.413163822313E+03    0.70265E-03   -0.88748E+00  4235   0.622E-01    0.884E-01
RMM:   2    -0.413168831334E+03   -0.50090E-02   -0.10923E-01  4113   0.884E-02    0.650E-01
RMM:   3    -0.413165337144E+03    0.34942E-02   -0.17795E-02  4922   0.519E-02    0.121E-01
RMM:   4    -0.413196061337E+03   -0.30724E-01   -0.33018E-02  5146   0.152E-01    0.734E-01
RMM:   5    -0.413164466828E+03    0.31595E-01   -0.14865E-02  4804   0.122E-01    0.501E-02
RMM:   6    -0.413164676451E+03   -0.20962E-03   -0.26526E-03  5762   0.506E-02    0.338E-02
RMM:   7    -0.413164680743E+03   -0.42923E-05   -0.45203E-04  5731   0.197E-02    0.215E-02
RMM:   8    -0.413164678119E+03    0.26239E-05   -0.63875E-05  5127   0.881E-03    0.995E-03
RMM:   9    -0.413164678860E+03   -0.74076E-06   -0.12597E-05  3845   0.399E-03    0.728E-03
RMM:  10    -0.413164682979E+03   -0.41188E-05   -0.20139E-06  2577   0.227E-03    0.445E-03
RMM:  11    -0.413164686594E+03   -0.36157E-05   -0.12309E-06  2530   0.176E-03    0.247E-03
RMM:  12    -0.413164692484E+03   -0.58895E-05   -0.19431E-06  2603   0.201E-03    0.108E-03
RMM:  13    -0.413164694532E+03   -0.20478E-05   -0.62743E-07  2404   0.133E-03    0.800E-04
RMM:  14    -0.413164694309E+03    0.22235E-06   -0.24766E-07  1912   0.863E-04
    5 T=    61. E= -.41286659E+03 F= -.41316469E+03 E0= -.41314222E+03  EK= 0.29811E+00 SP= 0.00E+00 SK= 0.00E+00
       N       E                     dE             d eps       ncg     rms          rms(c)
RMM:   1    -0.413164739361E+03   -0.44829E-04   -0.88850E+00  4247   0.630E-01    0.902E-01
RMM:   2    -0.413168982214E+03   -0.42429E-02   -0.10855E-01  4093   0.877E-02    0.649E-01
RMM:   3    -0.413165525353E+03    0.34569E-02   -0.16838E-02  4816   0.478E-02    0.100E-01
RMM:   4    -0.413189007472E+03   -0.23482E-01   -0.24340E-02  5143   0.130E-01    0.642E-01
RMM:   5    -0.413165006492E+03    0.24001E-01   -0.11455E-02  4813   0.106E-01    0.475E-02
RMM:   6    -0.413165180513E+03   -0.17402E-03   -0.21492E-03  5752   0.445E-02    0.331E-02
RMM:   7    -0.413165173417E+03    0.70963E-05   -0.39171E-04  5606   0.190E-02    0.209E-02
RMM:   8    -0.413165163968E+03    0.94490E-05   -0.53888E-05  4969   0.836E-03    0.987E-03
RMM:   9    -0.413165162582E+03    0.13860E-05   -0.10743E-05  3645   0.369E-03    0.746E-03
RMM:  10    -0.413165163089E+03   -0.50748E-06   -0.19098E-06  2554   0.229E-03
    6 T=    61. E= -.41286677E+03 F= -.41316516E+03 E0= -.41314270E+03  EK= 0.29840E+00 SP= 0.00E+00 SK= 0.00E+00
       N       E                     dE             d eps       ncg     rms          rms(c)
RMM:   1    -0.413164634928E+03    0.52765E-03   -0.88367E+00  4255   0.638E-01    0.897E-01
RMM:   2    -0.413168681821E+03   -0.40469E-02   -0.10796E-01  4266   0.871E-02    0.643E-01
RMM:   3    -0.413170385737E+03   -0.17039E-02   -0.20263E-02  5138   0.812E-02    0.319E-01
RMM:   4    -0.413189408802E+03   -0.19023E-01   -0.38812E-02  5096   0.168E-01    0.646E-01
RMM:   5    -0.413164894891E+03    0.24514E-01   -0.93546E-03  4702   0.105E-01    0.598E-02
RMM:   6    -0.413164922995E+03   -0.28104E-04   -0.18580E-03  5467   0.433E-02    0.322E-02
RMM:   7    -0.413164943061E+03   -0.20066E-04   -0.35558E-04  5971   0.170E-02    0.193E-02
RMM:   8    -0.413164937740E+03    0.53209E-05   -0.61419E-05  5130   0.906E-03    0.794E-03
RMM:   9    -0.413164934569E+03    0.31709E-05   -0.76245E-06  3358   0.355E-03    0.410E-03
RMM:  10    -0.413164934572E+03   -0.29431E-08   -0.17948E-06  2564   0.215E-03
    7 T=    61. E= -.41286647E+03 F= -.41316493E+03 E0= -.41314249E+03  EK= 0.29847E+00 SP= 0.00E+00 SK= 0.00E+00
       N       E                     dE             d eps       ncg     rms          rms(c)
RMM:   1    -0.413164713318E+03    0.22125E-03   -0.88604E+00  4272   0.635E-01    0.883E-01
RMM:   2    -0.413169723928E+03   -0.50106E-02   -0.10882E-01  4108   0.872E-02    0.648E-01
RMM:   3    -0.413166272525E+03    0.34514E-02   -0.17660E-02  4947   0.523E-02    0.128E-01
RMM:   4    -0.413198894116E+03   -0.32622E-01   -0.35475E-02  5138   0.157E-01    0.756E-01
RMM:   5    -0.413165296528E+03    0.33598E-01   -0.15752E-02  4799   0.125E-01    0.516E-02
RMM:   6    -0.413165510149E+03   -0.21362E-03   -0.27945E-03  5740   0.520E-02    0.343E-02
RMM:   7    -0.413165512297E+03   -0.21482E-05   -0.47342E-04  5748   0.199E-02    0.218E-02
RMM:   8    -0.413165508170E+03    0.41266E-05   -0.65810E-05  5171   0.887E-03    0.999E-03
RMM:   9    -0.413165507790E+03    0.38057E-06   -0.12745E-05  3866   0.399E-03    0.716E-03
RMM:  10    -0.413165510573E+03   -0.27838E-05   -0.20505E-06  2578   0.225E-03    0.438E-03
RMM:  11    -0.413165512963E+03   -0.23899E-05   -0.11817E-06  2529   0.171E-03    0.246E-03
RMM:  12    -0.413165516838E+03   -0.38752E-05   -0.19144E-06  2594   0.199E-03    0.108E-03
RMM:  13    -0.413165518174E+03   -0.13353E-05   -0.68250E-07  2425   0.135E-03    0.854E-04
RMM:  14    -0.413165517923E+03    0.25106E-06   -0.25190E-07  1930   0.871E-04
    8 T=    61. E= -.41286671E+03 F= -.41316552E+03 E0= -.41314309E+03  EK= 0.29881E+00 SP= 0.00E+00 SK= 0.00E+00
       N       E                     dE             d eps       ncg     rms          rms(c)
RMM:   1    -0.413165169756E+03    0.34842E-03   -0.88958E+00  4280   0.642E-01    0.898E-01
RMM:   2    -0.413169888350E+03   -0.47186E-02   -0.10870E-01  4178   0.885E-02    0.651E-01
RMM:   3    -0.413166102302E+03    0.37860E-02   -0.17181E-02  4851   0.488E-02    0.104E-01
RMM:   4    -0.413191489172E+03   -0.25387E-01   -0.26540E-02  5133   0.136E-01    0.667E-01
RMM:   5    -0.413165500290E+03    0.25989E-01   -0.12378E-02  4801   0.110E-01    0.479E-02
RMM:   6    -0.413165687288E+03   -0.18700E-03   -0.23088E-03  5768   0.459E-02    0.328E-02
RMM:   7    -0.413165686196E+03    0.10925E-05   -0.39589E-04  5626   0.191E-02    0.210E-02
RMM:   8    -0.413165676319E+03    0.98763E-05   -0.59378E-05  4996   0.855E-03    0.101E-02
RMM:   9    -0.413165674599E+03    0.17202E-05   -0.11526E-05  3796   0.386E-03    0.762E-03
RMM:  10    -0.413165675197E+03   -0.59833E-06   -0.19270E-06  2558   0.228E-03
    9 T=    61. E= -.41286663E+03 F= -.41316568E+03 E0= -.41314327E+03  EK= 0.29905E+00 SP= 0.00E+00 SK= 0.00E+00
       N       E                     dE             d eps       ncg     rms          rms(c)
RMM:   1    -0.413165484608E+03    0.18999E-03   -0.88675E+00  4291   0.650E-01    0.903E-01
RMM:   2    -0.413169775951E+03   -0.42913E-02   -0.10799E-01  4307   0.884E-02    0.645E-01
RMM:   3    -0.413172028112E+03   -0.22522E-02   -0.20980E-02  5138   0.851E-02    0.341E-01
RMM:   4    -0.413188049385E+03   -0.16021E-01   -0.37732E-02  5077   0.167E-01    0.617E-01
RMM:   5    -0.413165740850E+03    0.22309E-01   -0.82119E-03  4673   0.100E-01    0.592E-02
RMM:   6    -0.413165752439E+03   -0.11589E-04   -0.16957E-03  5420   0.411E-02    0.324E-02
RMM:   7    -0.413165764073E+03   -0.11634E-04   -0.32748E-04  5928   0.169E-02    0.190E-02
RMM:   8    -0.413165757443E+03    0.66305E-05   -0.59548E-05  5123   0.890E-03    0.772E-03
RMM:   9    -0.413165753335E+03    0.41072E-05   -0.73189E-06  3283   0.348E-03    0.401E-03
RMM:  10    -0.413165752336E+03    0.99917E-06   -0.16092E-06  2537   0.211E-03
   10 T=    61. E= -.41286647E+03 F= -.41316575E+03 E0= -.41314337E+03  EK= 0.29928E+00 SP= 0.00E+00 SK= 0.00E+00
       N       E                     dE             d eps       ncg     rms          rms(c)
RMM:   1    -0.413165678435E+03    0.74900E-04   -0.88490E+00  4296   0.648E-01    0.883E-01
RMM:   2    -0.413170572218E+03   -0.48938E-02   -0.10868E-01  4219   0.871E-02    0.646E-01
RMM:   3    -0.413167359880E+03    0.32123E-02   -0.17370E-02  4968   0.521E-02    0.134E-01
RMM:   4    -0.413201191036E+03   -0.33831E-01   -0.37212E-02  5131   0.161E-01    0.769E-01
RMM:   5    -0.413166315478E+03    0.34876E-01   -0.16385E-02  4796   0.128E-01    0.523E-02
RMM:   6    -0.413166528818E+03   -0.21334E-03   -0.28715E-03  5733   0.528E-02    0.347E-02
RMM:   7    -0.413166528893E+03   -0.75728E-07   -0.48209E-04  5740   0.201E-02    0.221E-02
RMM:   8    -0.413166521722E+03    0.71710E-05   -0.68760E-05  5188   0.907E-03    0.101E-02
RMM:   9    -0.413166519633E+03    0.20889E-05   -0.13325E-05  3918   0.411E-03    0.715E-03
RMM:  10    -0.413166520544E+03   -0.91055E-06   -0.21248E-06  2580   0.228E-03
   11 T=    61. E= -.41286676E+03 F= -.41316652E+03 E0= -.41314416E+03  EK= 0.29976E+00 SP= 0.00E+00 SK= 0.00E+00
       N       E                     dE             d eps       ncg     rms          rms(c)
RMM:   1    -0.413165843795E+03    0.67584E-03   -0.89160E+00  4298   0.654E-01    0.894E-01
RMM:   2    -0.413170547127E+03   -0.47033E-02   -0.10943E-01  4310   0.880E-02    0.653E-01
RMM:   3    -0.413173447225E+03   -0.29001E-02   -0.22367E-02  5134   0.888E-02    0.357E-01
RMM:   4    -0.413189573779E+03   -0.16127E-01   -0.39983E-02  5073   0.171E-01    0.627E-01
RMM:   5    -0.413166455751E+03    0.23118E-01   -0.84274E-03  4663   0.102E-01    0.586E-02
RMM:   6    -0.413166471836E+03   -0.16085E-04   -0.17144E-03  5415   0.413E-02    0.311E-02
RMM:   7    -0.413166490394E+03   -0.18558E-04   -0.33227E-04  5940   0.168E-02    0.189E-02
RMM:   8    -0.413166487153E+03    0.32416E-05   -0.60543E-05  5136   0.895E-03    0.773E-03
RMM:   9    -0.413166485207E+03    0.19452E-05   -0.73419E-06  3304   0.357E-03    0.394E-03
RMM:  10    -0.413166486277E+03   -0.10698E-05   -0.15777E-06  2537   0.209E-03    0.251E-03
RMM:  11    -0.413166487752E+03   -0.14745E-05   -0.13044E-06  2522   0.178E-03    0.145E-03
RMM:  12    -0.413166488236E+03   -0.48458E-06   -0.70781E-07  2465   0.136E-03
   12 T=    61. E= -.41286646E+03 F= -.41316649E+03 E0= -.41314416E+03  EK= 0.30003E+00 SP= 0.00E+00 SK= 0.00E+00
       N       E                     dE             d eps       ncg     rms          rms(c)
RMM:   1    -0.413166884666E+03   -0.39691E-03   -0.89027E+00  4294   0.663E-01    0.908E-01
RMM:   2    -0.413170735085E+03   -0.38504E-02   -0.10876E-01  4239   0.886E-02    0.648E-01
RMM:   3    -0.413167824888E+03    0.29102E-02   -0.16892E-02  4954   0.513E-02    0.134E-01
RMM:   4    -0.413201726742E+03   -0.33902E-01   -0.37069E-02  5125   0.160E-01    0.769E-01
RMM:   5    -0.413166860774E+03    0.34866E-01   -0.16452E-02  4790   0.128E-01    0.528E-02
RMM:   6    -0.413167077047E+03   -0.21627E-03   -0.29340E-03  5734   0.530E-02    0.363E-02
RMM:   7    -0.413167067933E+03    0.91133E-05   -0.49635E-04  5701   0.207E-02    0.230E-02
RMM:   8    -0.413167057037E+03    0.10896E-04   -0.71667E-05  5192   0.931E-03    0.108E-02
RMM:   9    -0.413167051687E+03    0.53501E-05   -0.13763E-05  3986   0.419E-03    0.770E-03
RMM:  10    -0.413167048405E+03    0.32823E-05   -0.22223E-06  2592   0.235E-03    0.467E-03
RMM:  11    -0.413167046223E+03    0.21821E-05   -0.11671E-06  2512   0.173E-03    0.274E-03
RMM:  12    -0.413167041725E+03    0.44974E-05   -0.19518E-06  2593   0.209E-03    0.118E-03
RMM:  13    -0.413167039330E+03    0.23958E-05   -0.71892E-07  2418   0.143E-03    0.914E-04
RMM:  14    -0.413167039251E+03    0.78464E-07   -0.27682E-07  2002   0.926E-04
   13 T=    61. E= -.41286655E+03 F= -.41316704E+03 E0= -.41314474E+03  EK= 0.30049E+00 SP= 0.00E+00 SK= 0.00E+00
       N       E                     dE             d eps       ncg     rms          rms(c)
RMM:   1    -0.413166964693E+03    0.74636E-04   -0.88521E+00  4295   0.663E-01    0.886E-01
RMM:   2    -0.413171608106E+03   -0.46434E-02   -0.10878E-01  4239   0.882E-02    0.645E-01
RMM:   3    -0.413168181673E+03    0.34264E-02   -0.16976E-02  4875   0.483E-02    0.110E-01
RMM:   4    -0.413195893936E+03   -0.27712E-01   -0.29367E-02  5128   0.143E-01    0.696E-01
RMM:   5    -0.413167501984E+03    0.28392E-01   -0.13570E-02  4794   0.115E-01    0.489E-02
RMM:   6    -0.413167690758E+03   -0.18877E-03   -0.24660E-03  5783   0.478E-02    0.333E-02
RMM:   7    -0.413167687903E+03    0.28552E-05   -0.41254E-04  5630   0.194E-02    0.212E-02
RMM:   8    -0.413167679040E+03    0.88628E-05   -0.63989E-05  5036   0.887E-03    0.103E-02
RMM:   9    -0.413167676074E+03    0.29668E-05   -0.12547E-05  3893   0.401E-03    0.767E-03
RMM:  10    -0.413167675454E+03    0.61940E-06   -0.19497E-06  2561   0.227E-03
   14 T=    61. E= -.41286667E+03 F= -.41316768E+03 E0= -.41314541E+03  EK= 0.30100E+00 SP= 0.00E+00 SK= 0.00E+00
       N       E                     dE             d eps       ncg     rms          rms(c)
RMM:   1    -0.413167117606E+03    0.55847E-03   -0.89383E+00  4305   0.665E-01    0.892E-01
RMM:   2    -0.413172046506E+03   -0.49289E-02   -0.10982E-01  4318   0.882E-02    0.655E-01
RMM:   3    -0.413175081118E+03   -0.30346E-02   -0.22973E-02  5133   0.902E-02    0.366E-01
RMM:   4    -0.413190573833E+03   -0.15493E-01   -0.40430E-02  5067   0.172E-01    0.624E-01
RMM:   5    -0.413167698391E+03    0.22875E-01   -0.83371E-03  4648   0.102E-01    0.583E-02
RMM:   6    -0.413167714003E+03   -0.15611E-04   -0.16938E-03  5407   0.410E-02    0.310E-02
RMM:   7    -0.413167732420E+03   -0.18417E-04   -0.32564E-04  5939   0.166E-02    0.186E-02
RMM:   8    -0.413167730745E+03    0.16750E-05   -0.59087E-05  5122   0.887E-03    0.755E-03
RMM:   9    -0.413167728742E+03    0.20025E-05   -0.70285E-06  3243   0.350E-03    0.387E-03
RMM:  10    -0.413167729708E+03   -0.96557E-06   -0.15584E-06  2524   0.207E-03
   15 T=    61. E= -.41286636E+03 F= -.41316773E+03 E0= -.41314550E+03  EK= 0.30137E+00 SP= 0.00E+00 SK= 0.00E+00
       N       E                     dE             d eps       ncg     rms          rms(c)
RMM:   1    -0.413168586898E+03   -0.85816E-03   -0.89352E+00  4304   0.671E-01    0.910E-01
RMM:   2    -0.413172827228E+03   -0.42403E-02   -0.10909E-01  4249   0.889E-02    0.650E-01
RMM:   3    -0.413169682250E+03    0.31450E-02   -0.17058E-02  4970   0.526E-02    0.141E-01
RMM:   4    -0.413204928437E+03   -0.35246E-01   -0.39062E-02  5128   0.165E-01    0.784E-01
RMM:   5    -0.413168603858E+03    0.36325E-01   -0.17161E-02  4794   0.130E-01    0.535E-02
RMM:   6    -0.413168814328E+03   -0.21047E-03   -0.30154E-03  5737   0.541E-02    0.364E-02
RMM:   7    -0.413168806361E+03    0.79663E-05   -0.50430E-04  5713   0.209E-02    0.231E-02
RMM:   8    -0.413168793658E+03    0.12704E-04   -0.74210E-05  5212   0.959E-03    0.108E-02
RMM:   9    -0.413168787707E+03    0.59510E-05   -0.14146E-05  4000   0.426E-03    0.755E-03
RMM:  10    -0.413168783845E+03    0.38616E-05   -0.22786E-06  2596   0.237E-03    0.459E-03
RMM:  11    -0.413168781303E+03    0.25420E-05   -0.10977E-06  2501   0.171E-03    0.272E-03
RMM:  12    -0.413168775888E+03    0.54154E-05   -0.19081E-06  2584   0.208E-03    0.118E-03
RMM:  13    -0.413168772507E+03    0.33808E-05   -0.74134E-07  2436   0.144E-03    0.975E-04
RMM:  14    -0.413168772594E+03   -0.87181E-07   -0.27776E-07  2007   0.927E-04
   16 T=    61. E= -.41286670E+03 F= -.41316877E+03 E0= -.41314657E+03  EK= 0.30207E+00 SP= 0.00E+00 SK= 0.00E+00
       N       E                     dE             d eps       ncg     rms          rms(c)
RMM:   1    -0.413169342389E+03   -0.56988E-03   -0.88828E+00  4297   0.691E-01    0.891E-01
RMM:   2    -0.413173361848E+03   -0.40195E-02   -0.10880E-01  4258   0.886E-02    0.645E-01
RMM:   3    -0.413169798459E+03    0.35634E-02   -0.16827E-02  4890   0.497E-02    0.115E-01
RMM:   4    -0.413199029737E+03   -0.29231E-01   -0.31191E-02  5125   0.147E-01    0.715E-01
RMM:   5    -0.413169077905E+03    0.29952E-01   -0.14354E-02  4792   0.118E-01    0.497E-02
RMM:   6    -0.413169267492E+03   -0.18959E-03   -0.26055E-03  5779   0.490E-02    0.337E-02
RMM:   7    -0.413169259357E+03    0.81353E-05   -0.42395E-04  5650   0.196E-02    0.215E-02
RMM:   8    -0.413169246776E+03    0.12580E-04   -0.68294E-05  5052   0.905E-03    0.106E-02
RMM:   9    -0.413169241971E+03    0.48051E-05   -0.13109E-05  3952   0.415E-03    0.787E-03
RMM:  10    -0.413169239409E+03    0.25624E-05   -0.20472E-06  2572   0.231E-03    0.476E-03
RMM:  11    -0.413169237497E+03    0.19124E-05   -0.12246E-06  2505   0.181E-03    0.267E-03
RMM:  12    -0.413169234084E+03    0.34128E-05   -0.18116E-06  2571   0.204E-03    0.114E-03
RMM:  13    -0.413169232109E+03    0.19746E-05   -0.57417E-07  2381   0.134E-03    0.807E-04
RMM:  14    -0.413169232131E+03   -0.21508E-07   -0.24748E-07  1938   0.874E-04
   17 T=    62. E= -.41286662E+03 F= -.41316923E+03 E0= -.41314707E+03  EK= 0.30262E+00 SP= 0.00E+00 SK= 0.00E+00
       N       E                     dE             d eps       ncg     rms          rms(c)
RMM:   1    -0.413168983683E+03    0.24843E-03   -0.89625E+00  4294   0.677E-01    0.891E-01
RMM:   2    -0.413173954551E+03   -0.49709E-02   -0.11064E-01  4261   0.889E-02    0.656E-01
RMM:   3    -0.413170320693E+03    0.36339E-02   -0.18008E-02  4886   0.507E-02    0.116E-01
RMM:   4    -0.413200015248E+03   -0.29695E-01   -0.31897E-02  5118   0.149E-01    0.721E-01
RMM:   5    -0.413169536595E+03    0.30479E-01   -0.14640E-02  4789   0.119E-01    0.493E-02
RMM:   6    -0.413169721439E+03   -0.18484E-03   -0.25525E-03  5762   0.491E-02    0.331E-02
RMM:   7    -0.413169721038E+03    0.40077E-06   -0.42385E-04  5641   0.195E-02    0.211E-02
RMM:   8    -0.413169711659E+03    0.93787E-05   -0.66256E-05  5075   0.902E-03    0.102E-02
RMM:   9    -0.413169708966E+03    0.26932E-05   -0.13060E-05  3921   0.412E-03    0.743E-03
RMM:  10    -0.413169709186E+03   -0.21938E-06   -0.19756E-06  2566   0.225E-03
   18 T=    62. E= -.41286647E+03 F= -.41316971E+03 E0= -.41314759E+03  EK= 0.30324E+00 SP= 0.00E+00 SK= 0.00E+00
       N       E                     dE             d eps       ncg     rms          rms(c)
RMM:   1    -0.413171869696E+03   -0.21607E-02   -0.89879E+00  4302   0.708E-01    0.910E-01
RMM:   2    -0.413174833412E+03   -0.29637E-02   -0.11018E-01  4316   0.916E-02    0.654E-01
RMM:   3    -0.413177477504E+03   -0.26441E-02   -0.21712E-02  5129   0.869E-02    0.349E-01
RMM:   4    -0.413193860228E+03   -0.16383E-01   -0.39412E-02  5068   0.170E-01    0.625E-01
RMM:   5    -0.413170870161E+03    0.22990E-01   -0.85184E-03  4660   0.101E-01    0.586E-02
RMM:   6    -0.413170890167E+03   -0.20006E-04   -0.17550E-03  5426   0.414E-02    0.324E-02
RMM:   7    -0.413170895859E+03   -0.56917E-05   -0.33353E-04  5912   0.170E-02    0.193E-02
RMM:   8    -0.413170887274E+03    0.85847E-05   -0.60049E-05  5110   0.901E-03    0.788E-03
RMM:   9    -0.413170881327E+03    0.59469E-05   -0.74626E-06  3298   0.356E-03    0.406E-03
RMM:  10    -0.413170878994E+03    0.23333E-05   -0.16045E-06  2523   0.211E-03    0.256E-03
RMM:  11    -0.413170875304E+03    0.36903E-05   -0.11451E-06  2501   0.172E-03    0.141E-03
RMM:  12    -0.413170871853E+03    0.34507E-05   -0.66253E-07  2451   0.135E-03    0.552E-04
RMM:  13    -0.413170869672E+03    0.21809E-05   -0.33751E-07  2091   0.981E-04    0.321E-04
RMM:  14    -0.413170867762E+03    0.19099E-05   -0.18929E-07  1570   0.771E-04    0.218E-04
RMM:  15    -0.413170864178E+03    0.35845E-05   -0.17635E-07  1447   0.737E-04    0.162E-04
RMM:  16    -0.413170861378E+03    0.28001E-05   -0.12038E-07  1235   0.662E-04    0.140E-04
RMM:  17    -0.413170858281E+03    0.30972E-05   -0.11040E-07  1258   0.653E-04    0.737E-05
RMM:  18    -0.413170856391E+03    0.18897E-05   -0.64845E-08  1026   0.589E-04    0.436E-05
RMM:  19    -0.413170855396E+03    0.99543E-06   -0.35732E-08   841   0.550E-04
   19 T=    62. E= -.41286670E+03 F= -.41317086E+03 E0= -.41314878E+03  EK= 0.30415E+00 SP= 0.00E+00 SK= 0.00E+00
       N       E                     dE             d eps       ncg     rms          rms(c)
RMM:   1    -0.413173491590E+03   -0.26352E-02   -0.89542E+00  4298   0.714E-01    0.900E-01
RMM:   2    -0.413175050377E+03   -0.15588E-02   -0.10986E-01  4258   0.907E-02    0.648E-01
RMM:   3    -0.413172172187E+03    0.28782E-02   -0.17057E-02  4944   0.534E-02    0.140E-01
RMM:   4    -0.413207272491E+03   -0.35100E-01   -0.39030E-02  5117   0.164E-01    0.782E-01
RMM:   5    -0.413171113687E+03    0.36159E-01   -0.17109E-02  4777   0.130E-01    0.536E-02
RMM:   6    -0.413171325120E+03   -0.21143E-03   -0.30917E-03  5736   0.539E-02    0.363E-02
RMM:   7    -0.413171316367E+03    0.87532E-05   -0.50934E-04  5663   0.207E-02    0.232E-02
RMM:   8    -0.413171304583E+03    0.11784E-04   -0.75214E-05  5197   0.955E-03    0.110E-02
RMM:   9    -0.413171298475E+03    0.61084E-05   -0.14533E-05  4068   0.432E-03    0.773E-03
RMM:  10    -0.413171294969E+03    0.35059E-05   -0.22195E-06  2578   0.234E-03    0.475E-03
RMM:  11    -0.413171292786E+03    0.21831E-05   -0.10955E-06  2502   0.170E-03    0.284E-03
RMM:  12    -0.413171288281E+03    0.45050E-05   -0.17799E-06  2559   0.206E-03    0.119E-03
RMM:  13    -0.413171285663E+03    0.26180E-05   -0.70683E-07  2412   0.144E-03    0.971E-04
RMM:  14    -0.413171285701E+03   -0.38533E-07   -0.28064E-07  2041   0.935E-04
   20 T=    62. E= -.41286640E+03 F= -.41317129E+03 E0= -.41314925E+03  EK= 0.30489E+00 SP= 0.00E+00 SK= 0.00E+00
       N       E                     dE             d eps       ncg     rms          rms(c)
RMM:   1    -0.413171722445E+03   -0.43678E-03   -0.89930E+00  4292   0.690E-01    0.891E-01
RMM:   2    -0.413176622204E+03   -0.48998E-02   -0.11137E-01  4268   0.910E-02    0.656E-01
RMM:   3    -0.413172908764E+03    0.37134E-02   -0.17907E-02  4859   0.499E-02    0.108E-01
RMM:   4    -0.413200011256E+03   -0.27102E-01   -0.28846E-02  5120   0.141E-01    0.689E-01
RMM:   5    -0.413172235143E+03    0.27776E-01   -0.13412E-02  4788   0.114E-01    0.483E-02
RMM:   6    -0.413172407409E+03   -0.17227E-03   -0.24152E-03  5795   0.471E-02    0.315E-02
RMM:   7    -0.413172413607E+03   -0.61980E-05   -0.36536E-04  5641   0.185E-02    0.197E-02
RMM:   8    -0.413172405429E+03    0.81779E-05   -0.68608E-05  5021   0.888E-03    0.105E-02
RMM:   9    -0.413172401613E+03    0.38154E-05   -0.12985E-05  3983   0.417E-03    0.777E-03
RMM:  10    -0.413172400905E+03    0.70869E-06   -0.18928E-06  2556   0.225E-03
   21 T=    62. E= -.41286650E+03 F= -.41317240E+03 E0= -.41315041E+03  EK= 0.30590E+00 SP= 0.00E+00 SK= 0.00E+00
       N       E                     dE             d eps       ncg     rms          rms(c)
RMM:   1    -0.413173299578E+03   -0.89796E-03   -0.90312E+00  4299   0.701E-01    0.909E-01
RMM:   2    -0.413177699139E+03   -0.43996E-02   -0.11129E-01  4326   0.904E-02    0.658E-01
RMM:   3    -0.413179786687E+03   -0.20875E-02   -0.21700E-02  5120   0.854E-02    0.340E-01
RMM:   4    -0.413198370938E+03   -0.18584E-01   -0.41189E-02  5075   0.173E-01    0.649E-01
RMM:   5    -0.413173482982E+03    0.24888E-01   -0.93559E-03  4668   0.106E-01    0.581E-02
RMM:   6    -0.413173525869E+03   -0.42886E-04   -0.19276E-03  5469   0.433E-02    0.324E-02
RMM:   7    -0.413173533303E+03   -0.74344E-05   -0.34749E-04  5886   0.171E-02    0.196E-02
RMM:   8    -0.413173526297E+03    0.70059E-05   -0.61730E-05  5122   0.902E-03    0.804E-03
RMM:   9    -0.413173520550E+03    0.57470E-05   -0.78963E-06  3339   0.358E-03    0.421E-03
RMM:  10    -0.413173518239E+03    0.23107E-05   -0.17510E-06  2552   0.211E-03    0.270E-03
RMM:  11    -0.413173514849E+03    0.33900E-05   -0.10686E-06  2488   0.168E-03    0.144E-03
RMM:  12    -0.413173511265E+03    0.35841E-05   -0.67207E-07  2445   0.135E-03    0.528E-04
RMM:  13    -0.413173509191E+03    0.20740E-05   -0.33214E-07  2092   0.978E-04    0.314E-04
RMM:  14    -0.413173507412E+03    0.17792E-05   -0.18314E-07  1591   0.763E-04    0.213E-04
RMM:  15    -0.413173504143E+03    0.32696E-05   -0.15009E-07  1374   0.711E-04    0.145E-04
RMM:  16    -0.413173501308E+03    0.28345E-05   -0.10947E-07  1240   0.661E-04    0.148E-04
RMM:  17    -0.413173498575E+03    0.27330E-05   -0.86067E-08  1167   0.633E-04    0.772E-05
RMM:  18    -0.413173496240E+03    0.23348E-05   -0.61569E-08  1002   0.595E-04    0.382E-05
RMM:  19    -0.413173495159E+03    0.10816E-05   -0.31495E-08   834   0.559E-04    0.266E-05
RMM:  20    -0.413173494700E+03    0.45852E-06   -0.16061E-08   721   0.541E-04
   22 T=    62. E= -.41286658E+03 F= -.41317349E+03 E0= -.41315155E+03  EK= 0.30691E+00 SP= 0.00E+00 SK= 0.00E+00
       N       E                     dE             d eps       ncg     rms          rms(c)
RMM:   1    -0.413174019298E+03   -0.52414E-03   -0.90062E+00  4293   0.706E-01    0.909E-01
RMM:   2    -0.413178310320E+03   -0.42910E-02   -0.11075E-01  4280   0.913E-02    0.652E-01
RMM:   3    -0.413174935927E+03    0.33744E-02   -0.17045E-02  4920   0.523E-02    0.133E-01
RMM:   4    -0.413209166026E+03   -0.34230E-01   -0.37477E-02  5120   0.161E-01    0.772E-01
RMM:   5    -0.413174005196E+03    0.35161E-01   -0.16884E-02  4782   0.129E-01    0.527E-02
RMM:   6    -0.413174202181E+03   -0.19699E-03   -0.29610E-03  5742   0.532E-02    0.362E-02
RMM:   7    -0.413174194036E+03    0.81456E-05   -0.48693E-04  5645   0.209E-02    0.229E-02
RMM:   8    -0.413174181919E+03    0.12117E-04   -0.77165E-05  5180   0.971E-03    0.112E-02
RMM:   9    -0.413174175121E+03    0.67979E-05   -0.14603E-05  4094   0.438E-03    0.791E-03
RMM:  10    -0.413174170546E+03    0.45746E-05   -0.22600E-06  2596   0.235E-03    0.485E-03
RMM:  11    -0.413174167357E+03    0.31890E-05   -0.11956E-06  2512   0.175E-03    0.280E-03
RMM:  12    -0.413174161299E+03    0.60579E-05   -0.18298E-06  2566   0.208E-03    0.118E-03
RMM:  13    -0.413174157794E+03    0.35054E-05   -0.64616E-07  2404   0.140E-03    0.954E-04
RMM:  14    -0.413174158054E+03   -0.26046E-06   -0.26958E-07  2011   0.910E-04
   23 T=    63. E= -.41286635E+03 F= -.41317416E+03 E0= -.41315226E+03  EK= 0.30781E+00 SP= 0.00E+00 SK= 0.00E+00
       N       E                     dE             d eps       ncg     rms          rms(c)
RMM:   1    -0.413175083697E+03   -0.92590E-03   -0.90314E+00  4296   0.709E-01    0.893E-01
RMM:   2    -0.413180322325E+03   -0.52386E-02   -0.11183E-01  4282   0.929E-02    0.656E-01
RMM:   3    -0.413176138013E+03    0.41843E-02   -0.17696E-02  4803   0.508E-02    0.994E-02
RMM:   4    -0.413200043606E+03   -0.23906E-01   -0.24997E-02  5123   0.132E-01    0.648E-01
RMM:   5    -0.413175605501E+03    0.24438E-01   -0.11943E-02  4799   0.108E-01    0.469E-02
RMM:   6    -0.413175741996E+03   -0.13649E-03   -0.21109E-03  5805   0.441E-02    0.295E-02
RMM:   7    -0.413175740092E+03    0.19043E-05   -0.27941E-04  5644   0.169E-02    0.163E-02
RMM:   8    -0.413175734699E+03    0.53924E-05   -0.58570E-05  4997   0.801E-03    0.104E-02
RMM:   9    -0.413175729777E+03    0.49220E-05   -0.11419E-05  3886   0.394E-03    0.766E-03
RMM:  10    -0.413175728103E+03    0.16742E-05   -0.18316E-06  2556   0.224E-03    0.463E-03
RMM:  11    -0.413175726490E+03    0.16132E-05   -0.16169E-06  2535   0.201E-03    0.235E-03
RMM:  12    -0.413175724108E+03    0.23816E-05   -0.13663E-06  2501   0.184E-03    0.925E-04
RMM:  13    -0.413175723137E+03    0.97079E-06   -0.45546E-07  2271   0.119E-03
   24 T=    63. E= -.41286667E+03 F= -.41317572E+03 E0= -.41315388E+03  EK= 0.30905E+00 SP= 0.00E+00 SK= 0.00E+00
       N       E                     dE             d eps       ncg     rms          rms(c)
RMM:   1    -0.413176421315E+03   -0.69721E-03   -0.91022E+00  4297   0.716E-01    0.908E-01
RMM:   2    -0.413181181259E+03   -0.47599E-02   -0.11265E-01  4284   0.947E-02    0.662E-01
RMM:   3    -0.413177066045E+03    0.41152E-02   -0.17629E-02  4756   0.496E-02    0.924E-02
RMM:   4    -0.413197598466E+03   -0.20532E-01   -0.21186E-02  5129   0.121E-01    0.601E-01
RMM:   5    -0.413176641443E+03    0.20957E-01   -0.10276E-02  4800   0.997E-02    0.458E-02
RMM:   6    -0.413176757779E+03   -0.11634E-03   -0.18377E-03  5820   0.407E-02    0.282E-02
RMM:   7    -0.413176754842E+03    0.29370E-05   -0.21899E-04  5591   0.153E-02    0.141E-02
RMM:   8    -0.413176750449E+03    0.43930E-05   -0.42581E-05  4913   0.681E-03    0.967E-03
RMM:   9    -0.413176746036E+03    0.44130E-05   -0.90337E-06  3582   0.347E-03    0.727E-03
RMM:  10    -0.413176743712E+03    0.23234E-05   -0.15825E-06  2528   0.218E-03    0.440E-03
RMM:  11    -0.413176740647E+03    0.30657E-05   -0.18183E-06  2552   0.211E-03    0.218E-03
RMM:  12    -0.413176736917E+03    0.37301E-05   -0.11943E-06  2487   0.176E-03    0.906E-04
RMM:  13    -0.413176735882E+03    0.10344E-05   -0.40162E-07  2224   0.112E-03    0.628E-04
RMM:  14    -0.413176735379E+03    0.50328E-06   -0.18858E-07  1708   0.788E-04
   25 T=    63. E= -.41286650E+03 F= -.41317674E+03 E0= -.41315494E+03  EK= 0.31023E+00 SP= 0.00E+00 SK= 0.00E+00
       N       E                     dE             d eps       ncg     rms          rms(c)
RMM:   1    -0.413178142860E+03   -0.14070E-02   -0.91030E+00  4292   0.723E-01    0.918E-01
RMM:   2    -0.413182067236E+03   -0.39244E-02   -0.11247E-01  4284   0.960E-02    0.657E-01
RMM:   3    -0.413178482387E+03    0.35848E-02   -0.17023E-02  4821   0.524E-02    0.112E-01
RMM:   4    -0.413206203071E+03   -0.27721E-01   -0.29049E-02  5129   0.142E-01    0.695E-01
RMM:   5    -0.413177887561E+03    0.28316E-01   -0.13872E-02  4796   0.116E-01    0.499E-02
RMM:   6    -0.413178050717E+03   -0.16316E-03   -0.24903E-03  5803   0.479E-02    0.347E-02
RMM:   7    -0.413178041382E+03    0.93345E-05   -0.40530E-04  5597   0.199E-02    0.212E-02
RMM:   8    -0.413178028547E+03    0.12835E-04   -0.68431E-05  5079   0.933E-03    0.110E-02
RMM:   9    -0.413178021390E+03    0.71569E-05   -0.13146E-05  3938   0.421E-03    0.796E-03
RMM:  10    -0.413178015792E+03    0.55978E-05   -0.21114E-06  2578   0.241E-03    0.478E-03
RMM:  11    -0.413178010917E+03    0.48757E-05   -0.13654E-06  2529   0.188E-03    0.256E-03
RMM:  12    -0.413178003521E+03    0.73956E-05   -0.16360E-06  2538   0.202E-03    0.105E-03
RMM:  13    -0.413177999723E+03    0.37976E-05   -0.55447E-07  2358   0.132E-03    0.740E-04
RMM:  14    -0.413177999647E+03    0.76383E-07   -0.25716E-07  1940   0.879E-04
   26 T=    63. E= -.41286639E+03 F= -.41317800E+03 E0= -.41315625E+03  EK= 0.31161E+00 SP= 0.00E+00 SK= 0.00E+00
       N       E                     dE             d eps       ncg     rms          rms(c)
RMM:   1    -0.413179507486E+03   -0.15078E-02   -0.90942E+00  4291   0.734E-01    0.898E-01
RMM:   2    -0.413183999206E+03   -0.44917E-02   -0.11354E-01  4278   0.984E-02    0.658E-01
RMM:   3    -0.413180120766E+03    0.38784E-02   -0.17451E-02  4693   0.514E-02    0.877E-02
RMM:   4    -0.413198158127E+03   -0.18037E-01   -0.18469E-02  5134   0.113E-01    0.564E-01
RMM:   5    -0.413179776715E+03    0.18381E-01   -0.91261E-03  4804   0.932E-02    0.449E-02
RMM:   6    -0.413179867812E+03   -0.91097E-04   -0.16210E-03  5824   0.376E-02    0.274E-02
RMM:   7    -0.413179866122E+03    0.16899E-05   -0.18722E-04  5489   0.144E-02    0.128E-02
RMM:   8    -0.413179861094E+03    0.50284E-05   -0.28819E-05  4605   0.570E-03    0.854E-03
RMM:   9    -0.413179857802E+03    0.32912E-05   -0.62520E-06  3167   0.295E-03    0.596E-03
RMM:  10    -0.413179856437E+03    0.13653E-05   -0.14419E-06  2533   0.200E-03    0.395E-03
RMM:  11    -0.413179852625E+03    0.38121E-05   -0.20131E-06  2567   0.224E-03    0.197E-03
RMM:  12    -0.413179849264E+03    0.33611E-05   -0.10483E-06  2462   0.169E-03    0.118E-03
RMM:  13    -0.413179848566E+03    0.69831E-06   -0.33506E-07  2233   0.106E-03
   27 T=    64. E= -.41286666E+03 F= -.41317985E+03 E0= -.41315815E+03  EK= 0.31319E+00 SP= 0.00E+00 SK= 0.00E+00
       N       E                     dE             d eps       ncg     rms          rms(c)
RMM:   1    -0.413180601540E+03   -0.75228E-03   -0.91978E+00  4292   0.735E-01    0.909E-01
RMM:   2    -0.413185242869E+03   -0.46413E-02   -0.11472E-01  4276   0.974E-02    0.667E-01
RMM:   3    -0.413181121854E+03    0.41210E-02   -0.18188E-02  4613   0.503E-02    0.774E-02
RMM:   4    -0.413193807592E+03   -0.12686E-01   -0.12877E-02  5139   0.951E-02    0.475E-01
RMM:   5    -0.413180886676E+03    0.12921E-01   -0.64676E-03  4823   0.780E-02    0.428E-02
RMM:   6    -0.413180943679E+03   -0.57003E-04   -0.12058E-03  5855   0.317E-02    0.249E-02
RMM:   7    -0.413180943476E+03    0.20296E-06   -0.13251E-04  5481   0.124E-02    0.119E-02
RMM:   8    -0.413180937056E+03    0.64198E-05   -0.22310E-05  4441   0.507E-03    0.779E-03
RMM:   9    -0.413180936417E+03    0.63952E-06   -0.54727E-06  3084   0.288E-03
   28 T=    64. E= -.41286633E+03 F= -.41318094E+03 E0= -.41315929E+03  EK= 0.31461E+00 SP= 0.00E+00 SK= 0.00E+00
       N       E                     dE             d eps       ncg     rms          rms(c)
RMM:   1    -0.413183699313E+03   -0.27623E-02   -0.92186E+00  4296   0.762E-01    0.927E-01
RMM:   2    -0.413187187522E+03   -0.34882E-02   -0.11468E-01  4321   0.102E-01    0.664E-01
RMM:   3    -0.413188157320E+03   -0.96980E-03   -0.20923E-02  5095   0.839E-02    0.311E-01
RMM:   4    -0.413211190632E+03   -0.23033E-01   -0.42275E-02  5069   0.175E-01    0.691E-01
RMM:   5    -0.413182924958E+03    0.28266E-01   -0.11027E-02  4700   0.112E-01    0.579E-02
RMM:   6    -0.413183004615E+03   -0.79657E-04   -0.22703E-03  5667   0.457E-02    0.347E-02
RMM:   7    -0.413183005118E+03   -0.50305E-06   -0.39613E-04  5765   0.186E-02    0.218E-02
RMM:   8    -0.413182996392E+03    0.87264E-05   -0.73289E-05  5099   0.978E-03    0.936E-03
RMM:   9    -0.413182987899E+03    0.84924E-05   -0.10059E-05  3635   0.403E-03    0.485E-03
RMM:  10    -0.413182982869E+03    0.50303E-05   -0.20881E-06  2578   0.227E-03    0.308E-03
RMM:  11    -0.413182976872E+03    0.59968E-05   -0.11388E-06  2492   0.176E-03    0.158E-03
RMM:  12    -0.413182969399E+03    0.74732E-05   -0.83457E-07  2458   0.148E-03    0.552E-04
RMM:  13    -0.413182965882E+03    0.35166E-05   -0.41965E-07  2227   0.108E-03    0.366E-04
RMM:  14    -0.413182963709E+03    0.21737E-05   -0.22494E-07  1740   0.821E-04    0.280E-04
RMM:  15    -0.413182956947E+03    0.67614E-05   -0.19965E-07  1667   0.793E-04    0.278E-04
RMM:  16    -0.413182953420E+03    0.35268E-05   -0.10320E-07  1126   0.642E-04    0.202E-04
RMM:  17    -0.413182949285E+03    0.41351E-05   -0.89178E-08  1140   0.640E-04    0.120E-04
RMM:  18    -0.413182947194E+03    0.20915E-05   -0.61638E-08  1066   0.609E-04    0.495E-05
RMM:  19    -0.413182944559E+03    0.26343E-05   -0.53306E-08  1094   0.602E-04    0.560E-05
RMM:  20    -0.413182944337E+03    0.22228E-06   -0.20181E-08   751   0.539E-04
   29 T=    64. E= -.41286652E+03 F= -.41318294E+03 E0= -.41316135E+03  EK= 0.31642E+00 SP= 0.00E+00 SK= 0.00E+00
       N       E                     dE             d eps       ncg     rms          rms(c)
RMM:   1    -0.413187807407E+03   -0.48628E-02   -0.92185E+00  4289   0.801E-01    0.907E-01
RMM:   2    -0.413189397054E+03   -0.15896E-02   -0.11900E-01  4272   0.115E-01    0.661E-01
RMM:   3    -0.413185003561E+03    0.43935E-02   -0.17105E-02  4584   0.557E-02    0.852E-02
RMM:   4    -0.413198952601E+03   -0.13949E-01   -0.14143E-02  5142   0.995E-02    0.497E-01
RMM:   5    -0.413184794413E+03    0.14158E-01   -0.71641E-03  4823   0.817E-02    0.437E-02
RMM:   6    -0.413184856267E+03   -0.61855E-04   -0.12984E-03  5841   0.332E-02    0.270E-02
RMM:   7    -0.413184860643E+03   -0.43753E-05   -0.21800E-04  5485   0.153E-02    0.163E-02
RMM:   8    -0.413184846435E+03    0.14208E-04   -0.34580E-05  4754   0.665E-03    0.845E-03
RMM:   9    -0.413184844829E+03    0.16057E-05   -0.69849E-06  3249   0.323E-03    0.634E-03
RMM:  10    -0.413184841636E+03    0.31929E-05   -0.15235E-06  2506   0.213E-03    0.348E-03
RMM:  11    -0.413184838747E+03    0.28890E-05   -0.10591E-06  2495   0.170E-03    0.183E-03
RMM:  12    -0.413184835277E+03    0.34708E-05   -0.86647E-07  2459   0.148E-03    0.990E-04
RMM:  13    -0.413184833738E+03    0.15388E-05   -0.33507E-07  2150   0.102E-03    0.452E-04
RMM:  14    -0.413184832641E+03    0.10968E-05   -0.16496E-07  1544   0.744E-04    0.315E-04
RMM:  15    -0.413184830051E+03    0.25904E-05   -0.12133E-07  1464   0.701E-04    0.138E-04
RMM:  16    -0.413184827623E+03    0.24273E-05   -0.74411E-08  1131   0.632E-04    0.142E-04
RMM:  17    -0.413184825961E+03    0.16620E-05   -0.41888E-08   881   0.577E-04    0.917E-05
RMM:  18    -0.413184822501E+03    0.34597E-05   -0.53563E-08   982   0.600E-04    0.387E-05
RMM:  19    -0.413184821804E+03    0.69714E-06   -0.19800E-08   743   0.552E-04
   30 T=    65. E= -.41286653E+03 F= -.41318482E+03 E0= -.41316327E+03  EK= 0.31830E+00 SP= 0.00E+00 SK= 0.00E+00
       N       E                     dE             d eps       ncg     rms          rms(c)
RMM:   1    -0.413186092147E+03   -0.12696E-02   -0.93103E+00  4294   0.760E-01    0.912E-01
RMM:   2    -0.413191465119E+03   -0.53730E-02   -0.11738E-01  4279   0.112E-01    0.672E-01
RMM:   3    -0.413186688368E+03    0.47768E-02   -0.18798E-02  4569   0.604E-02    0.794E-02
RMM:   4    -0.413200511966E+03   -0.13824E-01   -0.13968E-02  5137   0.993E-02    0.496E-01
RMM:   5    -0.413186428559E+03    0.14083E-01   -0.70791E-03  4815   0.813E-02    0.434E-02
RMM:   6    -0.413186493825E+03   -0.65266E-04   -0.12972E-03  5842   0.331E-02    0.268E-02
RMM:   7    -0.413186501872E+03   -0.80466E-05   -0.21298E-04  5474   0.151E-02    0.160E-02
RMM:   8    -0.413186489127E+03    0.12744E-04   -0.33900E-05  4748   0.658E-03    0.839E-03
RMM:   9    -0.413186488384E+03    0.74373E-06   -0.69186E-06  3241   0.322E-03
   31 T=    65. E= -.41286628E+03 F= -.41318649E+03 E0= -.41316499E+03  EK= 0.32021E+00 SP= 0.00E+00 SK= 0.00E+00
       N       E                     dE             d eps       ncg     rms          rms(c)
RMM:   1    -0.413192212642E+03   -0.57235E-02   -0.93770E+00  4294   0.817E-01    0.933E-01
RMM:   2    -0.413193687730E+03   -0.14751E-02   -0.12134E-01  4316   0.120E-01    0.671E-01
RMM:   3    -0.413192509326E+03    0.11784E-02   -0.19817E-02  5006   0.851E-02    0.258E-01
RMM:   4    -0.413225630892E+03   -0.33122E-01   -0.47154E-02  5089   0.183E-01    0.785E-01
RMM:   5    -0.413188937737E+03    0.36693E-01   -0.15704E-02  4750   0.128E-01    0.580E-02
RMM:   6    -0.413189090974E+03   -0.15324E-03   -0.31018E-03  5765   0.524E-02    0.367E-02
RMM:   7    -0.413189090757E+03    0.21705E-06   -0.48364E-04  5720   0.203E-02    0.238E-02
RMM:   8    -0.413189081823E+03    0.89344E-05   -0.89467E-05  5175   0.105E-02    0.112E-02
RMM:   9    -0.413189072123E+03    0.96996E-05   -0.13435E-05  3970   0.457E-03    0.596E-03
RMM:  10    -0.413189066540E+03    0.55837E-05   -0.29234E-06  2677   0.251E-03    0.382E-03
RMM:  11    -0.413189061746E+03    0.47937E-05   -0.11597E-06  2494   0.180E-03    0.207E-03
RMM:  12    -0.413189053713E+03    0.80333E-05   -0.11315E-06  2484   0.173E-03    0.758E-04
RMM:  13    -0.413189049567E+03    0.41456E-05   -0.55435E-07  2352   0.125E-03    0.512E-04
RMM:  14    -0.413189048147E+03    0.14203E-05   -0.27555E-07  1967   0.895E-04    0.386E-04
RMM:  15    -0.413189045584E+03    0.25632E-05   -0.14922E-07  1454   0.722E-04    0.195E-04
RMM:  16    -0.413189039620E+03    0.59633E-05   -0.14289E-07  1534   0.727E-04    0.264E-04
RMM:  17    -0.413189036412E+03    0.32087E-05   -0.75712E-08  1055   0.615E-04    0.201E-04
RMM:  18    -0.413189031819E+03    0.45930E-05   -0.77318E-08  1187   0.627E-04    0.112E-04
RMM:  19    -0.413189030105E+03    0.17133E-05   -0.45062E-08   956   0.572E-04    0.341E-05
RMM:  20    -0.413189029095E+03    0.10102E-05   -0.28724E-08   852   0.556E-04    0.448E-05
RMM:  21    -0.413189028928E+03    0.16758E-06   -0.14051E-08   714   0.529E-04
   32 T=    66. E= -.41286654E+03 F= -.41318903E+03 E0= -.41316758E+03  EK= 0.32249E+00 SP= 0.00E+00 SK= 0.00E+00
       N       E                     dE             d eps       ncg     rms          rms(c)
RMM:   1    -0.413193540195E+03   -0.45111E-02   -0.93519E+00  4297   0.829E-01    0.920E-01
RMM:   2    -0.413195392949E+03   -0.18528E-02   -0.12199E-01  4277   0.121E-01    0.667E-01
RMM:   3    -0.413191005373E+03    0.43876E-02   -0.17435E-02  4360   0.640E-02    0.740E-02
RMM:   4    -0.413194254274E+03   -0.32489E-02   -0.35313E-03  5152   0.500E-02    0.243E-01
RMM:   5    -0.413190984090E+03    0.32702E-02   -0.17386E-03  4830   0.406E-02    0.416E-02
RMM:   6    -0.413191017505E+03   -0.33415E-04   -0.60880E-04  5598   0.237E-02    0.310E-02
RMM:   7    -0.413190982079E+03    0.35426E-04   -0.24054E-04  5099   0.161E-02    0.176E-02
RMM:   8    -0.413190973415E+03    0.86640E-05   -0.25516E-05  4543   0.573E-03    0.679E-03
RMM:   9    -0.413190971582E+03    0.18330E-05   -0.27375E-06  2600   0.226E-03    0.421E-03
RMM:  10    -0.413190967362E+03    0.42197E-05   -0.10079E-06  2483   0.165E-03    0.229E-03
RMM:  11    -0.413190963262E+03    0.41007E-05   -0.69168E-07  2395   0.129E-03    0.948E-04
RMM:  12    -0.413190959630E+03    0.36315E-05   -0.35366E-07  2077   0.977E-04    0.407E-04
RMM:  13    -0.413190956587E+03    0.30427E-05   -0.19790E-07  1607   0.780E-04    0.248E-04
RMM:  14    -0.413190953669E+03    0.29185E-05   -0.10048E-07  1106   0.657E-04    0.170E-04
RMM:  15    -0.413190949484E+03    0.41852E-05   -0.84228E-08  1108   0.647E-04    0.786E-05
RMM:  16    -0.413190946759E+03    0.27246E-05   -0.58426E-08  1031   0.615E-04    0.815E-05
RMM:  17    -0.413190943826E+03    0.29334E-05   -0.47759E-08  1015   0.596E-04    0.429E-05
RMM:  18    -0.413190941793E+03    0.20327E-05   -0.32979E-08   903   0.564E-04    0.319E-05
RMM:  19    -0.413190941275E+03    0.51802E-06   -0.13372E-08   656   0.522E-04
   33 T=    66. E= -.41286630E+03 F= -.41319094E+03 E0= -.41316954E+03  EK= 0.32464E+00 SP= 0.00E+00 SK= 0.00E+00
       N       E                     dE             d eps       ncg     rms          rms(c)
RMM:   1    -0.413193507719E+03   -0.25659E-02   -0.94461E+00  4301   0.809E-01    0.917E-01
RMM:   2    -0.413197960461E+03   -0.44527E-02   -0.12150E-01  4273   0.123E-01    0.678E-01
RMM:   3    -0.413193357759E+03    0.46027E-02   -0.19013E-02  4332   0.698E-02    0.618E-02
RMM:   4    -0.413196203545E+03   -0.28458E-02   -0.30366E-03  5151   0.468E-02    0.229E-01
RMM:   5    -0.413193312453E+03    0.28911E-02   -0.15411E-03  4834   0.382E-02    0.407E-02
RMM:   6    -0.413193349094E+03   -0.36641E-04   -0.57480E-04  5581   0.228E-02    0.297E-02
RMM:   7    -0.413193322066E+03    0.27028E-04   -0.22845E-04  5089   0.157E-02    0.186E-02
RMM:   8    -0.413193312961E+03    0.91056E-05   -0.24226E-05  4311   0.549E-03    0.665E-03
RMM:   9    -0.413193312210E+03    0.75049E-06   -0.25811E-06  2569   0.222E-03
   34 T=    67. E= -.41286633E+03 F= -.41319331E+03 E0= -.41317196E+03  EK= 0.32699E+00 SP= 0.00E+00 SK= 0.00E+00
       N       E                     dE             d eps       ncg     rms          rms(c)
RMM:   1    -0.413205674294E+03   -0.12361E-01   -0.95939E+00  4302   0.915E-01    0.938E-01
RMM:   2    -0.413200264485E+03    0.54098E-02   -0.13540E-01  4278   0.134E-01    0.681E-01
RMM:   3    -0.413196141088E+03    0.41234E-02   -0.17139E-02  4521   0.701E-02    0.985E-02
RMM:   4    -0.413211424775E+03   -0.15284E-01   -0.15523E-02  5156   0.105E-01    0.519E-01
RMM:   5    -0.413195966522E+03    0.15458E-01   -0.78348E-03  4820   0.854E-02    0.459E-02
RMM:   6    -0.413196034224E+03   -0.67702E-04   -0.14429E-03  5815   0.359E-02    0.326E-02
RMM:   7    -0.413196028839E+03    0.53854E-05   -0.35233E-04  5427   0.186E-02    0.201E-02
RMM:   8    -0.413196008973E+03    0.19866E-04   -0.40412E-05  4970   0.770E-03    0.870E-03
RMM:   9    -0.413196005220E+03    0.37532E-05   -0.70114E-06  3168   0.320E-03    0.593E-03
RMM:  10    -0.413195999186E+03    0.60338E-05   -0.17064E-06  2528   0.219E-03    0.323E-03
RMM:  11    -0.413195993432E+03    0.57537E-05   -0.11175E-06  2495   0.174E-03    0.164E-03
RMM:  12    -0.413195987363E+03    0.60696E-05   -0.77340E-07  2436   0.144E-03    0.822E-04
RMM:  13    -0.413195984446E+03    0.29166E-05   -0.34091E-07  2114   0.999E-04    0.404E-04
RMM:  14    -0.413195982157E+03    0.22886E-05   -0.17614E-07  1569   0.752E-04    0.257E-04
RMM:  15    -0.413195977150E+03    0.50075E-05   -0.12352E-07  1339   0.696E-04    0.127E-04
RMM:  16    -0.413195973101E+03    0.40489E-05   -0.79903E-08  1121   0.646E-04    0.110E-04
RMM:  17    -0.413195969221E+03    0.38800E-05   -0.65261E-08  1110   0.623E-04    0.900E-05
RMM:  18    -0.413195964501E+03    0.47201E-05   -0.71595E-08  1288   0.629E-04    0.407E-05
RMM:  19    -0.413195963540E+03    0.96138E-06   -0.24721E-08   794   0.534E-04
   35 T=    67. E= -.41286647E+03 F= -.41319596E+03 E0= -.41317466E+03  EK= 0.32949E+00 SP= 0.00E+00 SK= 0.00E+00
       N       E                     dE             d eps       ncg     rms          rms(c)
RMM:   1    -0.413202158382E+03   -0.61939E-02   -0.95334E+00  4299   0.898E-01    0.936E-01
RMM:   2    -0.413202181866E+03   -0.23484E-04   -0.12507E-01  4257   0.133E-01    0.675E-01
RMM:   3    -0.413198177343E+03    0.40045E-02   -0.17798E-02  4417   0.698E-02    0.815E-02
RMM:   4    -0.413204596788E+03   -0.64194E-02   -0.66241E-03  5168   0.689E-02    0.341E-01
RMM:   5    -0.413198138999E+03    0.64578E-02   -0.33499E-03  4820   0.567E-02    0.436E-02
RMM:   6    -0.413198163039E+03   -0.24040E-04   -0.84568E-04  5685   0.286E-02    0.322E-02
RMM:   7    -0.413198144476E+03    0.18563E-04   -0.29931E-04  5196   0.176E-02    0.192E-02
RMM:   8    -0.413198131018E+03    0.13458E-04   -0.30238E-05  4847   0.654E-03    0.852E-03
RMM:   9    -0.413198128540E+03    0.24780E-05   -0.44765E-06  2790   0.260E-03    0.492E-03
RMM:  10    -0.413198123455E+03    0.50844E-05   -0.14164E-06  2493   0.199E-03    0.259E-03
RMM:  11    -0.413198118538E+03    0.49173E-05   -0.85151E-07  2456   0.150E-03    0.125E-03
RMM:  12    -0.413198113819E+03    0.47194E-05   -0.48586E-07  2245   0.116E-03    0.587E-04
RMM:  13    -0.413198110425E+03    0.33939E-05   -0.26054E-07  1852   0.874E-04    0.295E-04
RMM:  14    -0.413198107228E+03    0.31968E-05   -0.12966E-07  1281   0.699E-04    0.193E-04
RMM:  15    -0.413198102736E+03    0.44923E-05   -0.81200E-08  1047   0.647E-04    0.105E-04
RMM:  16    -0.413198099223E+03    0.35123E-05   -0.59453E-08   966   0.621E-04    0.689E-05
RMM:  17    -0.413198096710E+03    0.25134E-05   -0.43151E-08   913   0.598E-04    0.468E-05
RMM:  18    -0.413198092635E+03    0.40748E-05   -0.49647E-08  1088   0.609E-04    0.308E-05
RMM:  19    -0.413198091895E+03    0.73983E-06   -0.14934E-08   618   0.527E-04
   36 T=    68. E= -.41286627E+03 F= -.41319809E+03 E0= -.41317683E+03  EK= 0.33182E+00 SP= 0.00E+00 SK= 0.00E+00
       N       E                     dE             d eps       ncg     rms          rms(c)
RMM:   1    -0.413210382774E+03   -0.12290E-01   -0.96669E+00  4302   0.941E-01    0.925E-01
RMM:   2    -0.413205781892E+03    0.46009E-02   -0.12861E-01  4256   0.133E-01    0.683E-01
RMM:   3    -0.413201113034E+03    0.46689E-02   -0.18716E-02  4493   0.675E-02    0.777E-02
RMM:   4    -0.413211977527E+03   -0.10864E-01   -0.10986E-02  5162   0.884E-02    0.442E-01
RMM:   5    -0.413200985086E+03    0.10992E-01   -0.56220E-03  4829   0.732E-02    0.443E-02
RMM:   6    -0.413201002184E+03   -0.17098E-04   -0.11443E-03  5760   0.327E-02    0.308E-02
RMM:   7    -0.413201006185E+03   -0.40008E-05   -0.32301E-04  5349   0.179E-02    0.200E-02
RMM:   8    -0.413200990441E+03    0.15743E-04   -0.35700E-05  4869   0.720E-03    0.896E-03
RMM:   9    -0.413200989220E+03    0.12213E-05   -0.62294E-06  3027   0.303E-03    0.551E-03
RMM:  10    -0.413200987049E+03    0.21707E-05   -0.16355E-06  2526   0.216E-03    0.289E-03
RMM:  11    -0.413200984553E+03    0.24963E-05   -0.11255E-06  2497   0.171E-03    0.145E-03
RMM:  12    -0.413200981821E+03    0.27321E-05   -0.66753E-07  2394   0.133E-03    0.744E-04
RMM:  13    -0.413200980133E+03    0.16882E-05   -0.31806E-07  2008   0.950E-04    0.365E-04
RMM:  14    -0.413200978398E+03    0.17347E-05   -0.16492E-07  1480   0.736E-04    0.220E-04
RMM:  15    -0.413200975480E+03    0.29183E-05   -0.10467E-07  1197   0.666E-04    0.114E-04
RMM:  16    -0.413200973094E+03    0.23856E-05   -0.67172E-08  1000   0.627E-04    0.775E-05
RMM:  17    -0.413200971181E+03    0.19131E-05   -0.45995E-08   948   0.603E-04    0.513E-05
RMM:  18    -0.413200968014E+03    0.31669E-05   -0.51400E-08  1091   0.610E-04    0.303E-05
RMM:  19    -0.413200967060E+03    0.95412E-06   -0.20482E-08   766   0.549E-04
   37 T=    68. E= -.41286655E+03 F= -.41320097E+03 E0= -.41317975E+03  EK= 0.33441E+00 SP= 0.00E+00 SK= 0.00E+00
       N       E                     dE             d eps       ncg     rms          rms(c)
RMM:   1    -0.413212659872E+03   -0.11692E-01   -0.97518E+00  4307   0.956E-01    0.943E-01
RMM:   2    -0.413208598689E+03    0.40612E-02   -0.13493E-01  4256   0.129E-01    0.689E-01
RMM:   3    -0.413203982696E+03    0.46160E-02   -0.18090E-02  4732   0.638E-02    0.114E-01
RMM:   4    -0.413233257007E+03   -0.29274E-01   -0.30209E-02  5132   0.145E-01    0.715E-01
RMM:   5    -0.413203516673E+03    0.29740E-01   -0.14912E-02  4803   0.119E-01    0.510E-02
RMM:   6    -0.413203573566E+03   -0.56893E-04   -0.24942E-03  5835   0.473E-02    0.329E-02
RMM:   7    -0.413203584660E+03   -0.11094E-04   -0.35289E-04  5634   0.183E-02    0.184E-02
RMM:   8    -0.413203574262E+03    0.10398E-04   -0.60087E-05  5021   0.823E-03    0.105E-02
RMM:   9    -0.413203572964E+03    0.12974E-05   -0.17535E-05  4412   0.472E-03    0.765E-03
RMM:  10    -0.413203568307E+03    0.46569E-05   -0.23690E-06  2631   0.255E-03    0.423E-03
RMM:  11    -0.413203565899E+03    0.24081E-05   -0.12019E-06  2509   0.177E-03    0.263E-03
RMM:  12    -0.413203559641E+03    0.62582E-05   -0.17853E-06  2538   0.213E-03    0.137E-03
RMM:  13    -0.413203556607E+03    0.30342E-05   -0.66082E-07  2388   0.142E-03    0.835E-04
RMM:  14    -0.413203556029E+03    0.57794E-06   -0.26293E-07  2026   0.913E-04
   38 T=    69. E= -.41286655E+03 F= -.41320356E+03 E0= -.41318238E+03  EK= 0.33701E+00 SP= 0.00E+00 SK= 0.00E+00
       N       E                     dE             d eps       ncg     rms          rms(c)
RMM:   1    -0.413211753742E+03   -0.81971E-02   -0.97313E+00  4306   0.986E-01    0.953E-01
RMM:   2    -0.413211081636E+03    0.67211E-03   -0.13084E-01  4264   0.125E-01    0.684E-01
RMM:   3    -0.413206597460E+03    0.44842E-02   -0.18012E-02  4838   0.597E-02    0.127E-01
RMM:   4    -0.413240004367E+03   -0.33407E-01   -0.35009E-02  5133   0.156E-01    0.762E-01
RMM:   5    -0.413206008285E+03    0.33996E-01   -0.16942E-02  4800   0.127E-01    0.534E-02
RMM:   6    -0.413206083600E+03   -0.75315E-04   -0.28531E-03  5821   0.503E-02    0.346E-02
RMM:   7    -0.413206094872E+03   -0.11272E-04   -0.39596E-04  5655   0.191E-02    0.195E-02
RMM:   8    -0.413206081970E+03    0.12902E-04   -0.69092E-05  5081   0.873E-03    0.111E-02
RMM:   9    -0.413206078647E+03    0.33226E-05   -0.19339E-05  4486   0.495E-03    0.775E-03
RMM:  10    -0.413206071314E+03    0.73330E-05   -0.27038E-06  2659   0.263E-03    0.438E-03
RMM:  11    -0.413206067204E+03    0.41104E-05   -0.12040E-06  2491   0.181E-03    0.272E-03
RMM:  12    -0.413206056915E+03    0.10289E-04   -0.17523E-06  2527   0.214E-03    0.140E-03
RMM:  13    -0.413206051894E+03    0.50209E-05   -0.69164E-07  2403   0.146E-03    0.888E-04
RMM:  14    -0.413206051041E+03    0.85346E-06   -0.27591E-07  2082   0.940E-04
   39 T=    69. E= -.41286640E+03 F= -.41320605E+03 E0= -.41318491E+03  EK= 0.33965E+00 SP= 0.00E+00 SK= 0.00E+00
       N       E                     dE             d eps       ncg     rms          rms(c)
RMM:   1    -0.413219758471E+03   -0.13707E-01   -0.98173E+00  4309   0.104E+00    0.934E-01
RMM:   2    -0.413214522705E+03    0.52358E-02   -0.13964E-01  4266   0.129E-01    0.689E-01
RMM:   3    -0.413209965410E+03    0.45573E-02   -0.18092E-02  4905   0.645E-02    0.148E-01
RMM:   4    -0.413252528161E+03   -0.42563E-01   -0.46199E-02  5128   0.179E-01    0.858E-01
RMM:   5    -0.413208974419E+03    0.43554E-01   -0.21363E-02  4790   0.143E-01    0.565E-02
RMM:   6    -0.413209093181E+03   -0.11876E-03   -0.35822E-03  5824   0.559E-02    0.354E-02
RMM:   7    -0.413209104257E+03   -0.11076E-04   -0.42723E-04  5685   0.195E-02    0.186E-02
RMM:   8    -0.413209099265E+03    0.49922E-05   -0.55046E-05  4865   0.744E-03    0.977E-03
RMM:   9    -0.413209094687E+03    0.45776E-05   -0.15612E-05  4110   0.415E-03    0.671E-03
RMM:  10    -0.413209092303E+03    0.23838E-05   -0.42624E-06  2892   0.271E-03    0.438E-03
RMM:  11    -0.413209088663E+03    0.36399E-05   -0.14416E-06  2496   0.202E-03    0.263E-03
RMM:  12    -0.413209080808E+03    0.78559E-05   -0.17824E-06  2522   0.213E-03    0.111E-03
RMM:  13    -0.413209077698E+03    0.31093E-05   -0.59946E-07  2409   0.139E-03    0.837E-04
RMM:  14    -0.413209077492E+03    0.20674E-06   -0.25623E-07  2043   0.903E-04
   40 T=    70. E= -.41286663E+03 F= -.41320908E+03 E0= -.41318798E+03  EK= 0.34244E+00 SP= 0.00E+00 SK= 0.00E+00
       N       E                     dE             d eps       ncg     rms          rms(c)
RMM:   1    -0.413217458470E+03   -0.83808E-02   -0.98964E+00  4311   0.105E+00    0.949E-01
RMM:   2    -0.413216685835E+03    0.77264E-03   -0.13567E-01  4268   0.135E-01    0.698E-01
RMM:   3    -0.413212518983E+03    0.41669E-02   -0.19762E-02  4952   0.688E-02    0.170E-01
RMM:   4    -0.413258533004E+03   -0.46014E-01   -0.52178E-02  5132   0.191E-01    0.894E-01
RMM:   5    -0.413211014093E+03    0.47519E-01   -0.22840E-02  4788   0.149E-01    0.585E-02
RMM:   6    -0.413211154321E+03   -0.14023E-03   -0.38738E-03  5821   0.582E-02    0.361E-02
RMM:   7    -0.413211166208E+03   -0.11887E-04   -0.46882E-04  5727   0.202E-02    0.199E-02
RMM:   8    -0.413211166791E+03   -0.58216E-06   -0.87850E-05  5173   0.933E-03    0.124E-02
RMM:   9    -0.413211157962E+03    0.88282E-05   -0.24353E-05  4602   0.539E-03    0.764E-03
RMM:  10    -0.413211154236E+03    0.37263E-05   -0.40498E-06  2791   0.296E-03    0.453E-03
RMM:  11    -0.413211151416E+03    0.28201E-05   -0.15108E-06  2502   0.205E-03    0.278E-03
RMM:  12    -0.413211144608E+03    0.68077E-05   -0.17380E-06  2533   0.212E-03    0.114E-03
RMM:  13    -0.413211140393E+03    0.42149E-05   -0.73137E-07  2444   0.148E-03    0.801E-04
RMM:  14    -0.413211139758E+03    0.63541E-06   -0.30248E-07  2125   0.972E-04
   41 T=    70. E= -.41286627E+03 F= -.41321114E+03 E0= -.41319007E+03  EK= 0.34487E+00 SP= 0.00E+00 SK= 0.00E+00
       N       E                     dE             d eps       ncg     rms          rms(c)
RMM:   1    -0.413233106897E+03   -0.21967E-01   -0.10036E+01  4310   0.120E+00    0.967E-01
RMM:   2    -0.413218685597E+03    0.14421E-01   -0.14351E-01  4300   0.137E-01    0.695E-01
RMM:   3    -0.413216175662E+03    0.25099E-02   -0.19490E-02  5047   0.743E-02    0.235E-01
RMM:   4    -0.413260450066E+03   -0.44274E-01   -0.56322E-02  5111   0.199E-01    0.888E-01
RMM:   5    -0.413213503351E+03    0.46947E-01   -0.21548E-02  4763   0.148E-01    0.620E-02
RMM:   6    -0.413213624910E+03   -0.12156E-03   -0.38098E-03  5786   0.581E-02    0.379E-02
RMM:   7    -0.413213634656E+03   -0.97465E-05   -0.51595E-04  5729   0.212E-02    0.230E-02
RMM:   8    -0.413213633397E+03    0.12594E-05   -0.13118E-04  5236   0.116E-02    0.144E-02
RMM:   9    -0.413213617872E+03    0.15525E-04   -0.23721E-05  4577   0.594E-03    0.672E-03
RMM:  10    -0.413213611875E+03    0.59971E-05   -0.51860E-06  2988   0.299E-03    0.411E-03
RMM:  11    -0.413213607205E+03    0.46697E-05   -0.13220E-06  2499   0.198E-03    0.240E-03
RMM:  12    -0.413213597769E+03    0.94356E-05   -0.12182E-06  2485   0.186E-03    0.972E-04
RMM:  13    -0.413213591733E+03    0.60367E-05   -0.57043E-07  2386   0.132E-03    0.568E-04
RMM:  14    -0.413213590427E+03    0.13054E-05   -0.27415E-07  2028   0.919E-04    0.395E-04
RMM:  15    -0.413213587850E+03    0.25772E-05   -0.14169E-07  1497   0.722E-04    0.235E-04
RMM:  16    -0.413213580180E+03    0.76696E-05   -0.12874E-07  1549   0.730E-04    0.279E-04
RMM:  17    -0.413213578082E+03    0.20983E-05   -0.54885E-08   976   0.595E-04    0.182E-04
RMM:  18    -0.413213572311E+03    0.57716E-05   -0.68689E-08  1309   0.638E-04    0.138E-04
RMM:  19    -0.413213570188E+03    0.21225E-05   -0.36439E-08   982   0.565E-04    0.561E-05
RMM:  20    -0.413213568658E+03    0.15304E-05   -0.28258E-08   935   0.555E-04    0.500E-05
RMM:  21    -0.413213568456E+03    0.20159E-06   -0.12856E-08   703   0.519E-04
   42 T=    71. E= -.41286637E+03 F= -.41321357E+03 E0= -.41319253E+03  EK= 0.34720E+00 SP= 0.00E+00 SK= 0.00E+00
       N       E                     dE             d eps       ncg     rms          rms(c)
RMM:   1    -0.413235680646E+03   -0.22112E-01   -0.10014E+01  4311   0.124E+00    0.944E-01
RMM:   2    -0.413220774237E+03    0.14906E-01   -0.15582E-01  4318   0.144E-01    0.695E-01
RMM:   3    -0.413219652237E+03    0.11220E-02   -0.19376E-02  5066   0.826E-02    0.291E-01
RMM:   4    -0.413259680112E+03   -0.40028E-01   -0.57688E-02  5096   0.203E-01    0.862E-01
RMM:   5    -0.413215509774E+03    0.44170E-01   -0.19308E-02  4744   0.143E-01    0.631E-02
RMM:   6    -0.413215611256E+03   -0.10148E-03   -0.35272E-03  5764   0.559E-02    0.374E-02
RMM:   7    -0.413215619841E+03   -0.85850E-05   -0.53192E-04  5737   0.210E-02    0.245E-02
RMM:   8    -0.413215617864E+03    0.19769E-05   -0.13217E-04  5202   0.120E-02    0.133E-02
RMM:   9    -0.413215606104E+03    0.11761E-04   -0.20732E-05  4449   0.578E-03    0.563E-03
RMM:  10    -0.413215602797E+03    0.33072E-05   -0.47250E-06  2904   0.278E-03    0.355E-03
RMM:  11    -0.413215599609E+03    0.31876E-05   -0.13106E-06  2500   0.191E-03    0.196E-03
RMM:  12    -0.413215594154E+03    0.54550E-05   -0.96292E-07  2476   0.163E-03    0.767E-04
RMM:  13    -0.413215590681E+03    0.34730E-05   -0.46096E-07  2278   0.117E-03    0.381E-04
RMM:  14    -0.413215589137E+03    0.15436E-05   -0.23695E-07  1858   0.857E-04    0.270E-04
RMM:  15    -0.413215586137E+03    0.30009E-05   -0.13595E-07  1415   0.714E-04    0.127E-04
RMM:  16    -0.413215582798E+03    0.33390E-05   -0.89353E-08  1161   0.659E-04    0.108E-04
RMM:  17    -0.413215580595E+03    0.22023E-05   -0.60556E-08  1063   0.625E-04    0.736E-05
RMM:  18    -0.413215577598E+03    0.29972E-05   -0.50845E-08  1098   0.622E-04    0.453E-05
RMM:  19    -0.413215575293E+03    0.23048E-05   -0.40089E-08  1071   0.597E-04    0.307E-05
RMM:  20    -0.413215574521E+03    0.77198E-06   -0.19773E-08   798   0.551E-04
   43 T=    71. E= -.41286647E+03 F= -.41321557E+03 E0= -.41319457E+03  EK= 0.34911E+00 SP= 0.00E+00 SK= 0.00E+00
       N       E                     dE             d eps       ncg     rms          rms(c)
RMM:   1    -0.413232577006E+03   -0.17002E-01   -0.10077E+01  4313   0.128E+00    0.948E-01
RMM:   2    -0.413222164174E+03    0.10413E-01   -0.15742E-01  4326   0.154E-01    0.707E-01
RMM:   3    -0.413221814963E+03    0.34921E-03   -0.21190E-02  5068   0.906E-02    0.320E-01
RMM:   4    -0.413259277147E+03   -0.37462E-01   -0.58412E-02  5091   0.205E-01    0.846E-01
RMM:   5    -0.413216602366E+03    0.42675E-01   -0.18091E-02  4721   0.140E-01    0.631E-02
RMM:   6    -0.413216679702E+03   -0.77336E-04   -0.33432E-03  5739   0.546E-02    0.362E-02
RMM:   7    -0.413216685187E+03   -0.54848E-05   -0.49972E-04  5771   0.207E-02    0.241E-02
RMM:   8    -0.413216681959E+03    0.32279E-05   -0.12969E-04  5184   0.119E-02    0.128E-02
RMM:   9    -0.413216671661E+03    0.10298E-04   -0.19812E-05  4426   0.574E-03    0.518E-03
RMM:  10    -0.413216669316E+03    0.23443E-05   -0.44749E-06  2865   0.270E-03    0.327E-03
RMM:  11    -0.413216666845E+03    0.24710E-05   -0.13349E-06  2500   0.190E-03    0.177E-03
RMM:  12    -0.413216662829E+03    0.40166E-05   -0.87177E-07  2466   0.155E-03    0.736E-04
RMM:  13    -0.413216660155E+03    0.26734E-05   -0.43347E-07  2199   0.111E-03    0.335E-04
RMM:  14    -0.413216658377E+03    0.17785E-05   -0.22489E-07  1732   0.829E-04    0.216E-04
RMM:  15    -0.413216654892E+03    0.34851E-05   -0.15272E-07  1381   0.730E-04    0.125E-04
RMM:  16    -0.413216652770E+03    0.21219E-05   -0.89632E-08  1138   0.660E-04    0.922E-05
RMM:  17    -0.413216650682E+03    0.20879E-05   -0.67563E-08  1113   0.637E-04    0.561E-05
RMM:  18    -0.413216647997E+03    0.26850E-05   -0.55520E-08  1135   0.625E-04    0.349E-05
RMM:  19    -0.413216646097E+03    0.18996E-05   -0.36661E-08   996   0.587E-04    0.265E-05
RMM:  20    -0.413216645405E+03    0.69199E-06   -0.20360E-08   802   0.552E-04
   44 T=    71. E= -.41286625E+03 F= -.41321665E+03 E0= -.41319567E+03  EK= 0.35040E+00 SP= 0.00E+00 SK= 0.00E+00
       N       E                     dE             d eps       ncg     rms          rms(c)
RMM:   1    -0.413250034756E+03   -0.33389E-01   -0.10205E+01  4310   0.142E+00    0.971E-01
RMM:   2    -0.413222849604E+03    0.27185E-01   -0.16593E-01  4334   0.165E-01    0.704E-01
RMM:   3    -0.413225306920E+03   -0.24573E-02   -0.21957E-02  5088   0.101E-01    0.390E-01
RMM:   4    -0.413249801568E+03   -0.24495E-01   -0.51113E-02  5061   0.194E-01    0.738E-01
RMM:   5    -0.413217827137E+03    0.31974E-01   -0.12714E-02  4690   0.123E-01    0.624E-02
RMM:   6    -0.413217839435E+03   -0.12298E-04   -0.24983E-03  5656   0.479E-02    0.365E-02
RMM:   7    -0.413217841104E+03   -0.16686E-05   -0.42449E-04  5685   0.197E-02    0.242E-02
RMM:   8    -0.413217833233E+03    0.78706E-05   -0.12666E-04  5115   0.121E-02    0.118E-02
RMM:   9    -0.413217820752E+03    0.12481E-04   -0.17224E-05  4366   0.573E-03    0.474E-03
RMM:  10    -0.413217816896E+03    0.38559E-05   -0.36646E-06  2788   0.250E-03    0.286E-03
RMM:  11    -0.413217811749E+03    0.51475E-05   -0.12554E-06  2495   0.185E-03    0.155E-03
RMM:  12    -0.413217805615E+03    0.61341E-05   -0.70254E-07  2435   0.143E-03    0.694E-04
RMM:  13    -0.413217801835E+03    0.37793E-05   -0.34535E-07  2035   0.101E-03    0.316E-04
RMM:  14    -0.413217798559E+03    0.32763E-05   -0.19242E-07  1586   0.787E-04    0.187E-04
RMM:  15    -0.413217793472E+03    0.50871E-05   -0.13458E-07  1355   0.718E-04    0.125E-04
RMM:  16    -0.413217790417E+03    0.30546E-05   -0.85125E-08  1153   0.659E-04    0.901E-05
RMM:  17    -0.413217785974E+03    0.44436E-05   -0.80509E-08  1344   0.658E-04    0.566E-05
RMM:  18    -0.413217783421E+03    0.25523E-05   -0.48026E-08  1050   0.590E-04    0.435E-05
RMM:  19    -0.413217781221E+03    0.22004E-05   -0.36795E-08  1003   0.575E-04    0.236E-05
RMM:  20    -0.413217780887E+03    0.33346E-06   -0.18012E-08   742   0.532E-04
   45 T=    71. E= -.41286659E+03 F= -.41321778E+03 E0= -.41319682E+03  EK= 0.35119E+00 SP= 0.00E+00 SK= 0.00E+00
       N       E                     dE             d eps       ncg     rms          rms(c)
RMM:   1    -0.413243339695E+03   -0.25558E-01   -0.10036E+01  4310   0.146E+00    0.953E-01
RMM:   2    -0.413222342285E+03    0.20997E-01   -0.15777E-01  4352   0.174E-01    0.698E-01
RMM:   3    -0.413227430336E+03   -0.50881E-02   -0.24592E-02  5096   0.113E-01    0.443E-01
RMM:   4    -0.413242543520E+03   -0.15113E-01   -0.47214E-02  5047   0.188E-01    0.658E-01
RMM:   5    -0.413217270716E+03    0.25273E-01   -0.91786E-03  4651   0.110E-01    0.599E-02
RMM:   6    -0.413217246018E+03    0.24697E-04   -0.19574E-03  5574   0.425E-02    0.344E-02
RMM:   7    -0.413217239013E+03    0.70050E-05   -0.35935E-04  5602   0.184E-02    0.229E-02
RMM:   8    -0.413217228449E+03    0.10564E-04   -0.12616E-04  5073   0.120E-02    0.109E-02
RMM:   9    -0.413217216437E+03    0.12012E-04   -0.15216E-05  4271   0.546E-03    0.446E-03
RMM:  10    -0.413217213113E+03    0.33242E-05   -0.29482E-06  2718   0.234E-03    0.262E-03
RMM:  11    -0.413217208258E+03    0.48549E-05   -0.11802E-06  2483   0.178E-03    0.139E-03
RMM:  12    -0.413217203035E+03    0.52227E-05   -0.64587E-07  2406   0.136E-03    0.691E-04
RMM:  13    -0.413217199533E+03    0.35027E-05   -0.31459E-07  1929   0.961E-04    0.309E-04
RMM:  14    -0.413217196253E+03    0.32796E-05   -0.17645E-07  1468   0.753E-04    0.173E-04
RMM:  15    -0.413217191760E+03    0.44930E-05   -0.12589E-07  1272   0.699E-04    0.119E-04
RMM:  16    -0.413217188975E+03    0.27848E-05   -0.84041E-08  1149   0.651E-04    0.894E-05
RMM:  17    -0.413217183995E+03    0.49800E-05   -0.83014E-08  1337   0.660E-04    0.649E-05
RMM:  18    -0.413217182172E+03    0.18233E-05   -0.44957E-08  1015   0.574E-04    0.416E-05
RMM:  19    -0.413217180284E+03    0.18879E-05   -0.33653E-08   945   0.557E-04    0.221E-05
RMM:  20    -0.413217179949E+03    0.33569E-06   -0.18640E-08   741   0.521E-04
   46 T=    71. E= -.41286643E+03 F= -.41321718E+03 E0= -.41319624E+03  EK= 0.35075E+00 SP= 0.00E+00 SK= 0.00E+00
       N       E                     dE             d eps       ncg     rms          rms(c)
RMM:   1    -0.413230733048E+03   -0.13553E-01   -0.99340E+00  4310   0.147E+00    0.944E-01
RMM:   2    -0.413221172802E+03    0.95602E-02   -0.15368E-01  4373   0.179E-01    0.706E-01
RMM:   3    -0.413228396340E+03   -0.72235E-02   -0.27967E-02  5094   0.126E-01    0.485E-01
RMM:   4    -0.413239145661E+03   -0.10749E-01   -0.48150E-02  5035   0.192E-01    0.631E-01
RMM:   5    -0.413215742636E+03    0.23403E-01   -0.80073E-03  4624   0.106E-01    0.591E-02
RMM:   6    -0.413215694014E+03    0.48622E-04   -0.17246E-03  5472   0.402E-02    0.321E-02
RMM:   7    -0.413215689382E+03    0.46316E-05   -0.31747E-04  5615   0.175E-02    0.218E-02
RMM:   8    -0.413215680784E+03    0.85978E-05   -0.12983E-04  5084   0.121E-02    0.105E-02
RMM:   9    -0.413215669956E+03    0.10829E-04   -0.14556E-05  4196   0.542E-03    0.431E-03
RMM:  10    -0.413215667822E+03    0.21337E-05   -0.28706E-06  2699   0.231E-03    0.251E-03
RMM:  11    -0.413215664436E+03    0.33862E-05   -0.12459E-06  2488   0.181E-03    0.132E-03
RMM:  12    -0.413215661093E+03    0.33431E-05   -0.65195E-07  2400   0.135E-03    0.698E-04
RMM:  13    -0.413215658461E+03    0.26314E-05   -0.32374E-07  1882   0.957E-04    0.316E-04
RMM:  14    -0.413215655842E+03    0.26192E-05   -0.18692E-07  1433   0.755E-04    0.170E-04
RMM:  15    -0.413215652714E+03    0.31274E-05   -0.13529E-07  1302   0.701E-04    0.112E-04
RMM:  16    -0.413215650543E+03    0.21710E-05   -0.89547E-08  1171   0.651E-04    0.861E-05
RMM:  17    -0.413215646567E+03    0.39760E-05   -0.89380E-08  1339   0.661E-04    0.575E-05
RMM:  18    -0.413215645058E+03    0.15091E-05   -0.46354E-08   990   0.568E-04    0.399E-05
RMM:  19    -0.413215643787E+03    0.12711E-05   -0.30612E-08   872   0.543E-04    0.219E-05
RMM:  20    -0.413215643098E+03    0.68933E-06   -0.19640E-08   766   0.524E-04
   47 T=    71. E= -.41286653E+03 F= -.41321564E+03 E0= -.41319472E+03  EK= 0.34911E+00 SP= 0.00E+00 SK= 0.00E+00
       N       E                     dE             d eps       ncg     rms          rms(c)
RMM:   1    -0.413241994860E+03   -0.26351E-01   -0.99455E+00  4305   0.164E+00    0.959E-01
RMM:   2    -0.413218194051E+03    0.23801E-01   -0.16825E-01  4415   0.195E-01    0.704E-01
RMM:   3    -0.413231329912E+03   -0.13136E-01   -0.30486E-02  5132   0.140E-01    0.590E-01
RMM:   4    -0.413228640193E+03    0.26897E-02   -0.44290E-02  4999   0.187E-01    0.525E-01
RMM:   5    -0.413212977090E+03    0.15663E-01   -0.52707E-03  4568   0.940E-02    0.597E-02
RMM:   6    -0.413212872939E+03    0.10415E-03   -0.98523E-04  5091   0.334E-02    0.315E-02
RMM:   7    -0.413212862062E+03    0.10877E-04   -0.21496E-04  5590   0.147E-02    0.182E-02
RMM:   8    -0.413212859069E+03    0.29930E-05   -0.13735E-04  5204   0.121E-02    0.125E-02
RMM:   9    -0.413212842305E+03    0.16764E-04   -0.20745E-05  4537   0.618E-03    0.450E-03
RMM:  10    -0.413212839457E+03    0.28483E-05   -0.35837E-06  2783   0.247E-03    0.249E-03
RMM:  11    -0.413212833642E+03    0.58149E-05   -0.14557E-06  2461   0.197E-03    0.138E-03
RMM:  12    -0.413212829672E+03    0.39699E-05   -0.63282E-07  2379   0.139E-03    0.797E-04
RMM:  13    -0.413212825540E+03    0.41320E-05   -0.30715E-07  1878   0.984E-04    0.400E-04
RMM:  14    -0.413212821255E+03    0.42852E-05   -0.16155E-07  1480   0.749E-04    0.217E-04
RMM:  15    -0.413212817471E+03    0.37839E-05   -0.96409E-08  1155   0.652E-04    0.129E-04
RMM:  16    -0.413212814440E+03    0.30306E-05   -0.72575E-08  1116   0.618E-04    0.109E-04
RMM:  17    -0.413212810573E+03    0.38673E-05   -0.63655E-08  1148   0.607E-04    0.631E-05
RMM:  18    -0.413212807884E+03    0.26887E-05   -0.41147E-08   950   0.566E-04    0.530E-05
RMM:  19    -0.413212806954E+03    0.93076E-06   -0.19463E-08   708   0.520E-04
   48 T=    70. E= -.41286684E+03 F= -.41321281E+03 E0= -.41319190E+03  EK= 0.34597E+00 SP= 0.00E+00 SK= 0.00E+00
       N       E                     dE             d eps       ncg     rms          rms(c)
RMM:   1    -0.413238572028E+03   -0.25764E-01   -0.97314E+00  4304   0.175E+00    0.946E-01
RMM:   2    -0.413212408538E+03    0.26163E-01   -0.16531E-01  4470   0.204E-01    0.692E-01
RMM:   3    -0.413232895010E+03   -0.20486E-01   -0.35889E-02  5145   0.158E-01    0.687E-01
RMM:   4    -0.413217873617E+03    0.15021E-01   -0.42385E-02  4969   0.186E-01    0.432E-01
RMM:   5    -0.413207596048E+03    0.10278E-01   -0.40665E-03  4568   0.878E-02    0.624E-02
RMM:   6    -0.413207437170E+03    0.15888E-03   -0.52032E-04  4742   0.292E-02    0.321E-02
RMM:   7    -0.413207436392E+03    0.77771E-06   -0.26973E-04  5834   0.171E-02    0.199E-02
RMM:   8    -0.413207418048E+03    0.18344E-04   -0.98695E-05  5136   0.111E-02    0.106E-02
RMM:   9    -0.413207410783E+03    0.72656E-05   -0.16494E-05  4552   0.547E-03    0.461E-03
RMM:  10    -0.413207406933E+03    0.38492E-05   -0.22716E-06  2639   0.237E-03    0.245E-03
RMM:  11    -0.413207401051E+03    0.58825E-05   -0.13723E-06  2481   0.192E-03    0.174E-03
RMM:  12    -0.413207397360E+03    0.36911E-05   -0.49092E-07  2404   0.128E-03    0.930E-04
RMM:  13    -0.413207392914E+03    0.44461E-05   -0.30094E-07  2054   0.944E-04    0.460E-04
RMM:  14    -0.413207387341E+03    0.55727E-05   -0.21290E-07  1803   0.805E-04    0.382E-04
RMM:  15    -0.413207383036E+03    0.43050E-05   -0.10198E-07  1101   0.628E-04    0.159E-04
RMM:  16    -0.413207380360E+03    0.26760E-05   -0.67988E-08  1055   0.596E-04    0.921E-05
RMM:  17    -0.413207376158E+03    0.42018E-05   -0.69927E-08  1205   0.618E-04    0.102E-04
RMM:  18    -0.413207374819E+03    0.13388E-05   -0.36930E-08   930   0.546E-04    0.871E-05
RMM:  19    -0.413207373224E+03    0.15957E-05   -0.27356E-08   868   0.535E-04    0.436E-05
RMM:  20    -0.413207371299E+03    0.19249E-05   -0.28536E-08   917   0.536E-04    0.310E-05
RMM:  21    -0.413207371158E+03    0.14108E-06   -0.10416E-08   638   0.482E-04
   49 T=    69. E= -.41286671E+03 F= -.41320737E+03 E0= -.41318647E+03  EK= 0.34066E+00 SP= 0.00E+00 SK= 0.00E+00
       N       E                     dE             d eps       ncg     rms          rms(c)
RMM:   1    -0.413227513632E+03   -0.20142E-01   -0.95062E+00  4304   0.184E+00    0.921E-01
RMM:   2    -0.413205588063E+03    0.21926E-01   -0.15532E-01  4508   0.215E-01    0.691E-01
RMM:   3    -0.413231006220E+03   -0.25418E-01   -0.41186E-02  5150   0.173E-01    0.744E-01
RMM:   4    -0.413209245120E+03    0.21761E-01   -0.44195E-02  4952   0.193E-01    0.396E-01
RMM:   5    -0.413200478305E+03    0.87668E-02   -0.40283E-03  4679   0.888E-02    0.660E-02
RMM:   6    -0.413200268253E+03    0.21005E-03   -0.43723E-04  4638   0.294E-02    0.324E-02
RMM:   7    -0.413200282574E+03   -0.14321E-04   -0.33974E-04  5716   0.197E-02    0.255E-02
RMM:   8    -0.413200246932E+03    0.35643E-04   -0.98803E-05  5012   0.116E-02    0.110E-02
RMM:   9    -0.413200242937E+03    0.39948E-05   -0.28080E-05  5463   0.654E-03    0.501E-03
RMM:  10    -0.413200240003E+03    0.29336E-05   -0.33051E-06  2776   0.265E-03    0.284E-03
RMM:  11    -0.413200236096E+03    0.39074E-05   -0.17172E-06  2492   0.219E-03    0.220E-03
RMM:  12    -0.413200233109E+03    0.29869E-05   -0.50877E-07  2447   0.136E-03    0.115E-03
RMM:  13    -0.413200230262E+03    0.28473E-05   -0.27973E-07  2150   0.915E-04    0.539E-04
RMM:  14    -0.413200226198E+03    0.40637E-05   -0.25182E-07  1737   0.833E-04    0.331E-04
RMM:  15    -0.413200222186E+03    0.40123E-05   -0.16114E-07  1356   0.717E-04    0.192E-04
[...]
RMM:  15    -0.413160962982E+03   -0.65385E-05   -0.47797E-07  1894   0.906E-04    0.244E-04
RMM:  16    -0.413160966542E+03   -0.35594E-05   -0.28247E-07  1545   0.755E-04    0.153E-04
RMM:  17    -0.413160968037E+03   -0.14952E-05   -0.13237E-07  1181   0.634E-04    0.875E-05
RMM:  18    -0.413160969210E+03   -0.11728E-05   -0.10263E-07  1237   0.617E-04    0.375E-05
RMM:  19    -0.413160969712E+03   -0.50250E-06   -0.54595E-08   954   0.541E-04
  137 T=    60. E= -.41286637E+03 F= -.41316097E+03 E0= -.41314023E+03  EK= 0.29460E+00 SP= 0.00E+00 SK= 0.00E+00
       N       E                     dE             d eps       ncg     rms          rms(c)
RMM:   1    -0.413158322340E+03    0.26469E-02   -0.85592E+00  4264   0.770E-01    0.827E-01
RMM:   2    -0.413163290994E+03   -0.49687E-02   -0.94480E-02  4292   0.884E-02    0.582E-01
RMM:   3    -0.413161575684E+03    0.17153E-02   -0.11607E-02  4969   0.475E-02    0.128E-01
RMM:   4    -0.413189461767E+03   -0.27886E-01   -0.30757E-02  5139   0.146E-01    0.699E-01
RMM:   5    -0.413160937079E+03    0.28525E-01   -0.13741E-02  4797   0.117E-01    0.536E-02
RMM:   6    -0.413160971960E+03   -0.34881E-04   -0.24593E-03  5678   0.470E-02    0.309E-02
RMM:   7    -0.413161010731E+03   -0.38772E-04   -0.37924E-04  5876   0.166E-02    0.172E-02
RMM:   8    -0.413161020291E+03   -0.95597E-05   -0.58391E-05  5225   0.805E-03    0.858E-03
RMM:   9    -0.413161024528E+03   -0.42370E-05   -0.85410E-06  3297   0.345E-03    0.462E-03
RMM:  10    -0.413161033741E+03   -0.92130E-05   -0.27205E-06  2614   0.227E-03    0.292E-03
RMM:  11    -0.413161042024E+03   -0.82833E-05   -0.15444E-06  2522   0.178E-03    0.139E-03
RMM:  12    -0.413161050032E+03   -0.80074E-05   -0.13194E-06  2486   0.151E-03    0.627E-04
RMM:  13    -0.413161053484E+03   -0.34527E-05   -0.54448E-07  2121   0.107E-03    0.404E-04
RMM:  14    -0.413161056007E+03   -0.25227E-05   -0.31752E-07  1711   0.859E-04    0.254E-04
RMM:  15    -0.413161060464E+03   -0.44569E-05   -0.51255E-07  1865   0.911E-04    0.241E-04
RMM:  16    -0.413161062622E+03   -0.21580E-05   -0.26942E-07  1508   0.744E-04    0.169E-04
RMM:  17    -0.413161063600E+03   -0.97793E-06   -0.13625E-07  1159   0.632E-04
  138 T=    60. E= -.41286663E+03 F= -.41316106E+03 E0= -.41314034E+03  EK= 0.29443E+00 SP= 0.00E+00 SK= 0.00E+00
       N       E                     dE             d eps       ncg     rms          rms(c)
RMM:   1    -0.413155766048E+03    0.52966E-02   -0.89121E+00  4264   0.785E-01    0.822E-01
RMM:   2    -0.413161855560E+03   -0.60895E-02   -0.97954E-02  4290   0.899E-02    0.573E-01
RMM:   3    -0.413160379391E+03    0.14762E-02   -0.94459E-03  4933   0.416E-02    0.120E-01
RMM:   4    -0.413183821660E+03   -0.23442E-01   -0.24777E-02  5154   0.131E-01    0.641E-01
RMM:   5    -0.413160054915E+03    0.23767E-01   -0.11734E-02  4811   0.107E-01    0.493E-02
RMM:   6    -0.413160075879E+03   -0.20964E-04   -0.20402E-03  5678   0.432E-02    0.292E-02
RMM:   7    -0.413160105148E+03   -0.29269E-04   -0.31226E-04  5839   0.153E-02    0.151E-02
RMM:   8    -0.413160113504E+03   -0.83565E-05   -0.49322E-05  5135   0.735E-03    0.781E-03
RMM:   9    -0.413160116900E+03   -0.33952E-05   -0.69687E-06  3166   0.315E-03    0.427E-03
RMM:  10    -0.413160125034E+03   -0.81347E-05   -0.24364E-06  2584   0.217E-03    0.265E-03
RMM:  11    -0.413160131944E+03   -0.69096E-05   -0.14328E-06  2515   0.170E-03    0.120E-03
RMM:  12    -0.413160137843E+03   -0.58989E-05   -0.11266E-06  2443   0.140E-03    0.576E-04
RMM:  13    -0.413160140939E+03   -0.30960E-05   -0.52128E-07  2035   0.102E-03    0.361E-04
RMM:  14    -0.413160142954E+03   -0.20151E-05   -0.29126E-07  1600   0.826E-04    0.221E-04
RMM:  15    -0.413160146489E+03   -0.35355E-05   -0.49466E-07  1890   0.907E-04    0.212E-04
RMM:  16    -0.413160147993E+03   -0.15040E-05   -0.23096E-07  1429   0.706E-04    0.152E-04
RMM:  17    -0.413160148505E+03   -0.51197E-06   -0.10353E-07  1064   0.591E-04
  139 T=    60. E= -.41286639E+03 F= -.41316015E+03 E0= -.41313943E+03  EK= 0.29376E+00 SP= 0.00E+00 SK= 0.00E+00
       N       E                     dE             d eps       ncg     rms          rms(c)
RMM:   1    -0.413155528897E+03    0.46191E-02   -0.92633E+00  4264   0.802E-01    0.807E-01
RMM:   2    -0.413163021334E+03   -0.74924E-02   -0.10475E-01  4291   0.927E-02    0.579E-01
RMM:   3    -0.413161555322E+03    0.14660E-02   -0.79603E-03  4823   0.392E-02    0.109E-01
RMM:   4    -0.413176616006E+03   -0.15061E-01   -0.15590E-02  5151   0.105E-01    0.515E-01
RMM:   5    -0.413161425856E+03    0.15190E-01   -0.76484E-03  4823   0.858E-02    0.411E-02
RMM:   6    -0.413161431669E+03   -0.58121E-05   -0.13371E-03  5684   0.352E-02    0.245E-02
RMM:   7    -0.413161467564E+03   -0.35895E-04   -0.21069E-04  5701   0.125E-02    0.119E-02
RMM:   8    -0.413161482261E+03   -0.14697E-04   -0.36336E-05  4882   0.633E-03    0.656E-03
RMM:   9    -0.413161488083E+03   -0.58220E-05   -0.43715E-06  2891   0.265E-03    0.355E-03
RMM:  10    -0.413161499960E+03   -0.11877E-04   -0.20807E-06  2559   0.202E-03    0.218E-03
RMM:  11    -0.413161510003E+03   -0.10044E-04   -0.13206E-06  2499   0.157E-03    0.954E-04
RMM:  12    -0.413161517368E+03   -0.73647E-05   -0.85941E-07  2292   0.122E-03    0.482E-04
RMM:  13    -0.413161522480E+03   -0.51116E-05   -0.51935E-07  1943   0.954E-04    0.283E-04
RMM:  14    -0.413161525229E+03   -0.27494E-05   -0.26653E-07  1399   0.769E-04    0.174E-04
RMM:  15    -0.413161528619E+03   -0.33899E-05   -0.32487E-07  1641   0.804E-04    0.127E-04
RMM:  16    -0.413161530545E+03   -0.19259E-05   -0.19953E-07  1401   0.700E-04    0.820E-05
RMM:  17    -0.413161530796E+03   -0.25086E-06   -0.76226E-08   999   0.564E-04
  140 T=    60. E= -.41286662E+03 F= -.41316153E+03 E0= -.41314083E+03  EK= 0.29491E+00 SP= 0.00E+00 SK= 0.00E+00
       N       E                     dE             d eps       ncg     rms          rms(c)
RMM:   1    -0.413154908570E+03    0.66220E-02   -0.95943E+00  4264   0.816E-01    0.823E-01
RMM:   2    -0.413163126933E+03   -0.82184E-02   -0.10789E-01  4291   0.938E-02    0.578E-01
RMM:   3    -0.413161852278E+03    0.12747E-02   -0.68766E-03  4698   0.386E-02    0.120E-01
RMM:   4    -0.413169303243E+03   -0.74510E-02   -0.78586E-03  5169   0.751E-02    0.363E-01
RMM:   5    -0.413161856409E+03    0.74468E-02   -0.38282E-03  4838   0.608E-02    0.348E-02
RMM:   6    -0.413161846016E+03    0.10394E-04   -0.69184E-04  5625   0.264E-02    0.212E-02
RMM:   7    -0.413161877654E+03   -0.31638E-04   -0.12552E-04  5490   0.993E-03    0.928E-03
RMM:   8    -0.413161887994E+03   -0.10340E-04   -0.24858E-05  4584   0.535E-03    0.519E-03
RMM:   9    -0.413161892439E+03   -0.44450E-05   -0.23014E-06  2651   0.211E-03    0.284E-03
RMM:  10    -0.413161901605E+03   -0.91662E-05   -0.16626E-06  2531   0.177E-03    0.165E-03
RMM:  11    -0.413161908282E+03   -0.66773E-05   -0.10945E-06  2429   0.138E-03    0.712E-04
RMM:  12    -0.413161912899E+03   -0.46171E-05   -0.68615E-07  2087   0.106E-03    0.373E-04
RMM:  13    -0.413161916590E+03   -0.36906E-05   -0.51429E-07  1652   0.895E-04    0.201E-04
RMM:  14    -0.413161918513E+03   -0.19226E-05   -0.29430E-07  1550   0.780E-04    0.160E-04
RMM:  15    -0.413161920035E+03   -0.15221E-05   -0.23000E-07  1380   0.710E-04    0.105E-04
RMM:  16    -0.413161921186E+03   -0.11509E-05   -0.19402E-07  1265   0.673E-04    0.543E-05
RMM:  17    -0.413161921294E+03   -0.10875E-06   -0.64145E-08   901   0.556E-04
  141 T=    60. E= -.41286668E+03 F= -.41316192E+03 E0= -.41314123E+03  EK= 0.29524E+00 SP= 0.00E+00 SK= 0.00E+00
       N       E                     dE             d eps       ncg     rms          rms(c)
RMM:   1    -0.413153536183E+03    0.83850E-02   -0.97709E+00  4264   0.824E-01    0.830E-01
RMM:   2    -0.413161615003E+03   -0.80788E-02   -0.10940E-01  4291   0.964E-02    0.570E-01
RMM:   3    -0.413160901694E+03    0.71331E-03   -0.62701E-03  4648   0.344E-02    0.131E-01
RMM:   4    -0.413161969062E+03   -0.10674E-02   -0.17617E-03  5164   0.369E-02    0.140E-01
RMM:   5    -0.413160899501E+03    0.10696E-02   -0.61162E-04  4852   0.253E-02    0.312E-02
RMM:   6    -0.413160879424E+03    0.20078E-04   -0.19693E-04  5290   0.151E-02    0.181E-02
RMM:   7    -0.413160896523E+03   -0.17099E-04   -0.56934E-05  5062   0.778E-03    0.793E-03
RMM:   8    -0.413160899639E+03   -0.31162E-05   -0.10370E-05  3610   0.398E-03    0.400E-03
RMM:   9    -0.413160903115E+03   -0.34759E-05   -0.14683E-06  2516   0.196E-03    0.216E-03
RMM:  10    -0.413160909026E+03   -0.59107E-05   -0.17622E-06  2505   0.175E-03    0.103E-03
RMM:  11    -0.413160912769E+03   -0.37431E-05   -0.12027E-06  2361   0.138E-03    0.535E-04
RMM:  12    -0.413160914569E+03   -0.17998E-05   -0.49949E-07  1910   0.947E-04    0.349E-04
RMM:  13    -0.413160916172E+03   -0.16030E-05   -0.47109E-07  1574   0.863E-04    0.175E-04
RMM:  14    -0.413160916992E+03   -0.82031E-06   -0.41002E-07  1711   0.818E-04
  142 T=    60. E= -.41286638E+03 F= -.41316092E+03 E0= -.41314023E+03  EK= 0.29454E+00 SP= 0.00E+00 SK= 0.00E+00
       N       E                     dE             d eps       ncg     rms          rms(c)
RMM:   1    -0.413153934246E+03    0.69819E-02   -0.98206E+00  4264   0.833E-01    0.805E-01
RMM:   2    -0.413163029658E+03   -0.90954E-02   -0.11386E-01  4298   0.955E-02    0.574E-01
RMM:   3    -0.413162224390E+03    0.80527E-03   -0.54231E-03  4716   0.326E-02    0.130E-01
RMM:   4    -0.413163325640E+03   -0.11013E-02   -0.17677E-03  5186   0.373E-02    0.139E-01
RMM:   5    -0.413162269763E+03    0.10559E-02   -0.58465E-04  4836   0.249E-02    0.264E-02
RMM:   6    -0.413162252484E+03    0.17279E-04   -0.17592E-04  5296   0.142E-02    0.124E-02
RMM:   7    -0.413162282764E+03   -0.30280E-04   -0.39646E-05  5079   0.661E-03    0.754E-03
RMM:   8    -0.413162293222E+03   -0.10458E-04   -0.84694E-06  3426   0.362E-03    0.341E-03
RMM:   9    -0.413162301136E+03   -0.79144E-05   -0.18567E-06  2533   0.213E-03    0.176E-03
RMM:  10    -0.413162309452E+03   -0.83158E-05   -0.14775E-06  2498   0.165E-03    0.863E-04
RMM:  11    -0.413162316698E+03   -0.72456E-05   -0.12337E-06  2350   0.133E-03    0.507E-04
RMM:  12    -0.413162319321E+03   -0.26237E-05   -0.44284E-07  1812   0.884E-04    0.277E-04
RMM:  13    -0.413162322532E+03   -0.32104E-05   -0.60487E-07  1699   0.909E-04    0.150E-04
RMM:  14    -0.413162323911E+03   -0.13792E-05   -0.32877E-07  1507   0.750E-04    0.132E-04
RMM:  15    -0.413162324197E+03   -0.28585E-06   -0.11882E-07  1074   0.592E-04
  143 T=    60. E= -.41286670E+03 F= -.41316232E+03 E0= -.41314165E+03  EK= 0.29562E+00 SP= 0.00E+00 SK= 0.00E+00
       N       E                     dE             d eps       ncg     rms          rms(c)
RMM:   1    -0.413154300879E+03    0.80230E-02   -0.99023E+00  4264   0.837E-01    0.813E-01
RMM:   2    -0.413163969050E+03   -0.96682E-02   -0.11540E-01  4296   0.989E-02    0.581E-01
RMM:   3    -0.413162865331E+03    0.11037E-02   -0.53737E-03  4770   0.362E-02    0.136E-01
RMM:   4    -0.413170950251E+03   -0.80849E-02   -0.85076E-03  5174   0.782E-02    0.379E-01
RMM:   5    -0.413162808193E+03    0.81421E-02   -0.41549E-03  4837   0.630E-02    0.305E-02
RMM:   6    -0.413162792639E+03    0.15555E-04   -0.72283E-04  5658   0.259E-02    0.112E-02
RMM:   7    -0.413162816869E+03   -0.24230E-04   -0.92356E-05  5209   0.852E-03    0.780E-03
RMM:   8    -0.413162829231E+03   -0.12362E-04   -0.13152E-05  3634   0.393E-03    0.452E-03
RMM:   9    -0.413162842272E+03   -0.13042E-04   -0.32075E-06  2588   0.242E-03    0.188E-03
RMM:  10    -0.413162850068E+03   -0.77957E-05   -0.15419E-06  2532   0.163E-03    0.919E-04
RMM:  11    -0.413162855988E+03   -0.59197E-05   -0.11330E-06  2390   0.129E-03    0.512E-04
RMM:  12    -0.413162859072E+03   -0.30841E-05   -0.64725E-07  1913   0.100E-03    0.241E-04
RMM:  13    -0.413162861113E+03   -0.20410E-05   -0.56227E-07  1860   0.940E-04    0.159E-04
RMM:  14    -0.413162861960E+03   -0.84686E-06   -0.41432E-07  1705   0.836E-04
  144 T=    60. E= -.41286638E+03 F= -.41316286E+03 E0= -.41314220E+03  EK= 0.29648E+00 SP= 0.00E+00 SK= 0.00E+00
       N       E                     dE             d eps       ncg     rms          rms(c)
RMM:   1    -0.413154539371E+03    0.83217E-02   -0.98195E+00  4264   0.833E-01    0.830E-01
RMM:   2    -0.413163049204E+03   -0.85098E-02   -0.11347E-01  4297   0.974E-02    0.574E-01
RMM:   3    -0.413162573281E+03    0.47592E-03   -0.59712E-03  4912   0.373E-02    0.147E-01
RMM:   4    -0.413180666042E+03   -0.18093E-01   -0.18450E-02  5160   0.114E-01    0.562E-01
RMM:   5    -0.413162428478E+03    0.18238E-01   -0.92150E-03  4833   0.933E-02    0.410E-02
RMM:   6    -0.413162435053E+03   -0.65743E-05   -0.15333E-03  5711   0.366E-02    0.159E-02
RMM:   7    -0.413162455858E+03   -0.20806E-04   -0.18637E-04  5645   0.114E-02    0.102E-02
RMM:   8    -0.413162462737E+03   -0.68790E-05   -0.25740E-05  4266   0.501E-03    0.583E-03
RMM:   9    -0.413162466389E+03   -0.36511E-05   -0.46362E-06  2767   0.269E-03    0.256E-03
RMM:  10    -0.413162469407E+03   -0.30188E-05   -0.20953E-06  2572   0.187E-03    0.147E-03
RMM:  11    -0.413162471068E+03   -0.16602E-05   -0.13110E-06  2489   0.146E-03    0.740E-04
RMM:  12    -0.413162471190E+03   -0.12293E-06   -0.80590E-07  2184   0.113E-03
  145 T=    60. E= -.41286649E+03 F= -.41316247E+03 E0= -.41314182E+03  EK= 0.29598E+00 SP= 0.00E+00 SK= 0.00E+00
       N       E                     dE             d eps       ncg     rms          rms(c)
RMM:   1    -0.413155283138E+03    0.71879E-02   -0.95532E+00  4272   0.828E-01    0.803E-01
RMM:   2    -0.413164161547E+03   -0.88784E-02   -0.11297E-01  4296   0.954E-02    0.574E-01
RMM:   3    -0.413163322513E+03    0.83903E-03   -0.59183E-03  4963   0.383E-02    0.144E-01
RMM:   4    -0.413186565715E+03   -0.23243E-01   -0.24033E-02  5158   0.129E-01    0.636E-01
RMM:   5    -0.413163037769E+03    0.23528E-01   -0.11774E-02  4831   0.106E-01    0.448E-02
RMM:   6    -0.413163063886E+03   -0.26117E-04   -0.19277E-03  5710   0.413E-02    0.170E-02
RMM:   7    -0.413163091509E+03   -0.27623E-04   -0.24025E-04  5781   0.126E-02    0.111E-02
RMM:   8    -0.413163102898E+03   -0.11388E-04   -0.34947E-05  4760   0.587E-03    0.634E-03
RMM:   9    -0.413163107968E+03   -0.50699E-05   -0.67114E-06  3031   0.304E-03    0.280E-03
RMM:  10    -0.413163112858E+03   -0.48904E-05   -0.24267E-06  2576   0.206E-03    0.179E-03
RMM:  11    -0.413163116593E+03   -0.37351E-05   -0.15060E-06  2526   0.161E-03    0.971E-04
RMM:  12    -0.413163118102E+03   -0.15087E-05   -0.98685E-07  2384   0.125E-03    0.382E-04
RMM:  13    -0.413163118173E+03   -0.71130E-07   -0.47656E-07  1758   0.911E-04
  146 T=    60. E= -.41286656E+03 F= -.41316312E+03 E0= -.41314247E+03  EK= 0.29655E+00 SP= 0.00E+00 SK= 0.00E+00
       N       E                     dE             d eps       ncg     rms          rms(c)
RMM:   1    -0.413157046531E+03    0.60716E-02   -0.93601E+00  4264   0.820E-01    0.803E-01
RMM:   2    -0.413165879197E+03   -0.88327E-02   -0.11257E-01  4292   0.963E-02    0.587E-01
RMM:   3    -0.413164370396E+03    0.15088E-02   -0.68685E-03  4949   0.416E-02    0.134E-01
RMM:   4    -0.413190889659E+03   -0.26519E-01   -0.27792E-02  5144   0.139E-01    0.678E-01
RMM:   5    -0.413163987127E+03    0.26903E-01   -0.13371E-02  4821   0.113E-01    0.487E-02
RMM:   6    -0.413164026537E+03   -0.39410E-04   -0.22004E-03  5688   0.442E-02    0.200E-02
RMM:   7    -0.413164059893E+03   -0.33357E-04   -0.28019E-04  5854   0.136E-02    0.121E-02
RMM:   8    -0.413164074614E+03   -0.14721E-04   -0.43655E-05  5065   0.659E-03    0.689E-03
RMM:   9    -0.413164079648E+03   -0.50335E-05   -0.83459E-06  3247   0.329E-03    0.300E-03
RMM:  10    -0.413164085869E+03   -0.62218E-05   -0.27169E-06  2595   0.220E-03    0.207E-03
RMM:  11    -0.413164090861E+03   -0.49920E-05   -0.15737E-06  2532   0.171E-03    0.115E-03
RMM:  12    -0.413164093360E+03   -0.24989E-05   -0.10661E-06  2467   0.133E-03    0.455E-04
RMM:  13    -0.413164093774E+03   -0.41319E-06   -0.47635E-07  1832   0.929E-04
  147 T=    61. E= -.41286633E+03 F= -.41316409E+03 E0= -.41314345E+03  EK= 0.29777E+00 SP= 0.00E+00 SK= 0.00E+00
       N       E                     dE             d eps       ncg     rms          rms(c)
RMM:   1    -0.413158893231E+03    0.52001E-02   -0.90272E+00  4265   0.811E-01    0.823E-01
RMM:   2    -0.413165987076E+03   -0.70938E-02   -0.10766E-01  4299   0.938E-02    0.584E-01
RMM:   3    -0.413164685251E+03    0.13018E-02   -0.82412E-03  4984   0.422E-02    0.138E-01
RMM:   4    -0.413193210204E+03   -0.28525E-01   -0.30266E-02  5143   0.145E-01    0.704E-01
RMM:   5    -0.413164211307E+03    0.28999E-01   -0.14355E-02  4821   0.117E-01    0.537E-02
RMM:   6    -0.413164248444E+03   -0.37137E-04   -0.24072E-03  5684   0.465E-02    0.252E-02
RMM:   7    -0.413164273508E+03   -0.25064E-04   -0.33130E-04  5938   0.148E-02    0.141E-02
RMM:   8    -0.413164278705E+03   -0.51974E-05   -0.52538E-05  5290   0.744E-03    0.760E-03
RMM:   9    -0.413164278013E+03    0.69190E-06   -0.92903E-06  3408   0.351E-03
  148 T=    61. E= -.41286670E+03 F= -.41316428E+03 E0= -.41314364E+03  EK= 0.29758E+00 SP= 0.00E+00 SK= 0.00E+00
       N       E                     dE             d eps       ncg     rms          rms(c)
RMM:   1    -0.413159875177E+03    0.44035E-02   -0.85568E+00  4266   0.800E-01    0.806E-01
RMM:   2    -0.413166271736E+03   -0.63966E-02   -0.10364E-01  4305   0.927E-02    0.582E-01
RMM:   3    -0.413166289263E+03   -0.17527E-04   -0.11273E-02  5126   0.600E-02    0.221E-01
RMM:   4    -0.413194194842E+03   -0.27906E-01   -0.38576E-02  5104   0.165E-01    0.717E-01
RMM:   5    -0.413164073465E+03    0.30121E-01   -0.13780E-02  4789   0.120E-01    0.660E-02
RMM:   6    -0.413163984726E+03    0.88739E-04   -0.22875E-03  5459   0.473E-02    0.273E-02
RMM:   7    -0.413164024949E+03   -0.40223E-04   -0.43760E-04  6071   0.184E-02    0.179E-02
RMM:   8    -0.413164027546E+03   -0.25971E-05   -0.80491E-05  5470   0.967E-03    0.893E-03
RMM:   9    -0.413164026981E+03    0.56561E-06   -0.14429E-05  4124   0.451E-03    0.402E-03
RMM:  10    -0.413164028052E+03   -0.10711E-05   -0.21485E-06  2572   0.219E-03    0.262E-03
RMM:  11    -0.413164028261E+03   -0.20952E-06   -0.20700E-06  2556   0.208E-03
  149 T=    61. E= -.41286655E+03 F= -.41316403E+03 E0= -.41314340E+03  EK= 0.29748E+00 SP= 0.00E+00 SK= 0.00E+00
       N       E                     dE             d eps       ncg     rms          rms(c)
RMM:   1    -0.413162722021E+03    0.13060E-02   -0.81830E+00  4268   0.780E-01    0.801E-01
RMM:   2    -0.413168646228E+03   -0.59242E-02   -0.10035E-01  4305   0.903E-02    0.594E-01
RMM:   3    -0.413166626288E+03    0.20199E-02   -0.13489E-02  5065   0.552E-02    0.159E-01
RMM:   4    -0.413199571573E+03   -0.32945E-01   -0.39160E-02  5119   0.165E-01    0.762E-01
RMM:   5    -0.413165340456E+03    0.34231E-01   -0.16158E-02  4814   0.126E-01    0.606E-02
RMM:   6    -0.413165352983E+03   -0.12527E-04   -0.26608E-03  5639   0.502E-02    0.275E-02
RMM:   7    -0.413165393785E+03   -0.40802E-04   -0.41293E-04  6067   0.170E-02    0.168E-02
RMM:   8    -0.413165401850E+03   -0.80650E-05   -0.72927E-05  5421   0.909E-03    0.867E-03
RMM:   9    -0.413165403410E+03   -0.15595E-05   -0.11316E-05  3631   0.399E-03    0.383E-03
RMM:  10    -0.413165406790E+03   -0.33803E-05   -0.30435E-06  2655   0.240E-03    0.256E-03
RMM:  11    -0.413165409547E+03   -0.27568E-05   -0.18861E-06  2527   0.202E-03    0.154E-03
RMM:  12    -0.413165409362E+03    0.18551E-06   -0.11053E-06  2515   0.153E-03
  150 T=    61. E= -.41286659E+03 F= -.41316541E+03 E0= -.41314478E+03  EK= 0.29882E+00 SP= 0.00E+00 SK= 0.00E+00
