       N       E                     dE             d eps       ncg     rms          rms(c)
RMM:   1     0.220176356941E+04    0.22018E+04   -0.52441E+04  2132   0.654E+02
RMM:   2     0.705591027681E+03   -0.14962E+04   -0.16265E+04  2132   0.177E+02
RMM:   3     0.137373108294E+03   -0.56822E+03   -0.65737E+03  2132   0.117E+02
RMM:   4    -0.159254585283E+03   -0.29663E+03   -0.27847E+03  2132   0.936E+01
RMM:   5    -0.287591015647E+03   -0.12834E+03   -0.11454E+03  2132   0.595E+01
RMM:   6    -0.349847410471E+03   -0.62256E+02   -0.55110E+02  2132   0.423E+01
RMM:   7    -0.382643260485E+03   -0.32796E+02   -0.30380E+02  2132   0.293E+01
RMM:   8    -0.404184842687E+03   -0.21542E+02   -0.18437E+02  2132   0.233E+01
RMM:   9    -0.436011870211E+03   -0.31827E+02   -0.30731E+02  6103   0.173E+01
RMM:  10    -0.441312264194E+03   -0.53004E+01   -0.63156E+01  6399   0.539E+00
RMM:  11    -0.442519491159E+03   -0.12072E+01   -0.10993E+01  6209   0.172E+00
RMM:  12    -0.442894026437E+03   -0.37454E+00   -0.26361E+00  6371   0.597E-01    0.134E+02
RMM:  13    -0.425638520448E+03    0.17256E+02   -0.81204E+01  4671   0.119E+01    0.712E+01
RMM:  14    -0.499696905012E+03   -0.74058E+02   -0.54329E+02  5420   0.233E+01    0.307E+01
RMM:  15    -0.414021106815E+03    0.85676E+02   -0.19525E+02  5051   0.163E+01    0.598E+00
RMM:  16    -0.414077876346E+03   -0.56770E-01   -0.39678E+01  6076   0.605E+00    0.430E+00
RMM:  17    -0.413229153409E+03    0.84872E+00   -0.22571E+00  5337   0.180E+00    0.248E+00
RMM:  18    -0.413162539640E+03    0.66614E-01   -0.94990E-01  5941   0.101E+00    0.156E+00
RMM:  19    -0.413167467669E+03   -0.49280E-02   -0.29709E-01  5749   0.572E-01    0.853E-01
RMM:  20    -0.413179944796E+03   -0.12477E-01   -0.17341E-01  5276   0.469E-01    0.498E-01
RMM:  21    -0.413166672404E+03    0.13272E-01   -0.32222E-02  5024   0.217E-01    0.236E-01
RMM:  22    -0.413165571109E+03    0.11013E-02   -0.12227E-02  6098   0.895E-02    0.150E-01
RMM:  23    -0.413163869736E+03    0.17014E-02   -0.52475E-03  5792   0.674E-02    0.774E-02
RMM:  24    -0.413162577131E+03    0.12926E-02   -0.19937E-03  5704   0.428E-02    0.314E-02
RMM:  25    -0.413162475898E+03    0.10123E-03   -0.75400E-04  5889   0.219E-02    0.264E-02
RMM:  26    -0.413162735254E+03   -0.25936E-03   -0.44233E-04  5711   0.221E-02    0.266E-02
RMM:  27    -0.413163182157E+03   -0.44690E-03   -0.18786E-04  4542   0.191E-02    0.129E-02
RMM:  28    -0.413163686325E+03   -0.50417E-03   -0.16938E-04  5050   0.189E-02    0.829E-03
RMM:  29    -0.413164010650E+03   -0.32433E-03   -0.97096E-05  4354   0.131E-02    0.348E-03
RMM:  30    -0.413164214961E+03   -0.20431E-03   -0.74169E-05  3972   0.943E-03    0.247E-03
RMM:  31    -0.413164301379E+03   -0.86418E-04   -0.43392E-05  3095   0.534E-03    0.186E-03
RMM:  32    -0.413164322076E+03   -0.20698E-04   -0.17468E-05  2913   0.263E-03    0.101E-03
RMM:  33    -0.413164329196E+03   -0.71199E-05   -0.78428E-06  2706   0.179E-03    0.542E-04
RMM:  34    -0.413164330951E+03   -0.17547E-05   -0.36049E-06  2430   0.134E-03    0.680E-04
RMM:  35    -0.413164330814E+03    0.13649E-06   -0.19624E-06  1655   0.946E-04
    1 T=    61. E= -.41286654E+03 F= -.41316433E+03 E0= -.41314183E+03  EK= 0.29779E+00 SP= 0.00E+00 SK= 0.00E+00
       N       E                     dE             d eps       ncg     rms          rms(c)
RMM:   1    -0.413157849466E+03    0.64815E-02   -0.10316E+01  4006   0.668E-01    0.885E-01
RMM:   2    -0.413166714311E+03   -0.88648E-02   -0.12646E-01  3877   0.934E-02    0.644E-01
RMM:   3    -0.413164379172E+03    0.23351E-02   -0.93863E-03  4870   0.417E-02    0.132E-01
RMM:   4    -0.413192631715E+03   -0.28253E-01   -0.30152E-02  5211   0.143E-01    0.700E-01
RMM:   5    -0.413163854317E+03    0.28777E-01   -0.14165E-02  4842   0.118E-01    0.433E-02
RMM:   6    -0.413164047628E+03   -0.19331E-03   -0.23893E-03  5817   0.474E-02    0.272E-02
RMM:   7    -0.413164064155E+03   -0.16527E-04   -0.36202E-04  5838   0.167E-02    0.179E-02
RMM:   8    -0.413164068036E+03   -0.38810E-05   -0.58269E-05  5056   0.772E-03    0.839E-03
RMM:   9    -0.413164070997E+03   -0.29614E-05   -0.12533E-05  3775   0.384E-03    0.615E-03
RMM:  10    -0.413164076166E+03   -0.51690E-05   -0.21248E-06  2603   0.201E-03    0.404E-03
RMM:  11    -0.413164082721E+03   -0.65550E-05   -0.16124E-06  2546   0.183E-03    0.192E-03
RMM:  12    -0.413164089963E+03   -0.72419E-05   -0.15419E-06  2546   0.172E-03    0.789E-04
RMM:  13    -0.413164090952E+03   -0.98918E-06   -0.52554E-07  2220   0.110E-03
    2 T=    61. E= -.41286633E+03 F= -.41316409E+03 E0= -.41314159E+03  EK= 0.29776E+00 SP= 0.00E+00 SK= 0.00E+00
       N       E                     dE             d eps       ncg     rms          rms(c)
RMM:   1    -0.413158862556E+03    0.52274E-02   -0.10338E+01  4185   0.672E-01    0.907E-01
RMM:   2    -0.413166818262E+03   -0.79557E-02   -0.12443E-01  3908   0.924E-02    0.638E-01
RMM:   3    -0.413164751711E+03    0.20666E-02   -0.93057E-03  4783   0.377E-02    0.135E-01
RMM:   4    -0.413185213596E+03   -0.20462E-01   -0.20945E-02  5191   0.121E-01    0.599E-01
RMM:   5    -0.413164473648E+03    0.20740E-01   -0.10185E-02  4843   0.999E-02    0.402E-02
RMM:   6    -0.413164609022E+03   -0.13537E-03   -0.17132E-03  5817   0.401E-02    0.260E-02
RMM:   7    -0.413164613016E+03   -0.39943E-05   -0.27993E-04  5749   0.156E-02    0.165E-02
RMM:   8    -0.413164608699E+03    0.43170E-05   -0.47706E-05  4914   0.732E-03    0.779E-03
RMM:   9    -0.413164608106E+03    0.59357E-06   -0.95034E-06  3563   0.352E-03
    3 T=    61. E= -.41286660E+03 F= -.41316461E+03 E0= -.41314211E+03  EK= 0.29801E+00 SP= 0.00E+00 SK= 0.00E+00
       N       E                     dE             d eps       ncg     rms          rms(c)
RMM:   1    -0.413158318277E+03    0.62904E-02   -0.10256E+01  4224   0.673E-01    0.892E-01
RMM:   2    -0.413166668294E+03   -0.83500E-02   -0.12367E-01  4327   0.952E-02    0.633E-01
RMM:   3    -0.413172565076E+03   -0.58968E-02   -0.15665E-02  5200   0.898E-02    0.402E-01
RMM:   4    -0.413181906476E+03   -0.93414E-02   -0.34663E-02  5098   0.161E-01    0.551E-01
RMM:   5    -0.413164447657E+03    0.17459E-01   -0.61625E-03  4650   0.923E-02    0.572E-02
RMM:   6    -0.413164375468E+03    0.72189E-04   -0.12133E-03  5312   0.355E-02    0.266E-02
RMM:   7    -0.413164394541E+03   -0.19073E-04   -0.27305E-04  5979   0.162E-02    0.168E-02
RMM:   8    -0.413164393030E+03    0.15108E-05   -0.52752E-05  5214   0.829E-03    0.694E-03
RMM:   9    -0.413164392357E+03    0.67298E-06   -0.10888E-05  3956   0.409E-03    0.369E-03
RMM:  10    -0.413164393521E+03   -0.11637E-05   -0.12625E-06  2530   0.195E-03    0.229E-03
RMM:  11    -0.413164395833E+03   -0.23125E-05   -0.12354E-06  2525   0.177E-03    0.140E-03
RMM:  12    -0.413164397103E+03   -0.12693E-05   -0.60022E-07  2435   0.125E-03    0.497E-04
RMM:  13    -0.413164397918E+03   -0.81549E-06   -0.30058E-07  1644   0.818E-04
    4 T=    61. E= -.41286639E+03 F= -.41316440E+03 E0= -.41314191E+03  EK= 0.29801E+00 SP= 0.00E+00 SK= 0.00E+00
       N       E                     dE             d eps       ncg     rms          rms(c)
RMM:   1    -0.413158226347E+03    0.61708E-02   -0.10305E+01  4237   0.681E-01    0.883E-01
RMM:   2    -0.413167171581E+03   -0.89452E-02   -0.12654E-01  4039   0.941E-02    0.643E-01
RMM:   3    -0.413164856197E+03    0.23154E-02   -0.93359E-03  4880   0.415E-02    0.134E-01
RMM:   4    -0.413194471014E+03   -0.29615E-01   -0.30623E-02  5166   0.146E-01    0.717E-01
RMM:   5    -0.413164350557E+03    0.30120E-01   -0.14592E-02  4815   0.120E-01    0.438E-02
RMM:   6    -0.413164545778E+03   -0.19522E-03   -0.24702E-03  5759   0.479E-02    0.272E-02
RMM:   7    -0.413164559169E+03   -0.13390E-04   -0.35927E-04  5811   0.166E-02    0.176E-02
RMM:   8    -0.413164561812E+03   -0.26437E-05   -0.54808E-05  5010   0.757E-03    0.825E-03
RMM:   9    -0.413164564207E+03   -0.23948E-05   -0.11566E-05  3737   0.381E-03    0.608E-03
RMM:  10    -0.413164568586E+03   -0.43789E-05   -0.17176E-06  2567   0.201E-03    0.398E-03
RMM:  11    -0.413164574236E+03   -0.56496E-05   -0.15174E-06  2558   0.186E-03    0.185E-03
RMM:  12    -0.413164580005E+03   -0.57695E-05   -0.14050E-06  2544   0.171E-03    0.770E-04
RMM:  13    -0.413164580469E+03   -0.46369E-06   -0.37779E-07  2190   0.106E-03
    5 T=    61. E= -.41286644E+03 F= -.41316458E+03 E0= -.41314210E+03  EK= 0.29814E+00 SP= 0.00E+00 SK= 0.00E+00
       N       E                     dE             d eps       ncg     rms          rms(c)
RMM:   1    -0.413159151250E+03    0.54288E-02   -0.10338E+01  4250   0.684E-01    0.903E-01
RMM:   2    -0.413167256633E+03   -0.81054E-02   -0.12466E-01  4092   0.953E-02    0.640E-01
RMM:   3    -0.413165210696E+03    0.20459E-02   -0.92950E-03  4732   0.399E-02    0.133E-01
RMM:   4    -0.413185988587E+03   -0.20778E-01   -0.21108E-02  5160   0.121E-01    0.604E-01
RMM:   5    -0.413164887221E+03    0.21101E-01   -0.10375E-02  4828   0.100E-01    0.399E-02
RMM:   6    -0.413165023783E+03   -0.13656E-03   -0.17324E-03  5801   0.400E-02    0.257E-02
RMM:   7    -0.413165028357E+03   -0.45738E-05   -0.27392E-04  5717   0.154E-02    0.163E-02
RMM:   8    -0.413165023914E+03    0.44430E-05   -0.47979E-05  4909   0.734E-03    0.782E-03
RMM:   9    -0.413165023052E+03    0.86112E-06   -0.94930E-06  3586   0.356E-03
    6 T=    61. E= -.41286661E+03 F= -.41316502E+03 E0= -.41314256E+03  EK= 0.29842E+00 SP= 0.00E+00 SK= 0.00E+00
       N       E                     dE             d eps       ncg     rms          rms(c)
RMM:   1    -0.413158902642E+03    0.61213E-02   -0.10285E+01  4271   0.687E-01    0.899E-01
RMM:   2    -0.413166916493E+03   -0.80139E-02   -0.12389E-01  4378   0.933E-02    0.634E-01
RMM:   3    -0.413173054428E+03   -0.61379E-02   -0.15906E-02  5165   0.901E-02    0.406E-01
RMM:   4    -0.413181845862E+03   -0.87914E-02   -0.34291E-02  5070   0.160E-01    0.545E-01
RMM:   5    -0.413164868930E+03    0.16977E-01   -0.59715E-03  4631   0.910E-02    0.568E-02
RMM:   6    -0.413164799677E+03    0.69253E-04   -0.11991E-03  5297   0.349E-02    0.268E-02
RMM:   7    -0.413164816131E+03   -0.16454E-04   -0.26219E-04  5968   0.159E-02    0.168E-02
RMM:   8    -0.413164812605E+03    0.35254E-05   -0.51548E-05  5184   0.823E-03    0.682E-03
RMM:   9    -0.413164809876E+03    0.27293E-05   -0.10023E-05  3832   0.399E-03    0.363E-03
RMM:  10    -0.413164810125E+03   -0.24907E-06   -0.12189E-06  2518   0.194E-03
    7 T=    61. E= -.41286631E+03 F= -.41316481E+03 E0= -.41314236E+03  EK= 0.29850E+00 SP= 0.00E+00 SK= 0.00E+00
       N       E                     dE             d eps       ncg     rms          rms(c)
RMM:   1    -0.413159094601E+03    0.57153E-02   -0.10289E+01  4270   0.693E-01    0.882E-01
RMM:   2    -0.413167867554E+03   -0.87730E-02   -0.12598E-01  4073   0.937E-02    0.641E-01
RMM:   3    -0.413165617065E+03    0.22505E-02   -0.92517E-03  4850   0.410E-02    0.132E-01
RMM:   4    -0.413192563048E+03   -0.26946E-01   -0.27730E-02  5149   0.138E-01    0.685E-01
RMM:   5    -0.413165142428E+03    0.27421E-01   -0.13326E-02  4814   0.114E-01    0.430E-02
RMM:   6    -0.413165318006E+03   -0.17558E-03   -0.22303E-03  5758   0.457E-02    0.271E-02
RMM:   7    -0.413165327657E+03   -0.96509E-05   -0.34119E-04  5813   0.162E-02    0.171E-02
RMM:   8    -0.413165328827E+03   -0.11697E-05   -0.46928E-05  4910   0.710E-03    0.755E-03
RMM:   9    -0.413165330550E+03   -0.17226E-05   -0.10076E-05  3535   0.351E-03    0.576E-03
RMM:  10    -0.413165333512E+03   -0.29623E-05   -0.15375E-06  2553   0.194E-03    0.374E-03
RMM:  11    -0.413165337551E+03   -0.40387E-05   -0.14927E-06  2550   0.184E-03    0.166E-03
RMM:  12    -0.413165341070E+03   -0.35191E-05   -0.12910E-06  2526   0.162E-03    0.779E-04
RMM:  13    -0.413165341155E+03   -0.85267E-07   -0.33496E-07  2119   0.995E-04
    8 T=    61. E= -.41286654E+03 F= -.41316534E+03 E0= -.41314291E+03  EK= 0.29880E+00 SP= 0.00E+00 SK= 0.00E+00
       N       E                     dE             d eps       ncg     rms          rms(c)
RMM:   1    -0.413159511671E+03    0.58294E-02   -0.10340E+01  4285   0.698E-01    0.898E-01
RMM:   2    -0.413168019531E+03   -0.85079E-02   -0.12544E-01  4184   0.952E-02    0.643E-01
RMM:   3    -0.413165768197E+03    0.22513E-02   -0.93617E-03  4753   0.405E-02    0.131E-01
RMM:   4    -0.413188322628E+03   -0.22554E-01   -0.23058E-02  5151   0.126E-01    0.629E-01
RMM:   5    -0.413165381836E+03    0.22941E-01   -0.11271E-02  4813   0.104E-01    0.405E-02
RMM:   6    -0.413165531593E+03   -0.14976E-03   -0.19007E-03  5811   0.416E-02    0.259E-02
RMM:   7    -0.413165538589E+03   -0.69963E-05   -0.28409E-04  5713   0.156E-02    0.164E-02
RMM:   8    -0.413165535277E+03    0.33122E-05   -0.51436E-05  4937   0.750E-03    0.815E-03
RMM:   9    -0.413165534063E+03    0.12139E-05   -0.10119E-05  3659   0.368E-03    0.629E-03
RMM:  10    -0.413165535022E+03   -0.95905E-06   -0.14282E-06  2540   0.197E-03
    9 T=    61. E= -.41286648E+03 F= -.41316554E+03 E0= -.41314313E+03  EK= 0.29905E+00 SP= 0.00E+00 SK= 0.00E+00
       N       E                     dE             d eps       ncg     rms          rms(c)
RMM:   1    -0.413159857583E+03    0.56765E-02   -0.10318E+01  4295   0.701E-01    0.906E-01
RMM:   2    -0.413167763332E+03   -0.79057E-02   -0.12397E-01  4255   0.944E-02    0.635E-01
RMM:   3    -0.413168134894E+03   -0.37156E-03   -0.11182E-02  5079   0.627E-02    0.248E-01
RMM:   4    -0.413200759167E+03   -0.32624E-01   -0.44101E-02  5117   0.176E-01    0.775E-01
RMM:   5    -0.413165485678E+03    0.35273E-01   -0.15487E-02  4755   0.129E-01    0.563E-02
RMM:   6    -0.413165604317E+03   -0.11864E-03   -0.26281E-03  5620   0.509E-02    0.277E-02
RMM:   7    -0.413165619790E+03   -0.15472E-04   -0.38733E-04  6008   0.168E-02    0.175E-02
RMM:   8    -0.413165616920E+03    0.28693E-05   -0.65100E-05  5247   0.847E-03    0.791E-03
RMM:   9    -0.413165612347E+03    0.45730E-05   -0.10636E-05  3510   0.374E-03    0.393E-03
RMM:  10    -0.413165611354E+03    0.99328E-06   -0.24727E-06  2618   0.222E-03
   10 T=    61. E= -.41286632E+03 F= -.41316561E+03 E0= -.41314323E+03  EK= 0.29930E+00 SP= 0.00E+00 SK= 0.00E+00
       N       E                     dE             d eps       ncg     rms          rms(c)
RMM:   1    -0.413160156259E+03    0.54561E-02   -0.10274E+01  4293   0.705E-01    0.882E-01
RMM:   2    -0.413168791255E+03   -0.86350E-02   -0.12532E-01  4223   0.939E-02    0.639E-01
RMM:   3    -0.413167671115E+03    0.11201E-02   -0.99364E-03  5047   0.529E-02    0.189E-01
RMM:   4    -0.413209944687E+03   -0.42274E-01   -0.48418E-02  5134   0.183E-01    0.859E-01
RMM:   5    -0.413166141168E+03    0.43804E-01   -0.20413E-02  4793   0.144E-01    0.530E-02
RMM:   6    -0.413166347052E+03   -0.20588E-03   -0.33080E-03  5729   0.568E-02    0.282E-02
RMM:   7    -0.413166365488E+03   -0.18436E-04   -0.46340E-04  5969   0.183E-02    0.192E-02
RMM:   8    -0.413166366771E+03   -0.12828E-05   -0.74659E-05  5242   0.864E-03    0.927E-03
RMM:   9    -0.413166364801E+03    0.19697E-05   -0.14560E-05  3948   0.418E-03    0.533E-03
RMM:  10    -0.413166366415E+03   -0.16141E-05   -0.26924E-06  2630   0.222E-03    0.359E-03
RMM:  11    -0.413166367843E+03   -0.14284E-05   -0.11811E-06  2515   0.170E-03    0.185E-03
RMM:  12    -0.413166369307E+03   -0.14634E-05   -0.11807E-06  2527   0.161E-03    0.552E-04
RMM:  13    -0.413166369700E+03   -0.39339E-06   -0.50355E-07  2233   0.113E-03
   11 T=    61. E= -.41286661E+03 F= -.41316637E+03 E0= -.41314401E+03  EK= 0.29976E+00 SP= 0.00E+00 SK= 0.00E+00
       N       E                     dE             d eps       ncg     rms          rms(c)
RMM:   1    -0.413160298189E+03    0.60711E-02   -0.10349E+01  4296   0.716E-01    0.894E-01
RMM:   2    -0.413168849298E+03   -0.85511E-02   -0.12641E-01  4227   0.963E-02    0.646E-01
RMM:   3    -0.413166627690E+03    0.22216E-02   -0.94418E-03  4847   0.424E-02    0.136E-01
RMM:   4    -0.413195860682E+03   -0.29233E-01   -0.30234E-02  5144   0.144E-01    0.713E-01
RMM:   5    -0.413166122922E+03    0.29738E-01   -0.14476E-02  4801   0.119E-01    0.436E-02
RMM:   6    -0.413166313994E+03   -0.19107E-03   -0.24679E-03  5791   0.474E-02    0.273E-02
RMM:   7    -0.413166323119E+03   -0.91244E-05   -0.34474E-04  5783   0.167E-02    0.177E-02
RMM:   8    -0.413166320673E+03    0.24459E-05   -0.59965E-05  5012   0.793E-03    0.888E-03
RMM:   9    -0.413166319027E+03    0.16461E-05   -0.12395E-05  3879   0.400E-03    0.655E-03
RMM:  10    -0.413166320035E+03   -0.10080E-05   -0.17668E-06  2566   0.204E-03    0.427E-03
RMM:  11    -0.413166321552E+03   -0.15171E-05   -0.17382E-06  2569   0.201E-03    0.195E-03
RMM:  12    -0.413166322736E+03   -0.11843E-05   -0.13184E-06  2525   0.173E-03    0.761E-04
RMM:  13    -0.413166322774E+03   -0.37468E-07   -0.38105E-07  2190   0.107E-03
   12 T=    61. E= -.41286633E+03 F= -.41316632E+03 E0= -.41314399E+03  EK= 0.30000E+00 SP= 0.00E+00 SK= 0.00E+00
       N       E                     dE             d eps       ncg     rms          rms(c)
RMM:   1    -0.413161234539E+03    0.50882E-02   -0.10349E+01  4295   0.714E-01    0.910E-01
RMM:   2    -0.413168872768E+03   -0.76382E-02   -0.12436E-01  4236   0.945E-02    0.638E-01
RMM:   3    -0.413167156178E+03    0.17166E-02   -0.95125E-03  4840   0.404E-02    0.143E-01
RMM:   4    -0.413193958053E+03   -0.26802E-01   -0.27593E-02  5140   0.138E-01    0.684E-01
RMM:   5    -0.413166681852E+03    0.27276E-01   -0.13317E-02  4802   0.114E-01    0.438E-02
RMM:   6    -0.413166858350E+03   -0.17650E-03   -0.23075E-03  5805   0.455E-02    0.281E-02
RMM:   7    -0.413166859780E+03   -0.14304E-05   -0.33420E-04  5749   0.167E-02    0.179E-02
RMM:   8    -0.413166851360E+03    0.84200E-05   -0.57994E-05  4980   0.790E-03    0.891E-03
RMM:   9    -0.413166846577E+03    0.47828E-05   -0.11710E-05  3843   0.391E-03    0.677E-03
RMM:  10    -0.413166843892E+03    0.26853E-05   -0.16168E-06  2555   0.205E-03    0.434E-03
RMM:  11    -0.413166840705E+03    0.31873E-05   -0.15075E-06  2538   0.193E-03    0.211E-03
RMM:  12    -0.413166836713E+03    0.39914E-05   -0.13639E-06  2526   0.177E-03    0.751E-04
RMM:  13    -0.413166836004E+03    0.70915E-06   -0.40477E-07  2230   0.110E-03
   13 T=    61. E= -.41286636E+03 F= -.41316684E+03 E0= -.41314453E+03  EK= 0.30048E+00 SP= 0.00E+00 SK= 0.00E+00
       N       E                     dE             d eps       ncg     rms          rms(c)
RMM:   1    -0.413161390289E+03    0.54464E-02   -0.10276E+01  4293   0.717E-01    0.886E-01
RMM:   2    -0.413169883069E+03   -0.84928E-02   -0.12524E-01  4233   0.935E-02    0.637E-01
RMM:   3    -0.413167769063E+03    0.21140E-02   -0.92079E-03  4795   0.408E-02    0.134E-01
RMM:   4    -0.413192718441E+03   -0.24949E-01   -0.25628E-02  5136   0.133E-01    0.660E-01
RMM:   5    -0.413167360508E+03    0.25358E-01   -0.12389E-02  4807   0.109E-01    0.418E-02
RMM:   6    -0.413167524565E+03   -0.16406E-03   -0.21187E-03  5804   0.435E-02    0.264E-02
RMM:   7    -0.413167530511E+03   -0.59463E-05   -0.30159E-04  5738   0.159E-02    0.168E-02
RMM:   8    -0.413167525776E+03    0.47352E-05   -0.56011E-05  4966   0.776E-03    0.849E-03
RMM:   9    -0.413167523095E+03    0.26804E-05   -0.11545E-05  3825   0.388E-03    0.650E-03
RMM:  10    -0.413167522822E+03    0.27350E-06   -0.15105E-06  2545   0.200E-03
   14 T=    61. E= -.41286647E+03 F= -.41316752E+03 E0= -.41314525E+03  EK= 0.30105E+00 SP= 0.00E+00 SK= 0.00E+00
       N       E                     dE             d eps       ncg     rms          rms(c)
RMM:   1    -0.413161511836E+03    0.60113E-02   -0.10362E+01  4301   0.726E-01    0.891E-01
RMM:   2    -0.413170298990E+03   -0.87872E-02   -0.12722E-01  4281   0.974E-02    0.648E-01
RMM:   3    -0.413170705753E+03   -0.40676E-03   -0.11753E-02  5105   0.660E-02    0.263E-01
RMM:   4    -0.413204472038E+03   -0.33766E-01   -0.47749E-02  5105   0.183E-01    0.792E-01
RMM:   5    -0.413167425331E+03    0.37047E-01   -0.15993E-02  4739   0.131E-01    0.564E-02
RMM:   6    -0.413167540008E+03   -0.11468E-03   -0.26868E-03  5617   0.515E-02    0.263E-02
RMM:   7    -0.413167561473E+03   -0.21465E-04   -0.38847E-04  6011   0.168E-02    0.172E-02
RMM:   8    -0.413167564101E+03   -0.26280E-05   -0.67007E-05  5247   0.855E-03    0.796E-03
RMM:   9    -0.413167562411E+03    0.16901E-05   -0.11348E-05  3586   0.383E-03    0.371E-03
RMM:  10    -0.413167563748E+03   -0.13376E-05   -0.25543E-06  2615   0.221E-03    0.259E-03
RMM:  11    -0.413167565045E+03   -0.12965E-05   -0.12901E-06  2519   0.175E-03    0.138E-03
RMM:  12    -0.413167565658E+03   -0.61326E-06   -0.74864E-07  2461   0.135E-03
   15 T=    61. E= -.41286616E+03 F= -.41316757E+03 E0= -.41314533E+03  EK= 0.30141E+00 SP= 0.00E+00 SK= 0.00E+00
       N       E                     dE             d eps       ncg     rms          rms(c)
RMM:   1    -0.413163042856E+03    0.45222E-02   -0.10379E+01  4297   0.726E-01    0.912E-01
RMM:   2    -0.413170864991E+03   -0.78221E-02   -0.12509E-01  4252   0.960E-02    0.641E-01
RMM:   3    -0.413169145382E+03    0.17196E-02   -0.97611E-03  4938   0.440E-02    0.155E-01
RMM:   4    -0.413204844938E+03   -0.35700E-01   -0.37646E-02  5140   0.161E-01    0.787E-01
RMM:   5    -0.413168387751E+03    0.36457E-01   -0.17594E-02  4790   0.132E-01    0.484E-02
RMM:   6    -0.413168610185E+03   -0.22243E-03   -0.30606E-03  5766   0.528E-02    0.302E-02
RMM:   7    -0.413168614884E+03   -0.46990E-05   -0.42389E-04  5803   0.182E-02    0.198E-02
RMM:   8    -0.413168607311E+03    0.75726E-05   -0.69532E-05  5109   0.850E-03    0.998E-03
RMM:   9    -0.413168600883E+03    0.64283E-05   -0.14315E-05  4056   0.424E-03    0.704E-03
RMM:  10    -0.413168597324E+03    0.35591E-05   -0.20923E-06  2582   0.216E-03    0.454E-03
RMM:  11    -0.413168593834E+03    0.34898E-05   -0.14755E-06  2536   0.189E-03    0.233E-03
RMM:  12    -0.413168588658E+03    0.51762E-05   -0.15943E-06  2550   0.192E-03    0.828E-04
RMM:  13    -0.413168587316E+03    0.13421E-05   -0.47571E-07  2307   0.122E-03    0.579E-04
RMM:  14    -0.413168587289E+03    0.27219E-07   -0.21720E-07  1814   0.827E-04
   16 T=    62. E= -.41286650E+03 F= -.41316859E+03 E0= -.41314639E+03  EK= 0.30209E+00 SP= 0.00E+00 SK= 0.00E+00
       N       E                     dE             d eps       ncg     rms          rms(c)
RMM:   1    -0.413163059707E+03    0.55276E-02   -0.10296E+01  4298   0.726E-01    0.892E-01
RMM:   2    -0.413171456251E+03   -0.83965E-02   -0.12522E-01  4252   0.939E-02    0.637E-01
RMM:   3    -0.413169334627E+03    0.21216E-02   -0.92674E-03  4875   0.403E-02    0.141E-01
RMM:   4    -0.413197756028E+03   -0.28421E-01   -0.29432E-02  5140   0.142E-01    0.703E-01
RMM:   5    -0.413168844633E+03    0.28911E-01   -0.14135E-02  4797   0.117E-01    0.441E-02
RMM:   6    -0.413169022581E+03   -0.17795E-03   -0.23959E-03  5787   0.469E-02    0.281E-02
RMM:   7    -0.413169026647E+03   -0.40656E-05   -0.34860E-04  5734   0.168E-02    0.180E-02
RMM:   8    -0.413169020575E+03    0.60721E-05   -0.59240E-05  5014   0.796E-03    0.885E-03
RMM:   9    -0.413169016149E+03    0.44255E-05   -0.12110E-05  3828   0.396E-03    0.654E-03
RMM:  10    -0.413169014118E+03    0.20315E-05   -0.16281E-06  2549   0.202E-03    0.422E-03
RMM:  11    -0.413169011528E+03    0.25896E-05   -0.15287E-06  2538   0.193E-03    0.196E-03
RMM:  12    -0.413169008487E+03    0.30415E-05   -0.12533E-06  2512   0.172E-03    0.753E-04
RMM:  13    -0.413169008024E+03    0.46288E-06   -0.37474E-07  2192   0.107E-03
   17 T=    62. E= -.41286641E+03 F= -.41316901E+03 E0= -.41314685E+03  EK= 0.30260E+00 SP= 0.00E+00 SK= 0.00E+00
       N       E                     dE             d eps       ncg     rms          rms(c)
RMM:   1    -0.413163978920E+03    0.50296E-02   -0.10376E+01  4302   0.747E-01    0.889E-01
RMM:   2    -0.413172211170E+03   -0.82323E-02   -0.12928E-01  4258   0.988E-02    0.649E-01
RMM:   3    -0.413169804688E+03    0.24065E-02   -0.95548E-03  4850   0.423E-02    0.134E-01
RMM:   4    -0.413198491752E+03   -0.28687E-01   -0.29737E-02  5145   0.143E-01    0.706E-01
RMM:   5    -0.413169283980E+03    0.29208E-01   -0.14307E-02  4802   0.118E-01    0.433E-02
RMM:   6    -0.413169461190E+03   -0.17721E-03   -0.24046E-03  5795   0.470E-02    0.269E-02
RMM:   7    -0.413169470930E+03   -0.97399E-05   -0.33171E-04  5781   0.165E-02    0.173E-02
RMM:   8    -0.413169468039E+03    0.28911E-05   -0.62898E-05  5017   0.806E-03    0.902E-03
RMM:   9    -0.413169465153E+03    0.28862E-05   -0.12881E-05  4008   0.410E-03    0.663E-03
RMM:  10    -0.413169465362E+03   -0.20883E-06   -0.17519E-06  2560   0.204E-03
   18 T=    62. E= -.41286629E+03 F= -.41316947E+03 E0= -.41314735E+03  EK= 0.30318E+00 SP= 0.00E+00 SK= 0.00E+00
       N       E                     dE             d eps       ncg     rms          rms(c)
RMM:   1    -0.413165036037E+03    0.44291E-02   -0.10403E+01  4303   0.737E-01    0.911E-01
RMM:   2    -0.413173039952E+03   -0.80039E-02   -0.12611E-01  4307   0.986E-02    0.645E-01
RMM:   3    -0.413174298032E+03   -0.12581E-02   -0.12283E-02  5107   0.690E-02    0.283E-01
RMM:   4    -0.413202677481E+03   -0.28379E-01   -0.43617E-02  5092   0.176E-01    0.739E-01
RMM:   5    -0.413170640016E+03    0.32037E-01   -0.13502E-02  4715   0.122E-01    0.557E-02
RMM:   6    -0.413170724807E+03   -0.84791E-04   -0.23656E-03  5583   0.483E-02    0.277E-02
RMM:   7    -0.413170736572E+03   -0.11765E-04   -0.35837E-04  6006   0.164E-02    0.177E-02
RMM:   8    -0.413170731521E+03    0.50509E-05   -0.64370E-05  5204   0.855E-03    0.791E-03
RMM:   9    -0.413170724608E+03    0.69128E-05   -0.10213E-05  3515   0.378E-03    0.377E-03
RMM:  10    -0.413170722184E+03    0.24249E-05   -0.22058E-06  2574   0.216E-03    0.257E-03
RMM:  11    -0.413170718317E+03    0.38665E-05   -0.11861E-06  2513   0.173E-03    0.140E-03
RMM:  12    -0.413170714726E+03    0.35906E-05   -0.65036E-07  2439   0.133E-03    0.432E-04
RMM:  13    -0.413170712828E+03    0.18990E-05   -0.31939E-07  1981   0.943E-04    0.263E-04
RMM:  14    -0.413170711151E+03    0.16765E-05   -0.18773E-07  1470   0.766E-04    0.178E-04
RMM:  15    -0.413170708600E+03    0.25510E-05   -0.15471E-07  1324   0.719E-04    0.877E-05
RMM:  16    -0.413170706367E+03    0.22328E-05   -0.12431E-07  1359   0.686E-04    0.939E-05
RMM:  17    -0.413170703870E+03    0.24968E-05   -0.10979E-07  1326   0.653E-04    0.556E-05
RMM:  18    -0.413170702070E+03    0.18003E-05   -0.70772E-08  1090   0.587E-04    0.241E-05
RMM:  19    -0.413170701429E+03    0.64148E-06   -0.34986E-08   843   0.538E-04
   19 T=    62. E= -.41286663E+03 F= -.41317070E+03 E0= -.41314862E+03  EK= 0.30407E+00 SP= 0.00E+00 SK= 0.00E+00
       N       E                     dE             d eps       ncg     rms          rms(c)
RMM:   1    -0.413165588273E+03    0.51138E-02   -0.10345E+01  4297   0.748E-01    0.901E-01
RMM:   2    -0.413173302396E+03   -0.77141E-02   -0.12543E-01  4261   0.977E-02    0.638E-01
RMM:   3    -0.413171689947E+03    0.16124E-02   -0.96420E-03  4922   0.454E-02    0.157E-01
RMM:   4    -0.413208401668E+03   -0.36712E-01   -0.38942E-02  5138   0.164E-01    0.797E-01
RMM:   5    -0.413170899348E+03    0.37502E-01   -0.18174E-02  4789   0.133E-01    0.488E-02
RMM:   6    -0.413171109640E+03   -0.21029E-03   -0.30903E-03  5756   0.535E-02    0.303E-02
RMM:   7    -0.413171114510E+03   -0.48699E-05   -0.43314E-04  5759   0.183E-02    0.198E-02
RMM:   8    -0.413171107029E+03    0.74806E-05   -0.70755E-05  5158   0.861E-03    0.987E-03
RMM:   9    -0.413171100458E+03    0.65713E-05   -0.14956E-05  4130   0.432E-03    0.684E-03
RMM:  10    -0.413171096935E+03    0.35224E-05   -0.21444E-06  2586   0.216E-03    0.444E-03
RMM:  11    -0.413171093569E+03    0.33667E-05   -0.13431E-06  2509   0.183E-03    0.230E-03
RMM:  12    -0.413171088742E+03    0.48266E-05   -0.14223E-06  2523   0.187E-03    0.789E-04
RMM:  13    -0.413171087316E+03    0.14265E-05   -0.45974E-07  2298   0.121E-03    0.566E-04
RMM:  14    -0.413171087358E+03   -0.42310E-07   -0.21583E-07  1812   0.825E-04
   20 T=    62. E= -.41286631E+03 F= -.41317109E+03 E0= -.41314905E+03  EK= 0.30478E+00 SP= 0.00E+00 SK= 0.00E+00
       N       E                     dE             d eps       ncg     rms          rms(c)
RMM:   1    -0.413166286767E+03    0.48005E-02   -0.10389E+01  4298   0.758E-01    0.889E-01
RMM:   2    -0.413174980842E+03   -0.86941E-02   -0.12872E-01  4278   0.988E-02    0.649E-01
RMM:   3    -0.413172517741E+03    0.24631E-02   -0.96261E-03  4819   0.432E-02    0.132E-01
RMM:   4    -0.413200082329E+03   -0.27565E-01   -0.28540E-02  5137   0.140E-01    0.692E-01
RMM:   5    -0.413172032272E+03    0.28050E-01   -0.13792E-02  4799   0.115E-01    0.431E-02
RMM:   6    -0.413172197332E+03   -0.16506E-03   -0.23071E-03  5806   0.460E-02    0.269E-02
RMM:   7    -0.413172206652E+03   -0.93205E-05   -0.32430E-04  5741   0.164E-02    0.171E-02
RMM:   8    -0.413172203121E+03    0.35313E-05   -0.62154E-05  4997   0.807E-03    0.896E-03
RMM:   9    -0.413172199438E+03    0.36827E-05   -0.12781E-05  3970   0.408E-03    0.657E-03
RMM:  10    -0.413172198831E+03    0.60655E-06   -0.16383E-06  2553   0.202E-03
   21 T=    62. E= -.41286643E+03 F= -.41317220E+03 E0= -.41315021E+03  EK= 0.30577E+00 SP= 0.00E+00 SK= 0.00E+00
       N       E                     dE             d eps       ncg     rms          rms(c)
RMM:   1    -0.413167628779E+03    0.45707E-02   -0.10444E+01  4297   0.756E-01    0.909E-01
RMM:   2    -0.413175795051E+03   -0.81663E-02   -0.12753E-01  4309   0.983E-02    0.649E-01
RMM:   3    -0.413176187986E+03   -0.39294E-03   -0.11838E-02  5088   0.651E-02    0.260E-01
RMM:   4    -0.413209889695E+03   -0.33702E-01   -0.47174E-02  5103   0.182E-01    0.789E-01
RMM:   5    -0.413173105683E+03    0.36784E-01   -0.16084E-02  4741   0.131E-01    0.558E-02
RMM:   6    -0.413173223483E+03   -0.11780E-03   -0.27249E-03  5626   0.521E-02    0.281E-02
RMM:   7    -0.413173236618E+03   -0.13135E-04   -0.39872E-04  5976   0.172E-02    0.183E-02
RMM:   8    -0.413173232460E+03    0.41574E-05   -0.69509E-05  5218   0.872E-03    0.836E-03
RMM:   9    -0.413173225582E+03    0.68787E-05   -0.11875E-05  3670   0.396E-03    0.407E-03
RMM:  10    -0.413173222949E+03    0.26325E-05   -0.25393E-06  2619   0.223E-03    0.284E-03
RMM:  11    -0.413173219373E+03    0.35757E-05   -0.10978E-06  2500   0.169E-03    0.145E-03
RMM:  12    -0.413173215453E+03    0.39207E-05   -0.68067E-07  2444   0.136E-03    0.420E-04
RMM:  13    -0.413173213483E+03    0.19693E-05   -0.33768E-07  2021   0.972E-04    0.272E-04
RMM:  14    -0.413173212132E+03    0.13512E-05   -0.18737E-07  1529   0.770E-04    0.184E-04
RMM:  15    -0.413173209548E+03    0.25838E-05   -0.14588E-07  1303   0.714E-04    0.901E-05
RMM:  16    -0.413173207197E+03    0.23515E-05   -0.11562E-07  1298   0.681E-04    0.105E-04
RMM:  17    -0.413173205060E+03    0.21370E-05   -0.91610E-08  1274   0.646E-04    0.660E-05
RMM:  18    -0.413173202867E+03    0.21930E-05   -0.71799E-08  1133   0.604E-04    0.345E-05
RMM:  19    -0.413173202061E+03    0.80586E-06   -0.34607E-08   856   0.549E-04
   22 T=    62. E= -.41286646E+03 F= -.41317320E+03 E0= -.41315126E+03  EK= 0.30674E+00 SP= 0.00E+00 SK= 0.00E+00
       N       E                     dE             d eps       ncg     rms          rms(c)
RMM:   1    -0.413168277172E+03    0.49257E-02   -0.10415E+01  4296   0.752E-01    0.911E-01
RMM:   2    -0.413176402310E+03   -0.81251E-02   -0.12656E-01  4281   0.100E-01    0.642E-01
RMM:   3    -0.413174433167E+03    0.19691E-02   -0.98606E-03  4877   0.464E-02    0.154E-01
RMM:   4    -0.413209368539E+03   -0.34935E-01   -0.36715E-02  5141   0.159E-01    0.778E-01
RMM:   5    -0.413173724170E+03    0.35644E-01   -0.17381E-02  4786   0.131E-01    0.482E-02
RMM:   6    -0.413173931628E+03   -0.20746E-03   -0.29993E-03  5780   0.525E-02    0.305E-02
RMM:   7    -0.413173935944E+03   -0.43161E-05   -0.41424E-04  5748   0.184E-02    0.196E-02
RMM:   8    -0.413173926866E+03    0.90781E-05   -0.73495E-05  5136   0.877E-03    0.103E-02
RMM:   9    -0.413173918929E+03    0.79364E-05   -0.14987E-05  4156   0.440E-03    0.729E-03
RMM:  10    -0.413173914125E+03    0.48043E-05   -0.21265E-06  2588   0.218E-03    0.473E-03
RMM:  11    -0.413173909245E+03    0.48796E-05   -0.15104E-06  2518   0.195E-03    0.239E-03
RMM:  12    -0.413173902725E+03    0.65201E-05   -0.14738E-06  2516   0.192E-03    0.814E-04
RMM:  13    -0.413173901128E+03    0.15969E-05   -0.47339E-07  2303   0.123E-03    0.568E-04
RMM:  14    -0.413173900996E+03    0.13244E-06   -0.22393E-07  1829   0.838E-04
   23 T=    63. E= -.41286627E+03 F= -.41317390E+03 E0= -.41315201E+03  EK= 0.30763E+00 SP= 0.00E+00 SK= 0.00E+00
       N       E                     dE             d eps       ncg     rms          rms(c)
RMM:   1    -0.413174579957E+03   -0.67883E-03   -0.10464E+01  4296   0.810E-01    0.890E-01
RMM:   2    -0.413178465375E+03   -0.38854E-02   -0.13988E-01  4278   0.107E-01    0.650E-01
RMM:   3    -0.413175708568E+03    0.27568E-02   -0.91067E-03  4680   0.422E-02    0.140E-01
RMM:   4    -0.413194806581E+03   -0.19098E-01   -0.19677E-02  5147   0.117E-01    0.579E-01
RMM:   5    -0.413175406972E+03    0.19400E-01   -0.96538E-03  4807   0.964E-02    0.396E-02
RMM:   6    -0.413175512417E+03   -0.10545E-03   -0.16289E-03  5819   0.380E-02    0.242E-02
RMM:   7    -0.413175515531E+03   -0.31135E-05   -0.21377E-04  5712   0.141E-02    0.132E-02
RMM:   8    -0.413175512481E+03    0.30498E-05   -0.48914E-05  4947   0.717E-03    0.834E-03
RMM:   9    -0.413175508037E+03    0.44441E-05   -0.99520E-06  3776   0.372E-03    0.628E-03
RMM:  10    -0.413175506555E+03    0.14813E-05   -0.13109E-06  2529   0.195E-03    0.406E-03
RMM:  11    -0.413175504135E+03    0.24209E-05   -0.15690E-06  2532   0.201E-03    0.189E-03
RMM:  12    -0.413175501516E+03    0.26181E-05   -0.92828E-07  2444   0.154E-03    0.634E-04
RMM:  13    -0.413175501102E+03    0.41449E-06   -0.31568E-07  2059   0.968E-04
   24 T=    63. E= -.41286663E+03 F= -.41317550E+03 E0= -.41315365E+03  EK= 0.30888E+00 SP= 0.00E+00 SK= 0.00E+00
       N       E                     dE             d eps       ncg     rms          rms(c)
RMM:   1    -0.413179690961E+03   -0.41894E-02   -0.10586E+01  4297   0.829E-01    0.906E-01
RMM:   2    -0.413179360425E+03    0.33054E-03   -0.13679E-01  4277   0.107E-01    0.655E-01
RMM:   3    -0.413176648774E+03    0.27117E-02   -0.94882E-03  4640   0.438E-02    0.136E-01
RMM:   4    -0.413193109695E+03   -0.16461E-01   -0.16966E-02  5144   0.109E-01    0.539E-01
RMM:   5    -0.413176390045E+03    0.16720E-01   -0.82980E-03  4810   0.893E-02    0.390E-02
RMM:   6    -0.413176469939E+03   -0.79894E-04   -0.14165E-03  5821   0.350E-02    0.230E-02
RMM:   7    -0.413176474745E+03   -0.48064E-05   -0.17453E-04  5649   0.128E-02    0.113E-02
RMM:   8    -0.413176467232E+03    0.75127E-05   -0.34514E-05  4804   0.608E-03    0.741E-03
RMM:   9    -0.413176466197E+03    0.10351E-05   -0.86204E-06  3612   0.341E-03    0.616E-03
RMM:  10    -0.413176463251E+03    0.29461E-05   -0.11540E-06  2519   0.192E-03    0.387E-03
RMM:  11    -0.413176459905E+03    0.33461E-05   -0.12461E-06  2506   0.181E-03    0.195E-03
RMM:  12    -0.413176456048E+03    0.38570E-05   -0.88111E-07  2431   0.151E-03    0.637E-04
RMM:  13    -0.413176455049E+03    0.99904E-06   -0.30872E-07  2060   0.962E-04
   25 T=    63. E= -.41286644E+03 F= -.41317646E+03 E0= -.41315466E+03  EK= 0.31001E+00 SP= 0.00E+00 SK= 0.00E+00
       N       E                     dE             d eps       ncg     rms          rms(c)
RMM:   1    -0.413172367235E+03    0.40888E-02   -0.10506E+01  4295   0.771E-01    0.920E-01
RMM:   2    -0.413180142049E+03   -0.77748E-02   -0.12795E-01  4277   0.104E-01    0.647E-01
RMM:   3    -0.413177902158E+03    0.22399E-02   -0.98363E-03  4572   0.440E-02    0.133E-01
RMM:   4    -0.413192025178E+03   -0.14123E-01   -0.14431E-02  5143   0.101E-01    0.499E-01
RMM:   5    -0.413177757304E+03    0.14268E-01   -0.71819E-03  4823   0.824E-02    0.389E-02
RMM:   6    -0.413177809905E+03   -0.52600E-04   -0.11843E-03  5819   0.323E-02    0.223E-02
RMM:   7    -0.413177805783E+03    0.41213E-05   -0.14876E-04  5585   0.122E-02    0.110E-02
RMM:   8    -0.413177796365E+03    0.94180E-05   -0.28707E-05  4687   0.562E-03    0.717E-03
RMM:   9    -0.413177793458E+03    0.29070E-05   -0.65810E-06  3302   0.310E-03    0.582E-03
RMM:  10    -0.413177788415E+03    0.50435E-05   -0.10572E-06  2507   0.187E-03    0.348E-03
RMM:  11    -0.413177781258E+03    0.71565E-05   -0.11899E-06  2501   0.179E-03    0.171E-03
RMM:  12    -0.413177774318E+03    0.69409E-05   -0.70881E-07  2388   0.138E-03    0.635E-04
RMM:  13    -0.413177772893E+03    0.14242E-05   -0.26544E-07  1973   0.900E-04    0.422E-04
RMM:  14    -0.413177771698E+03    0.11952E-05   -0.12446E-07  1354   0.692E-04    0.345E-04
RMM:  15    -0.413177766342E+03    0.53565E-05   -0.17058E-07  1920   0.782E-04    0.344E-04
RMM:  16    -0.413177765030E+03    0.13118E-05   -0.50498E-08   948   0.571E-04    0.242E-04
RMM:  17    -0.413177761821E+03    0.32088E-05   -0.53467E-08   975   0.584E-04    0.177E-04
RMM:  18    -0.413177759912E+03    0.19086E-05   -0.37841E-08   879   0.563E-04    0.520E-05
RMM:  19    -0.413177758061E+03    0.18515E-05   -0.36211E-08   948   0.580E-04    0.502E-05
RMM:  20    -0.413177757893E+03    0.16804E-06   -0.11645E-08   676   0.534E-04
   26 T=    63. E= -.41286644E+03 F= -.41317776E+03 E0= -.41315601E+03  EK= 0.31131E+00 SP= 0.00E+00 SK= 0.00E+00
       N       E                     dE             d eps       ncg     rms          rms(c)
RMM:   1    -0.413174110811E+03    0.36472E-02   -0.10470E+01  4292   0.796E-01    0.897E-01
RMM:   2    -0.413182063757E+03   -0.79529E-02   -0.12926E-01  4276   0.104E-01    0.649E-01
RMM:   3    -0.413179756359E+03    0.23074E-02   -0.98234E-03  4713   0.463E-02    0.133E-01
RMM:   4    -0.413203637562E+03   -0.23881E-01   -0.24455E-02  5148   0.130E-01    0.645E-01
RMM:   5    -0.413179382802E+03    0.24255E-01   -0.12149E-02  4814   0.108E-01    0.418E-02
RMM:   6    -0.413179509818E+03   -0.12702E-03   -0.19537E-03  5826   0.421E-02    0.260E-02
RMM:   7    -0.413179513655E+03   -0.38372E-05   -0.25145E-04  5710   0.153E-02    0.143E-02
RMM:   8    -0.413179510225E+03    0.34306E-05   -0.56218E-05  4995   0.759E-03    0.902E-03
RMM:   9    -0.413179504715E+03    0.55099E-05   -0.11800E-05  3978   0.399E-03    0.657E-03
RMM:  10    -0.413179502412E+03    0.23033E-05   -0.15410E-06  2544   0.205E-03    0.422E-03
RMM:  11    -0.413179499345E+03    0.30666E-05   -0.15536E-06  2526   0.199E-03    0.201E-03
RMM:  12    -0.413179495766E+03    0.35794E-05   -0.10875E-06  2478   0.167E-03    0.685E-04
RMM:  13    -0.413179495038E+03    0.72708E-06   -0.36295E-07  2156   0.105E-03
   27 T=    64. E= -.41286665E+03 F= -.41317950E+03 E0= -.41315780E+03  EK= 0.31284E+00 SP= 0.00E+00 SK= 0.00E+00
       N       E                     dE             d eps       ncg     rms          rms(c)
RMM:   1    -0.413178046403E+03    0.14494E-02   -0.10609E+01  4292   0.842E-01    0.906E-01
RMM:   2    -0.413183439705E+03   -0.53933E-02   -0.13624E-01  4272   0.111E-01    0.661E-01
RMM:   3    -0.413180728206E+03    0.27115E-02   -0.98533E-03  4464   0.444E-02    0.124E-01
RMM:   4    -0.413189009599E+03   -0.82814E-02   -0.87502E-03  5150   0.791E-02    0.384E-01
RMM:   5    -0.413180641181E+03    0.83684E-02   -0.41944E-03  4825   0.631E-02    0.354E-02
RMM:   6    -0.413180669646E+03   -0.28465E-04   -0.74654E-04  5823   0.256E-02    0.215E-02
RMM:   7    -0.413180673883E+03   -0.42370E-05   -0.19358E-04  5437   0.137E-02    0.148E-02
RMM:   8    -0.413180659003E+03    0.14880E-04   -0.21674E-05  4362   0.578E-03    0.606E-03
RMM:   9    -0.413180657353E+03    0.16502E-05   -0.46908E-06  2974   0.271E-03    0.442E-03
RMM:  10    -0.413180655176E+03    0.21774E-05   -0.13068E-06  2488   0.193E-03    0.251E-03
RMM:  11    -0.413180652365E+03    0.28109E-05   -0.84807E-07  2465   0.156E-03    0.120E-03
RMM:  12    -0.413180649922E+03    0.24430E-05   -0.43859E-07  2241   0.112E-03    0.537E-04
RMM:  13    -0.413180648829E+03    0.10934E-05   -0.20838E-07  1703   0.802E-04    0.256E-04
RMM:  14    -0.413180647244E+03    0.15842E-05   -0.12663E-07  1328   0.700E-04    0.179E-04
RMM:  15    -0.413180644274E+03    0.29701E-05   -0.11620E-07  1323   0.688E-04    0.933E-05
RMM:  16    -0.413180643630E+03    0.64418E-06   -0.47913E-08   909   0.593E-04
   28 T=    64. E= -.41286633E+03 F= -.41318064E+03 E0= -.41315900E+03  EK= 0.31432E+00 SP= 0.00E+00 SK= 0.00E+00
       N       E                     dE             d eps       ncg     rms          rms(c)
RMM:   1    -0.413177367586E+03    0.32767E-02   -0.10614E+01  4292   0.794E-01    0.928E-01
RMM:   2    -0.413185143784E+03   -0.77762E-02   -0.13017E-01  4273   0.107E-01    0.654E-01
RMM:   3    -0.413182791471E+03    0.23523E-02   -0.10273E-02  4588   0.471E-02    0.136E-01
RMM:   4    -0.413198585384E+03   -0.15794E-01   -0.16049E-02  5158   0.106E-01    0.527E-01
RMM:   5    -0.413182639361E+03    0.15946E-01   -0.80251E-03  4815   0.870E-02    0.400E-02
RMM:   6    -0.413182701715E+03   -0.62354E-04   -0.13182E-03  5852   0.341E-02    0.241E-02
RMM:   7    -0.413182702280E+03   -0.56512E-06   -0.18954E-04  5585   0.137E-02    0.130E-02
RMM:   8    -0.413182690358E+03    0.11922E-04   -0.35485E-05  4793   0.637E-03    0.751E-03
RMM:   9    -0.413182687427E+03    0.29306E-05   -0.81271E-06  3544   0.340E-03    0.599E-03
RMM:  10    -0.413182682094E+03    0.53339E-05   -0.11678E-06  2512   0.196E-03    0.353E-03
RMM:  11    -0.413182676410E+03    0.56836E-05   -0.98831E-07  2495   0.166E-03    0.182E-03
RMM:  12    -0.413182669544E+03    0.68663E-05   -0.85739E-07  2450   0.149E-03    0.800E-04
RMM:  13    -0.413182667516E+03    0.20272E-05   -0.30777E-07  2105   0.981E-04    0.430E-04
RMM:  14    -0.413182666319E+03    0.11977E-05   -0.14060E-07  1440   0.715E-04    0.342E-04
RMM:  15    -0.413182662179E+03    0.41398E-05   -0.12153E-07  1537   0.717E-04    0.167E-04
RMM:  16    -0.413182660136E+03    0.20426E-05   -0.58739E-08  1072   0.611E-04    0.153E-04
RMM:  17    -0.413182657597E+03    0.25398E-05   -0.48552E-08  1016   0.592E-04    0.130E-04
RMM:  18    -0.413182654352E+03    0.32443E-05   -0.50528E-08  1062   0.590E-04    0.585E-05
RMM:  19    -0.413182653459E+03    0.89296E-06   -0.20803E-08   756   0.532E-04
   29 T=    64. E= -.41286651E+03 F= -.41318265E+03 E0= -.41316106E+03  EK= 0.31614E+00 SP= 0.00E+00 SK= 0.00E+00
       N       E                     dE             d eps       ncg     rms          rms(c)
RMM:   1    -0.413178793538E+03    0.38608E-02   -0.10562E+01  4289   0.802E-01    0.907E-01
RMM:   2    -0.413187372344E+03   -0.85788E-02   -0.13135E-01  4272   0.113E-01    0.652E-01
RMM:   3    -0.413184676276E+03    0.26961E-02   -0.10066E-02  4443   0.493E-02    0.126E-01
RMM:   4    -0.413192760261E+03   -0.80840E-02   -0.85654E-03  5154   0.779E-02    0.380E-01
RMM:   5    -0.413184588761E+03    0.81715E-02   -0.41394E-03  4828   0.624E-02    0.365E-02
RMM:   6    -0.413184613943E+03   -0.25183E-04   -0.76776E-04  5814   0.258E-02    0.234E-02
RMM:   7    -0.413184613007E+03    0.93659E-06   -0.20879E-04  5381   0.142E-02    0.150E-02
RMM:   8    -0.413184598298E+03    0.14709E-04   -0.21685E-05  4407   0.585E-03    0.644E-03
RMM:   9    -0.413184596069E+03    0.22294E-05   -0.39416E-06  2864   0.258E-03    0.456E-03
RMM:  10    -0.413184592426E+03    0.36430E-05   -0.13092E-06  2495   0.188E-03    0.251E-03
RMM:  11    -0.413184588511E+03    0.39150E-05   -0.83114E-07  2461   0.153E-03    0.121E-03
RMM:  12    -0.413184585164E+03    0.33462E-05   -0.45600E-07  2258   0.114E-03    0.577E-04
RMM:  13    -0.413184583602E+03    0.15621E-05   -0.21605E-07  1755   0.820E-04    0.256E-04
RMM:  14    -0.413184581532E+03    0.20705E-05   -0.12296E-07  1306   0.692E-04    0.155E-04
RMM:  15    -0.413184578691E+03    0.28411E-05   -0.86584E-08  1140   0.655E-04    0.702E-05
RMM:  16    -0.413184577333E+03    0.13581E-05   -0.51146E-08   956   0.608E-04    0.575E-05
RMM:  17    -0.413184575064E+03    0.22684E-05   -0.52241E-08  1051   0.609E-04    0.377E-05
RMM:  18    -0.413184573043E+03    0.20216E-05   -0.43385E-08  1025   0.587E-04    0.279E-05
RMM:  19    -0.413184572520E+03    0.52271E-06   -0.17341E-08   715   0.534E-04
   30 T=    65. E= -.41286663E+03 F= -.41318457E+03 E0= -.41316303E+03  EK= 0.31794E+00 SP= 0.00E+00 SK= 0.00E+00
       N       E                     dE             d eps       ncg     rms          rms(c)
RMM:   1    -0.413186731555E+03   -0.21585E-02   -0.10743E+01  4292   0.869E-01    0.907E-01
RMM:   2    -0.413189639249E+03   -0.29077E-02   -0.14760E-01  4275   0.123E-01    0.667E-01
RMM:   3    -0.413186201260E+03    0.34380E-02   -0.98468E-03  4390   0.504E-02    0.136E-01
RMM:   4    -0.413191843652E+03   -0.56424E-02   -0.63401E-03  5148   0.675E-02    0.316E-01
RMM:   5    -0.413186210152E+03    0.56335E-02   -0.28205E-03  4819   0.519E-02    0.350E-02
RMM:   6    -0.413186229634E+03   -0.19481E-04   -0.56913E-04  5783   0.226E-02    0.232E-02
RMM:   7    -0.413186227691E+03    0.19422E-05   -0.19558E-04  5280   0.137E-02    0.141E-02
RMM:   8    -0.413186216464E+03    0.11227E-04   -0.16325E-05  4160   0.529E-03    0.603E-03
RMM:   9    -0.413186215242E+03    0.12227E-05   -0.27477E-06  2707   0.227E-03    0.392E-03
RMM:  10    -0.413186213085E+03    0.21563E-05   -0.12013E-06  2483   0.176E-03    0.206E-03
RMM:  11    -0.413186211039E+03    0.20460E-05   -0.69704E-07  2427   0.137E-03    0.963E-04
RMM:  12    -0.413186209182E+03    0.18573E-05   -0.36649E-07  2108   0.101E-03    0.443E-04
RMM:  13    -0.413186208024E+03    0.11579E-05   -0.18254E-07  1540   0.758E-04    0.232E-04
RMM:  14    -0.413186206552E+03    0.14724E-05   -0.10928E-07  1170   0.669E-04    0.142E-04
RMM:  15    -0.413186204353E+03    0.21985E-05   -0.88693E-08  1099   0.651E-04    0.693E-05
RMM:  16    -0.413186203538E+03    0.81522E-06   -0.45234E-08   902   0.596E-04
   31 T=    65. E= -.41286643E+03 F= -.41318620E+03 E0= -.41316471E+03  EK= 0.31978E+00 SP= 0.00E+00 SK= 0.00E+00
       N       E                     dE             d eps       ncg     rms          rms(c)
RMM:   1    -0.413183662627E+03    0.25417E-02   -0.10739E+01  4292   0.832E-01    0.934E-01
RMM:   2    -0.413191655093E+03   -0.79925E-02   -0.13408E-01  4282   0.122E-01    0.662E-01
RMM:   3    -0.413188886709E+03    0.27684E-02   -0.10582E-02  4396   0.538E-02    0.130E-01
RMM:   4    -0.413194388308E+03   -0.55016E-02   -0.60910E-03  5165   0.660E-02    0.313E-01
RMM:   5    -0.413188866887E+03    0.55214E-02   -0.28125E-03  4825   0.517E-02    0.369E-02
RMM:   6    -0.413188885953E+03   -0.19066E-04   -0.60497E-04  5765   0.234E-02    0.257E-02
RMM:   7    -0.413188870828E+03    0.15125E-04   -0.21311E-04  5254   0.144E-02    0.144E-02
RMM:   8    -0.413188859547E+03    0.11280E-04   -0.16215E-05  4104   0.521E-03    0.616E-03
RMM:   9    -0.413188856558E+03    0.29894E-05   -0.24818E-06  2660   0.220E-03    0.398E-03
RMM:  10    -0.413188850562E+03    0.59952E-05   -0.11367E-06  2479   0.174E-03    0.204E-03
RMM:  11    -0.413188845327E+03    0.52358E-05   -0.65523E-07  2411   0.133E-03    0.978E-04
RMM:  12    -0.413188840693E+03    0.46341E-05   -0.36163E-07  2113   0.102E-03    0.421E-04
RMM:  13    -0.413188838025E+03    0.26678E-05   -0.18961E-07  1582   0.777E-04    0.224E-04
RMM:  14    -0.413188834765E+03    0.32603E-05   -0.10594E-07  1193   0.674E-04    0.140E-04
RMM:  15    -0.413188830110E+03    0.46542E-05   -0.91760E-08  1231   0.664E-04    0.758E-05
RMM:  16    -0.413188828339E+03    0.17715E-05   -0.50425E-08   997   0.598E-04    0.655E-05
RMM:  17    -0.413188824645E+03    0.36933E-05   -0.58364E-08  1136   0.610E-04    0.325E-05
RMM:  18    -0.413188822865E+03    0.17805E-05   -0.32824E-08   917   0.557E-04    0.216E-05
RMM:  19    -0.413188822510E+03    0.35541E-06   -0.13531E-08   665   0.518E-04
   32 T=    66. E= -.41286679E+03 F= -.41318882E+03 E0= -.41316737E+03  EK= 0.32203E+00 SP= 0.00E+00 SK= 0.00E+00
       N       E                     dE             d eps       ncg     rms          rms(c)
RMM:   1    -0.413185329206E+03    0.34937E-02   -0.10703E+01  4291   0.845E-01    0.921E-01
RMM:   2    -0.413193676536E+03   -0.83473E-02   -0.13487E-01  4282   0.127E-01    0.658E-01
RMM:   3    -0.413190675215E+03    0.30013E-02   -0.10320E-02  4227   0.504E-02    0.129E-01
RMM:   4    -0.413190937875E+03   -0.26266E-03   -0.11232E-03  4918   0.249E-02    0.606E-02
RMM:   5    -0.413190803451E+03    0.13442E-03   -0.15069E-04  4761   0.123E-02    0.388E-02
RMM:   6    -0.413190792154E+03    0.11297E-04   -0.21804E-04  5254   0.147E-02    0.258E-02
RMM:   7    -0.413190765528E+03    0.26626E-04   -0.16028E-04  4807   0.119E-02    0.139E-02
RMM:   8    -0.413190761675E+03    0.38527E-05   -0.13300E-05  3669   0.422E-03    0.482E-03
RMM:   9    -0.413190760405E+03    0.12705E-05   -0.23578E-06  2367   0.196E-03    0.200E-03
RMM:  10    -0.413190752792E+03    0.76122E-05   -0.80337E-07  2286   0.134E-03    0.700E-04
RMM:  11    -0.413190749094E+03    0.36980E-05   -0.22540E-07  1606   0.808E-04    0.313E-04
RMM:  12    -0.413190745464E+03    0.36304E-05   -0.14804E-07  1455   0.724E-04    0.183E-04
RMM:  13    -0.413190741755E+03    0.37089E-05   -0.87235E-08  1083   0.642E-04    0.103E-04
RMM:  14    -0.413190737412E+03    0.43435E-05   -0.59592E-08   899   0.609E-04    0.850E-05
RMM:  15    -0.413190734223E+03    0.31884E-05   -0.41015E-08   822   0.579E-04    0.431E-05
RMM:  16    -0.413190731295E+03    0.29288E-05   -0.35880E-08   840   0.572E-04    0.365E-05
RMM:  17    -0.413190730533E+03    0.76139E-06   -0.13213E-08   559   0.516E-04
   33 T=    66. E= -.41286660E+03 F= -.41319073E+03 E0= -.41316933E+03  EK= 0.32413E+00 SP= 0.00E+00 SK= 0.00E+00
       N       E                     dE             d eps       ncg     rms          rms(c)
RMM:   1    -0.413193938341E+03   -0.32070E-02   -0.10868E+01  4298   0.931E-01    0.913E-01
RMM:   2    -0.413196254622E+03   -0.23163E-02   -0.14933E-01  4278   0.137E-01    0.672E-01
RMM:   3    -0.413193144045E+03    0.31106E-02   -0.10200E-02  4240   0.562E-02    0.133E-01
RMM:   4    -0.413193859451E+03   -0.71541E-03   -0.16731E-03  5062   0.332E-02    0.113E-01
RMM:   5    -0.413193200667E+03    0.65878E-03   -0.36694E-04  4743   0.196E-02    0.348E-02
RMM:   6    -0.413193204963E+03   -0.42966E-05   -0.23553E-04  5433   0.155E-02    0.244E-02
RMM:   7    -0.413193187990E+03    0.16973E-04   -0.16680E-04  4881   0.123E-02    0.151E-02
RMM:   8    -0.413193182765E+03    0.52252E-05   -0.13634E-05  3618   0.430E-03    0.526E-03
RMM:   9    -0.413193182132E+03    0.63263E-06   -0.22764E-06  2435   0.197E-03
   34 T=    66. E= -.41286663E+03 F= -.41319318E+03 E0= -.41317183E+03  EK= 0.32655E+00 SP= 0.00E+00 SK= 0.00E+00
       N       E                     dE             d eps       ncg     rms          rms(c)
RMM:   1    -0.413191386391E+03    0.17964E-02   -0.10897E+01  4301   0.888E-01    0.938E-01
RMM:   2    -0.413198671117E+03   -0.72847E-02   -0.13998E-01  4267   0.130E-01    0.671E-01
RMM:   3    -0.413195847231E+03    0.28239E-02   -0.10627E-02  4305   0.549E-02    0.130E-01
RMM:   4    -0.413196217943E+03   -0.37071E-03   -0.13500E-03  5076   0.267E-02    0.806E-02
RMM:   5    -0.413195916631E+03    0.30131E-03   -0.23580E-04  4784   0.157E-02    0.398E-02
RMM:   6    -0.413195897480E+03    0.19151E-04   -0.21310E-04  5273   0.149E-02    0.279E-02
RMM:   7    -0.413195874895E+03    0.22585E-04   -0.18090E-04  4737   0.117E-02    0.158E-02
RMM:   8    -0.413195869103E+03    0.57920E-05   -0.13228E-05  3767   0.434E-03    0.603E-03
RMM:   9    -0.413195867704E+03    0.13990E-05   -0.32504E-06  2353   0.192E-03    0.222E-03
RMM:  10    -0.413195856635E+03    0.11069E-04   -0.11497E-06  2278   0.148E-03    0.601E-04
RMM:  11    -0.413195852445E+03    0.41898E-05   -0.29319E-07  1761   0.898E-04    0.314E-04
RMM:  12    -0.413195849120E+03    0.33254E-05   -0.15302E-07  1399   0.734E-04    0.224E-04
RMM:  13    -0.413195843141E+03    0.59795E-05   -0.99756E-08  1021   0.652E-04    0.113E-04
RMM:  14    -0.413195837126E+03    0.60145E-05   -0.82954E-08  1074   0.645E-04    0.131E-04
RMM:  15    -0.413195832802E+03    0.43236E-05   -0.61099E-08  1009   0.600E-04    0.117E-04
RMM:  16    -0.413195829762E+03    0.30408E-05   -0.35586E-08   725   0.546E-04    0.362E-05
RMM:  17    -0.413195828932E+03    0.82932E-06   -0.14533E-08   541   0.510E-04
   35 T=    67. E= -.41286674E+03 F= -.41319583E+03 E0= -.41317452E+03  EK= 0.32909E+00 SP= 0.00E+00 SK= 0.00E+00
       N       E                     dE             d eps       ncg     rms          rms(c)
RMM:   1    -0.413193052393E+03    0.27774E-02   -0.10887E+01  4299   0.909E-01    0.937E-01
RMM:   2    -0.413200423754E+03   -0.73714E-02   -0.14018E-01  4258   0.131E-01    0.666E-01
RMM:   3    -0.413198003202E+03    0.24206E-02   -0.10760E-02  4621   0.560E-02    0.147E-01
RMM:   4    -0.413219242907E+03   -0.21240E-01   -0.21511E-02  5165   0.123E-01    0.611E-01
RMM:   5    -0.413197811941E+03    0.21431E-01   -0.10865E-02  4808   0.101E-01    0.438E-02
RMM:   6    -0.413197836599E+03   -0.24658E-04   -0.17976E-03  5838   0.404E-02    0.281E-02
RMM:   7    -0.413197846998E+03   -0.10399E-04   -0.29230E-04  5594   0.164E-02    0.166E-02
RMM:   8    -0.413197832234E+03    0.14764E-04   -0.52797E-05  4978   0.786E-03    0.861E-03
RMM:   9    -0.413197829074E+03    0.31592E-05   -0.11657E-05  3921   0.409E-03    0.613E-03
RMM:  10    -0.413197822966E+03    0.61080E-05   -0.16037E-06  2556   0.217E-03    0.352E-03
RMM:  11    -0.413197818317E+03    0.46499E-05   -0.92136E-07  2489   0.158E-03    0.204E-03
RMM:  12    -0.413197809349E+03    0.89676E-05   -0.11308E-06  2491   0.174E-03    0.984E-04
RMM:  13    -0.413197805516E+03    0.38334E-05   -0.42261E-07  2233   0.114E-03    0.547E-04
RMM:  14    -0.413197804783E+03    0.73305E-06   -0.18835E-07  1676   0.786E-04
   36 T=    67. E= -.41286635E+03 F= -.41319780E+03 E0= -.41317654E+03  EK= 0.33145E+00 SP= 0.00E+00 SK= 0.00E+00
       N       E                     dE             d eps       ncg     rms          rms(c)
RMM:   1    -0.413216470533E+03   -0.18665E-01   -0.11155E+01  4306   0.108E+00    0.920E-01
RMM:   2    -0.413204272548E+03    0.12198E-01   -0.16381E-01  4257   0.143E-01    0.678E-01
RMM:   3    -0.413201056030E+03    0.32165E-02   -0.99269E-03  4596   0.555E-02    0.162E-01
RMM:   4    -0.413220227647E+03   -0.19172E-01   -0.19658E-02  5163   0.119E-01    0.581E-01
RMM:   5    -0.413200883417E+03    0.19344E-01   -0.97519E-03  4804   0.964E-02    0.428E-02
RMM:   6    -0.413200900345E+03   -0.16928E-04   -0.16292E-03  5843   0.383E-02    0.275E-02
RMM:   7    -0.413200911740E+03   -0.11395E-04   -0.28145E-04  5581   0.159E-02    0.163E-02
RMM:   8    -0.413200897773E+03    0.13967E-04   -0.53087E-05  4969   0.790E-03    0.804E-03
RMM:   9    -0.413200895851E+03    0.19222E-05   -0.10565E-05  3803   0.398E-03    0.553E-03
RMM:  10    -0.413200891801E+03    0.40504E-05   -0.14946E-06  2552   0.206E-03    0.327E-03
RMM:  11    -0.413200888205E+03    0.35959E-05   -0.90529E-07  2491   0.155E-03    0.180E-03
RMM:  12    -0.413200882276E+03    0.59292E-05   -0.98049E-07  2475   0.156E-03    0.840E-04
RMM:  13    -0.413200879714E+03    0.25617E-05   -0.37249E-07  2153   0.105E-03    0.467E-04
RMM:  14    -0.413200878959E+03    0.75543E-06   -0.16804E-07  1494   0.745E-04
   37 T=    68. E= -.41286667E+03 F= -.41320088E+03 E0= -.41317966E+03  EK= 0.33421E+00 SP= 0.00E+00 SK= 0.00E+00
       N       E                     dE             d eps       ncg     rms          rms(c)
RMM:   1    -0.413214147760E+03   -0.13268E-01   -0.11215E+01  4308   0.108E+00    0.941E-01
RMM:   2    -0.413206926596E+03    0.72212E-02   -0.15597E-01  4258   0.134E-01    0.682E-01
RMM:   3    -0.413203594821E+03    0.33318E-02   -0.10693E-02  4738   0.551E-02    0.162E-01
RMM:   4    -0.413233827856E+03   -0.30233E-01   -0.30844E-02  5148   0.147E-01    0.725E-01
RMM:   5    -0.413203232050E+03    0.30596E-01   -0.15557E-02  4803   0.121E-01    0.473E-02
RMM:   6    -0.413203284802E+03   -0.52752E-04   -0.24547E-03  5845   0.469E-02    0.298E-02
RMM:   7    -0.413203297311E+03   -0.12509E-04   -0.34272E-04  5710   0.172E-02    0.167E-02
RMM:   8    -0.413203286662E+03    0.10649E-04   -0.65522E-05  5047   0.842E-03    0.971E-03
RMM:   9    -0.413203283538E+03    0.31240E-05   -0.17253E-05  4403   0.479E-03    0.644E-03
RMM:  10    -0.413203278046E+03    0.54913E-05   -0.23135E-06  2626   0.237E-03    0.385E-03
RMM:  11    -0.413203274264E+03    0.37827E-05   -0.11369E-06  2497   0.172E-03    0.230E-03
RMM:  12    -0.413203265741E+03    0.85224E-05   -0.14044E-06  2508   0.193E-03    0.108E-03
RMM:  13    -0.413203261924E+03    0.38169E-05   -0.51933E-07  2331   0.127E-03    0.699E-04
RMM:  14    -0.413203261654E+03    0.27072E-06   -0.21873E-07  1847   0.836E-04
   38 T=    69. E= -.41286648E+03 F= -.41320326E+03 E0= -.41318209E+03  EK= 0.33678E+00 SP= 0.00E+00 SK= 0.00E+00
       N       E                     dE             d eps       ncg     rms          rms(c)
RMM:   1    -0.413203008604E+03    0.25332E-03   -0.11101E+01  4308   0.102E+00    0.954E-01
RMM:   2    -0.413209196698E+03   -0.61881E-02   -0.14579E-01  4258   0.124E-01    0.675E-01
RMM:   3    -0.413206406778E+03    0.27899E-02   -0.11267E-02  4896   0.541E-02    0.174E-01
RMM:   4    -0.413247636047E+03   -0.41229E-01   -0.43214E-02  5136   0.173E-01    0.843E-01
RMM:   5    -0.413205747485E+03    0.41889E-01   -0.20980E-02  4801   0.141E-01    0.528E-02
RMM:   6    -0.413205854010E+03   -0.10652E-03   -0.33811E-03  5829   0.543E-02    0.323E-02
RMM:   7    -0.413205864390E+03   -0.10380E-04   -0.39875E-04  5697   0.182E-02    0.168E-02
RMM:   8    -0.413205854775E+03    0.96152E-05   -0.51028E-05  4832   0.717E-03    0.885E-03
RMM:   9    -0.413205851968E+03    0.28071E-05   -0.19731E-05  4378   0.451E-03    0.740E-03
RMM:  10    -0.413205844770E+03    0.71984E-05   -0.37126E-06  2818   0.272E-03    0.426E-03
RMM:  11    -0.413205838908E+03    0.58620E-05   -0.17566E-06  2534   0.208E-03    0.251E-03
RMM:  12    -0.413205826866E+03    0.12041E-04   -0.17383E-06  2523   0.217E-03    0.113E-03
RMM:  13    -0.413205823403E+03    0.34630E-05   -0.51608E-07  2400   0.136E-03    0.707E-04
RMM:  14    -0.413205823360E+03    0.42863E-07   -0.22293E-07  1927   0.859E-04
   39 T=    69. E= -.41286647E+03 F= -.41320582E+03 E0= -.41318469E+03  EK= 0.33935E+00 SP= 0.00E+00 SK= 0.00E+00
       N       E                     dE             d eps       ncg     rms          rms(c)
RMM:   1    -0.413218486035E+03   -0.12663E-01   -0.11235E+01  4308   0.115E+00    0.932E-01
RMM:   2    -0.413212545787E+03    0.59402E-02   -0.16234E-01  4261   0.135E-01    0.682E-01
RMM:   3    -0.413209604906E+03    0.29409E-02   -0.10789E-02  4956   0.568E-02    0.200E-01
RMM:   4    -0.413260931136E+03   -0.51326E-01   -0.55383E-02  5130   0.196E-01    0.938E-01
RMM:   5    -0.413208507500E+03    0.52424E-01   -0.25950E-02  4786   0.158E-01    0.569E-02
RMM:   6    -0.413208664638E+03   -0.15714E-03   -0.41696E-03  5825   0.604E-02    0.334E-02
RMM:   7    -0.413208681054E+03   -0.16416E-04   -0.48452E-04  5801   0.197E-02    0.190E-02
RMM:   8    -0.413208682255E+03   -0.12015E-05   -0.98074E-05  5210   0.954E-03    0.124E-02
RMM:   9    -0.413208671361E+03    0.10894E-04   -0.27761E-05  4709   0.575E-03    0.697E-03
RMM:  10    -0.413208666857E+03    0.45045E-05   -0.43844E-06  2804   0.291E-03    0.426E-03
RMM:  11    -0.413208662991E+03    0.38653E-05   -0.16481E-06  2502   0.210E-03    0.253E-03
RMM:  12    -0.413208655208E+03    0.77837E-05   -0.14378E-06  2501   0.202E-03    0.879E-04
RMM:  13    -0.413208651311E+03    0.38970E-05   -0.60623E-07  2391   0.137E-03    0.652E-04
RMM:  14    -0.413208650623E+03    0.68785E-06   -0.26282E-07  1992   0.913E-04
   40 T=    70. E= -.41286673E+03 F= -.41320865E+03 E0= -.41318755E+03  EK= 0.34192E+00 SP= 0.00E+00 SK= 0.00E+00
       N       E                     dE             d eps       ncg     rms          rms(c)
RMM:   1    -0.413231598372E+03   -0.22947E-01   -0.11471E+01  4311   0.123E+00    0.943E-01
RMM:   2    -0.413214532567E+03    0.17066E-01   -0.18159E-01  4266   0.145E-01    0.694E-01
RMM:   3    -0.413212147651E+03    0.23849E-02   -0.10925E-02  5022   0.610E-02    0.246E-01
RMM:   4    -0.413270476314E+03   -0.58329E-01   -0.66119E-02  5130   0.214E-01    0.100E+00
RMM:   5    -0.413210362630E+03    0.60114E-01   -0.29295E-02  4779   0.169E-01    0.619E-02
RMM:   6    -0.413210554044E+03   -0.19141E-03   -0.47818E-03  5815   0.647E-02    0.348E-02
RMM:   7    -0.413210574602E+03   -0.20558E-04   -0.57632E-04  5854   0.211E-02    0.224E-02
RMM:   8    -0.413210575453E+03   -0.85169E-06   -0.12927E-04  5288   0.111E-02    0.139E-02
RMM:   9    -0.413210561815E+03    0.13638E-04   -0.27978E-05  4686   0.614E-03    0.636E-03
RMM:  10    -0.413210557621E+03    0.41941E-05   -0.58970E-06  3012   0.304E-03    0.399E-03
RMM:  11    -0.413210554047E+03    0.35741E-05   -0.15521E-06  2508   0.205E-03    0.236E-03
RMM:  12    -0.413210547439E+03    0.66083E-05   -0.11766E-06  2488   0.184E-03    0.779E-04
RMM:  13    -0.413210543730E+03    0.37086E-05   -0.55378E-07  2370   0.130E-03    0.496E-04
RMM:  14    -0.413210542623E+03    0.11076E-05   -0.26274E-07  1986   0.905E-04    0.344E-04
RMM:  15    -0.413210540364E+03    0.22582E-05   -0.13936E-07  1430   0.718E-04    0.163E-04
RMM:  16    -0.413210536330E+03    0.40342E-05   -0.10651E-07  1256   0.681E-04    0.142E-04
RMM:  17    -0.413210534752E+03    0.15782E-05   -0.58730E-08  1006   0.615E-04    0.794E-05
RMM:  18    -0.413210531197E+03    0.35547E-05   -0.64209E-08  1224   0.643E-04    0.897E-05
RMM:  19    -0.413210529501E+03    0.16961E-05   -0.36738E-08   984   0.587E-04    0.480E-05
RMM:  20    -0.413210528578E+03    0.92338E-06   -0.25212E-08   880   0.561E-04
   41 T=    70. E= -.41286647E+03 F= -.41321053E+03 E0= -.41318946E+03  EK= 0.34406E+00 SP= 0.00E+00 SK= 0.00E+00
       N       E                     dE             d eps       ncg     rms          rms(c)
RMM:   1    -0.413222012455E+03   -0.11483E-01   -0.11372E+01  4311   0.122E+00    0.968E-01
RMM:   2    -0.413216228036E+03    0.57844E-02   -0.15139E-01  4285   0.138E-01    0.685E-01
RMM:   3    -0.413216535453E+03   -0.30742E-03   -0.14201E-02  5074   0.753E-02    0.292E-01
RMM:   4    -0.413253630689E+03   -0.37095E-01   -0.52661E-02  5089   0.193E-01    0.832E-01
RMM:   5    -0.413212927214E+03    0.40703E-01   -0.18151E-02  4743   0.138E-01    0.589E-02
RMM:   6    -0.413213004036E+03   -0.76823E-04   -0.31765E-03  5762   0.533E-02    0.337E-02
RMM:   7    -0.413213012404E+03   -0.83673E-05   -0.44832E-04  5775   0.192E-02    0.218E-02
RMM:   8    -0.413213009426E+03    0.29780E-05   -0.11810E-04  5204   0.110E-02    0.122E-02
RMM:   9    -0.413212995715E+03    0.13711E-04   -0.19919E-05  4432   0.554E-03    0.507E-03
RMM:  10    -0.413212990587E+03    0.51278E-05   -0.42752E-06  2837   0.264E-03    0.322E-03
RMM:  11    -0.413212985328E+03    0.52591E-05   -0.11946E-06  2493   0.184E-03    0.175E-03
RMM:  12    -0.413212977327E+03    0.80008E-05   -0.78398E-07  2463   0.152E-03    0.659E-04
RMM:  13    -0.413212972885E+03    0.44423E-05   -0.37372E-07  2175   0.107E-03    0.326E-04
RMM:  14    -0.413212970707E+03    0.21781E-05   -0.19613E-07  1688   0.798E-04    0.217E-04
RMM:  15    -0.413212965480E+03    0.52268E-05   -0.12713E-07  1354   0.711E-04    0.130E-04
RMM:  16    -0.413212962659E+03    0.28211E-05   -0.80355E-08  1144   0.650E-04    0.979E-05
RMM:  17    -0.413212959347E+03    0.33121E-05   -0.66787E-08  1190   0.636E-04    0.698E-05
RMM:  18    -0.413212956495E+03    0.28518E-05   -0.50129E-08  1112   0.608E-04    0.428E-05
RMM:  19    -0.413212954094E+03    0.24013E-05   -0.38940E-08  1045   0.586E-04    0.344E-05
RMM:  20    -0.413212953688E+03    0.40581E-06   -0.18653E-08   758   0.538E-04
   42 T=    70. E= -.41286675E+03 F= -.41321295E+03 E0= -.41319192E+03  EK= 0.34620E+00 SP= 0.00E+00 SK= 0.00E+00
       N       E                     dE             d eps       ncg     rms          rms(c)
RMM:   1    -0.413241429748E+03   -0.28476E-01   -0.11489E+01  4312   0.136E+00    0.944E-01
RMM:   2    -0.413218244992E+03    0.23185E-01   -0.16477E-01  4290   0.149E-01    0.685E-01
RMM:   3    -0.413219532140E+03   -0.12871E-02   -0.14408E-02  5080   0.821E-02    0.328E-01
RMM:   4    -0.413253980854E+03   -0.34449E-01   -0.53223E-02  5085   0.195E-01    0.816E-01
RMM:   5    -0.413214910914E+03    0.39070E-01   -0.17037E-02  4723   0.136E-01    0.594E-02
RMM:   6    -0.413214966097E+03   -0.55184E-04   -0.30056E-03  5745   0.520E-02    0.331E-02
RMM:   7    -0.413214971218E+03   -0.51201E-05   -0.43031E-04  5786   0.188E-02    0.221E-02
RMM:   8    -0.413214968572E+03    0.26455E-05   -0.11409E-04  5182   0.109E-02    0.116E-02
RMM:   9    -0.413214956769E+03    0.11803E-04   -0.19900E-05  4422   0.555E-03    0.456E-03
RMM:  10    -0.413214953345E+03    0.34239E-05   -0.39945E-06  2789   0.255E-03    0.287E-03
RMM:  11    -0.413214949072E+03    0.42726E-05   -0.12633E-06  2494   0.184E-03    0.155E-03
RMM:  12    -0.413214943621E+03    0.54517E-05   -0.70577E-07  2438   0.143E-03    0.604E-04
RMM:  13    -0.413214940543E+03    0.30777E-05   -0.34880E-07  2039   0.100E-03    0.278E-04
RMM:  14    -0.413214938262E+03    0.22807E-05   -0.19358E-07  1556   0.785E-04    0.173E-04
RMM:  15    -0.413214933957E+03    0.43054E-05   -0.13775E-07  1309   0.718E-04    0.111E-04
RMM:  16    -0.413214932070E+03    0.18871E-05   -0.85597E-08  1115   0.656E-04    0.775E-05
RMM:  17    -0.413214929206E+03    0.28642E-05   -0.74956E-08  1241   0.656E-04    0.534E-05
RMM:  18    -0.413214926991E+03    0.22147E-05   -0.53577E-08  1086   0.608E-04    0.386E-05
RMM:  19    -0.413214925372E+03    0.16188E-05   -0.34829E-08   911   0.574E-04    0.215E-05
RMM:  20    -0.413214924886E+03    0.48590E-06   -0.21695E-08   782   0.550E-04
   43 T=    71. E= -.41286692E+03 F= -.41321492E+03 E0= -.41319392E+03  EK= 0.34800E+00 SP= 0.00E+00 SK= 0.00E+00
       N       E                     dE             d eps       ncg     rms          rms(c)
RMM:   1    -0.413234635227E+03   -0.19710E-01   -0.11512E+01  4312   0.138E+00    0.946E-01
RMM:   2    -0.413219578293E+03    0.15057E-01   -0.17417E-01  4292   0.165E-01    0.700E-01
RMM:   3    -0.413221717506E+03   -0.21392E-02   -0.15370E-02  5073   0.900E-02    0.361E-01
RMM:   4    -0.413254709264E+03   -0.32992E-01   -0.55006E-02  5071   0.199E-01    0.812E-01
RMM:   5    -0.413216006871E+03    0.38702E-01   -0.16548E-02  4714   0.136E-01    0.604E-02
RMM:   6    -0.413216044186E+03   -0.37315E-04   -0.29140E-03  5729   0.513E-02    0.328E-02
RMM:   7    -0.413216046627E+03   -0.24415E-05   -0.40788E-04  5814   0.186E-02    0.222E-02
RMM:   8    -0.413216043805E+03    0.28220E-05   -0.10956E-04  5168   0.108E-02    0.112E-02
RMM:   9    -0.413216033316E+03    0.10489E-04   -0.20219E-05  4428   0.559E-03    0.430E-03
RMM:  10    -0.413216030906E+03    0.24096E-05   -0.38499E-06  2788   0.250E-03    0.264E-03
RMM:  11    -0.413216027549E+03    0.33571E-05   -0.14000E-06  2516   0.186E-03    0.146E-03
RMM:  12    -0.413216023792E+03    0.37574E-05   -0.67261E-07  2435   0.139E-03    0.615E-04
RMM:  13    -0.413216021425E+03    0.23664E-05   -0.33496E-07  1930   0.963E-04    0.274E-04
RMM:  14    -0.413216019261E+03    0.21649E-05   -0.19577E-07  1485   0.771E-04    0.159E-04
RMM:  15    -0.413216016013E+03    0.32472E-05   -0.14397E-07  1288   0.710E-04    0.962E-05
RMM:  16    -0.413216014237E+03    0.17768E-05   -0.91680E-08  1133   0.658E-04    0.725E-05
RMM:  17    -0.413216011469E+03    0.27679E-05   -0.84383E-08  1278   0.662E-04    0.478E-05
RMM:  18    -0.413216009772E+03    0.16968E-05   -0.52653E-08  1048   0.603E-04    0.400E-05
RMM:  19    -0.413216008572E+03    0.12003E-05   -0.34432E-08   911   0.571E-04    0.213E-05
RMM:  20    -0.413216008159E+03    0.41215E-06   -0.20471E-08   761   0.545E-04
   44 T=    71. E= -.41286672E+03 F= -.41321601E+03 E0= -.41319503E+03  EK= 0.34929E+00 SP= 0.00E+00 SK= 0.00E+00
       N       E                     dE             d eps       ncg     rms          rms(c)
RMM:   1    -0.413235937138E+03   -0.19929E-01   -0.11500E+01  4311   0.147E+00    0.972E-01
RMM:   2    -0.413220235798E+03    0.15701E-01   -0.16733E-01  4317   0.169E-01    0.694E-01
RMM:   3    -0.413226909739E+03   -0.66739E-02   -0.19330E-02  5113   0.107E-01    0.448E-01
RMM:   4    -0.413240909898E+03   -0.14000E-01   -0.44139E-02  5033   0.181E-01    0.643E-01
RMM:   5    -0.413217317155E+03    0.23593E-01   -0.90124E-03  4640   0.109E-01    0.564E-02
RMM:   6    -0.413217291645E+03    0.25510E-04   -0.17896E-03  5579   0.410E-02    0.318E-02
RMM:   7    -0.413217288433E+03    0.32122E-05   -0.29799E-04  5641   0.167E-02    0.213E-02
RMM:   8    -0.413217279627E+03    0.88057E-05   -0.10973E-04  5062   0.109E-02    0.994E-03
RMM:   9    -0.413217266336E+03    0.13292E-04   -0.15397E-05  4261   0.533E-03    0.405E-03
RMM:  10    -0.413217262572E+03    0.37634E-05   -0.26777E-06  2692   0.224E-03    0.237E-03
RMM:  11    -0.413217256257E+03    0.63149E-05   -0.11498E-06  2479   0.176E-03    0.130E-03
RMM:  12    -0.413217250364E+03    0.58929E-05   -0.56652E-07  2415   0.131E-03    0.633E-04
RMM:  13    -0.413217246645E+03    0.37193E-05   -0.26933E-07  1843   0.897E-04    0.294E-04
RMM:  14    -0.413217243097E+03    0.35479E-05   -0.15149E-07  1357   0.716E-04    0.157E-04
RMM:  15    -0.413217238084E+03    0.50134E-05   -0.11747E-07  1264   0.687E-04    0.118E-04
RMM:  16    -0.413217235278E+03    0.28057E-05   -0.76134E-08  1097   0.634E-04    0.979E-05
RMM:  17    -0.413217230488E+03    0.47904E-05   -0.77576E-08  1329   0.652E-04    0.661E-05
RMM:  18    -0.413217228145E+03    0.23426E-05   -0.45876E-08  1039   0.573E-04    0.453E-05
RMM:  19    -0.413217227045E+03    0.11005E-05   -0.28253E-08   836   0.534E-04    0.265E-05
RMM:  20    -0.413217226437E+03    0.60724E-06   -0.18115E-08   734   0.520E-04
   45 T=    71. E= -.41286702E+03 F= -.41321723E+03 E0= -.41319627E+03  EK= 0.35021E+00 SP= 0.00E+00 SK= 0.00E+00
       N       E                     dE             d eps       ncg     rms          rms(c)
RMM:   1    -0.413250149202E+03   -0.32922E-01   -0.11523E+01  4311   0.160E+00    0.953E-01
RMM:   2    -0.413219924954E+03    0.30224E-01   -0.17762E-01  4331   0.184E-01    0.690E-01
RMM:   3    -0.413228845336E+03   -0.89204E-02   -0.20590E-02  5111   0.115E-01    0.499E-01
RMM:   4    -0.413236917643E+03   -0.80723E-02   -0.42626E-02  5024   0.180E-01    0.598E-01
RMM:   5    -0.413216954198E+03    0.19963E-01   -0.75094E-03  4607   0.103E-01    0.562E-02
RMM:   6    -0.413216909387E+03    0.44812E-04   -0.14810E-03  5462   0.378E-02    0.309E-02
RMM:   7    -0.413216905361E+03    0.40263E-05   -0.25553E-04  5627   0.156E-02    0.211E-02
RMM:   8    -0.413216895203E+03    0.10158E-04   -0.11760E-04  5069   0.112E-02    0.993E-03
RMM:   9    -0.413216881842E+03    0.13361E-04   -0.15857E-05  4291   0.549E-03    0.401E-03
RMM:  10    -0.413216878775E+03    0.30670E-05   -0.27412E-06  2695   0.221E-03    0.232E-03
RMM:  11    -0.413216872867E+03    0.59075E-05   -0.12475E-06  2486   0.180E-03    0.129E-03
RMM:  12    -0.413216868236E+03    0.46314E-05   -0.55297E-07  2419   0.131E-03    0.672E-04
RMM:  13    -0.413216864711E+03    0.35254E-05   -0.25999E-07  1792   0.889E-04    0.321E-04
RMM:  14    -0.413216861240E+03    0.34710E-05   -0.14209E-07  1329   0.706E-04    0.165E-04
RMM:  15    -0.413216857202E+03    0.40381E-05   -0.10420E-07  1208   0.666E-04    0.111E-04
RMM:  16    -0.413216854538E+03    0.26637E-05   -0.69094E-08  1085   0.624E-04    0.100E-04
RMM:  17    -0.413216850752E+03    0.37858E-05   -0.64321E-08  1202   0.629E-04    0.606E-05
RMM:  18    -0.413216848080E+03    0.26716E-05   -0.46208E-08  1079   0.582E-04    0.497E-05
RMM:  19    -0.413216847239E+03    0.84174E-06   -0.22446E-08   796   0.526E-04
   46 T=    71. E= -.41286678E+03 F= -.41321685E+03 E0= -.41319592E+03  EK= 0.35007E+00 SP= 0.00E+00 SK= 0.00E+00
       N       E                     dE             d eps       ncg     rms          rms(c)
RMM:   1    -0.413236399291E+03   -0.19551E-01   -0.11398E+01  4311   0.163E+00    0.941E-01
RMM:   2    -0.413219210045E+03    0.17189E-01   -0.18172E-01  4334   0.194E-01    0.702E-01
RMM:   3    -0.413228897197E+03   -0.96872E-02   -0.21584E-02  5109   0.123E-01    0.521E-01
RMM:   4    -0.413236689365E+03   -0.77922E-02   -0.45399E-02  5019   0.186E-01    0.609E-01
RMM:   5    -0.413215719828E+03    0.20970E-01   -0.78155E-03  4604   0.105E-01    0.578E-02
RMM:   6    -0.413215661802E+03    0.58026E-04   -0.15099E-03  5444   0.384E-02    0.308E-02
RMM:   7    -0.413215657075E+03    0.47264E-05   -0.25730E-04  5647   0.156E-02    0.214E-02
RMM:   8    -0.413215646018E+03    0.11057E-04   -0.12060E-04  5103   0.113E-02    0.101E-02
RMM:   9    -0.413215633540E+03    0.12478E-04   -0.17310E-05  4346   0.568E-03    0.405E-03
RMM:  10    -0.413215631442E+03    0.20980E-05   -0.29291E-06  2720   0.226E-03    0.235E-03
RMM:  11    -0.413215627432E+03    0.40097E-05   -0.13963E-06  2504   0.187E-03    0.132E-03
RMM:  12    -0.413215624363E+03    0.30694E-05   -0.59476E-07  2431   0.135E-03    0.707E-04
RMM:  13    -0.413215621712E+03    0.26508E-05   -0.29216E-07  1822   0.927E-04    0.331E-04
RMM:  14    -0.413215619189E+03    0.25231E-05   -0.16384E-07  1367   0.735E-04    0.173E-04
RMM:  15    -0.413215616440E+03    0.27492E-05   -0.11788E-07  1256   0.685E-04    0.105E-04
RMM:  16    -0.413215614492E+03    0.19478E-05   -0.78558E-08  1121   0.631E-04    0.925E-05
RMM:  17    -0.413215611908E+03    0.25840E-05   -0.69248E-08  1188   0.623E-04    0.509E-05
RMM:  18    -0.413215609668E+03    0.22401E-05   -0.49667E-08  1045   0.585E-04    0.421E-05
RMM:  19    -0.413215609095E+03    0.57251E-06   -0.24444E-08   778   0.531E-04
   47 T=    71. E= -.41286669E+03 F= -.41321561E+03 E0= -.41319469E+03  EK= 0.34892E+00 SP= 0.00E+00 SK= 0.00E+00
       N       E                     dE             d eps       ncg     rms          rms(c)
RMM:   1    -0.413247062601E+03   -0.31453E-01   -0.11428E+01  4306   0.177E+00    0.963E-01
RMM:   2    -0.413216459167E+03    0.30603E-01   -0.18220E-01  4385   0.204E-01    0.696E-01
RMM:   3    -0.413233307706E+03   -0.16849E-01   -0.27774E-02  5142   0.143E-01    0.629E-01
RMM:   4    -0.413225922864E+03    0.73848E-02   -0.40882E-02  4982   0.180E-01    0.486E-01
RMM:   5    -0.413213344143E+03    0.12579E-01   -0.48911E-03  4532   0.914E-02    0.573E-02
RMM:   6    -0.413213232848E+03    0.11129E-03   -0.72012E-04  4908   0.304E-02    0.296E-02
RMM:   7    -0.413213218100E+03    0.14748E-04   -0.16670E-04  5871   0.128E-02    0.126E-02
RMM:   8    -0.413213209999E+03    0.81015E-05   -0.44984E-05  5176   0.773E-03    0.718E-03
RMM:   9    -0.413213203858E+03    0.61411E-05   -0.81645E-06  3454   0.357E-03    0.388E-03
RMM:  10    -0.413213201823E+03    0.20348E-05   -0.20763E-06  2564   0.230E-03    0.226E-03
RMM:  11    -0.413213195826E+03    0.59972E-05   -0.14083E-06  2474   0.195E-03    0.149E-03
RMM:  12    -0.413213192343E+03    0.34832E-05   -0.50964E-07  2377   0.131E-03    0.893E-04
RMM:  13    -0.413213188114E+03    0.42283E-05   -0.24873E-07  1924   0.911E-04    0.450E-04
RMM:  14    -0.413213183418E+03    0.46963E-05   -0.16329E-07  1535   0.744E-04    0.321E-04
RMM:  15    -0.413213179277E+03    0.41414E-05   -0.89133E-08  1035   0.606E-04    0.126E-04
RMM:  16    -0.413213176701E+03    0.25756E-05   -0.61026E-08   985   0.581E-04    0.819E-05
RMM:  17    -0.413213173880E+03    0.28209E-05   -0.50420E-08  1004   0.576E-04    0.751E-05
RMM:  18    -0.413213171259E+03    0.26210E-05   -0.38108E-08   942   0.560E-04    0.448E-05
RMM:  19    -0.413213170094E+03    0.11649E-05   -0.20504E-08   756   0.517E-04    0.339E-05
RMM:  20    -0.413213168926E+03    0.11682E-05   -0.19608E-08   753   0.512E-04    0.327E-05
RMM:  21    -0.413213168601E+03    0.32482E-06   -0.84392E-09   577   0.481E-04
   48 T=    70. E= -.41286688E+03 F= -.41321317E+03 E0= -.41319227E+03  EK= 0.34629E+00 SP= 0.00E+00 SK= 0.00E+00
       N       E                     dE             d eps       ncg     rms          rms(c)
RMM:   1    -0.413246479294E+03   -0.33310E-01   -0.11227E+01  4305   0.188E+00    0.952E-01
RMM:   2    -0.413211134051E+03    0.35345E-01   -0.18038E-01  4434   0.214E-01    0.685E-01
RMM:   3    -0.413234879753E+03   -0.23746E-01   -0.33436E-02  5158   0.160E-01    0.718E-01
RMM:   4    -0.413216586135E+03    0.18294E-01   -0.39614E-02  4957   0.181E-01    0.410E-01
RMM:   5    -0.413208225046E+03    0.83611E-02   -0.43527E-03  4597   0.888E-02    0.631E-02
RMM:   6    -0.413208044774E+03    0.18027E-03   -0.44931E-04  4663   0.291E-02    0.321E-02
RMM:   7    -0.413208050284E+03   -0.55109E-05   -0.27702E-04  5779   0.174E-02    0.236E-02
RMM:   8    -0.413208016860E+03    0.33425E-04   -0.95250E-05  5019   0.111E-02    0.935E-03
RMM:   9    -0.413208009292E+03    0.75680E-05   -0.18649E-05  4716   0.559E-03    0.471E-03
RMM:  10    -0.413208005001E+03    0.42903E-05   -0.23779E-06  2628   0.242E-03    0.259E-03
RMM:  11    -0.413207998906E+03    0.60959E-05   -0.13172E-06  2494   0.189E-03    0.180E-03
RMM:  12    -0.413207995155E+03    0.37505E-05   -0.41440E-07  2391   0.121E-03    0.929E-04
RMM:  13    -0.413207990458E+03    0.46967E-05   -0.26757E-07  1990   0.884E-04    0.430E-04
RMM:  14    -0.413207985189E+03    0.52693E-05   -0.20219E-07  1749   0.773E-04    0.358E-04
RMM:  15    -0.413207980530E+03    0.46587E-05   -0.11008E-07  1131   0.629E-04    0.141E-04
RMM:  16    -0.413207977955E+03    0.25750E-05   -0.67663E-08  1046   0.596E-04    0.875E-05
RMM:  17    -0.413207974488E+03    0.34672E-05   -0.63730E-08  1128   0.604E-04    0.736E-05
RMM:  18    -0.413207973149E+03    0.13387E-05   -0.36744E-08   937   0.551E-04    0.587E-05
RMM:  19    -0.413207971013E+03    0.21365E-05   -0.35089E-08  1015   0.551E-04    0.343E-05
RMM:  20    -0.413207970277E+03    0.73623E-06   -0.18365E-08   769   0.499E-04
   49 T=    70. E= -.41286654E+03 F= -.41320797E+03 E0= -.41318708E+03  EK= 0.34143E+00 SP= 0.00E+00 SK= 0.00E+00
       N       E                     dE             d eps       ncg     rms          rms(c)
RMM:   1    -0.413225186299E+03   -0.17215E-01   -0.10864E+01  4305   0.191E+00    0.921E-01
RMM:   2    -0.413205109668E+03    0.20077E-01   -0.17829E-01  4459   0.222E-01    0.688E-01
RMM:   3    -0.413229501655E+03   -0.24392E-01   -0.34017E-02  5156   0.164E-01    0.733E-01
RMM:   4    -0.413210263271E+03    0.19238E-01   -0.40995E-02  4954   0.185E-01    0.411E-01
RMM:   5    -0.413201678428E+03    0.85848E-02   -0.47240E-03  4648   0.927E-02    0.668E-02
RMM:   6    -0.413201464947E+03    0.21348E-03   -0.49261E-04  4654   0.306E-02    0.324E-02
RMM:   7    -0.413201468768E+03   -0.38210E-05   -0.28092E-04  5777   0.177E-02    0.238E-02
RMM:   8    -0.413201436278E+03    0.32490E-04   -0.91801E-05  5034   0.109E-02    0.101E-02
RMM:   9    -0.413201430111E+03    0.61667E-05   -0.21107E-05  4919   0.587E-03    0.476E-03
RMM:  10    -0.413201426668E+03    0.34428E-05   -0.28763E-06  2672   0.253E-03    0.269E-03
[...]
RMM:  16    -0.413162022856E+03   -0.42299E-05   -0.21530E-07  1463   0.719E-04    0.127E-04
RMM:  17    -0.413162025032E+03   -0.21764E-05   -0.10835E-07  1166   0.617E-04    0.591E-05
RMM:  18    -0.413162026409E+03   -0.13762E-05   -0.65811E-08  1081   0.576E-04    0.469E-05
RMM:  19    -0.413162027182E+03   -0.77315E-06   -0.37454E-08   920   0.526E-04
  138 T=    60. E= -.41286695E+03 F= -.41316203E+03 E0= -.41314129E+03  EK= 0.29508E+00 SP= 0.00E+00 SK= 0.00E+00
       N       E                     dE             d eps       ncg     rms          rms(c)
RMM:   1    -0.413164741966E+03   -0.27156E-02   -0.67420E+00  4268   0.721E-01    0.824E-01
RMM:   2    -0.413165079728E+03   -0.33776E-03   -0.77837E-02  4322   0.813E-02    0.589E-01
RMM:   3    -0.413162534432E+03    0.25453E-02   -0.23255E-02  5025   0.598E-02    0.169E-01
RMM:   4    -0.413186410089E+03   -0.23876E-01   -0.29722E-02  5111   0.145E-01    0.660E-01
RMM:   5    -0.413161108355E+03    0.25302E-01   -0.11814E-02  4774   0.110E-01    0.524E-02
RMM:   6    -0.413161129870E+03   -0.21515E-04   -0.21255E-03  5640   0.447E-02    0.318E-02
RMM:   7    -0.413161163949E+03   -0.34079E-04   -0.35787E-04  5770   0.170E-02    0.192E-02
RMM:   8    -0.413161171430E+03   -0.74815E-05   -0.59710E-05  5247   0.839E-03    0.913E-03
RMM:   9    -0.413161175964E+03   -0.45331E-05   -0.81002E-06  3248   0.346E-03    0.462E-03
RMM:  10    -0.413161184385E+03   -0.84214E-05   -0.25442E-06  2614   0.225E-03    0.284E-03
RMM:  11    -0.413161191597E+03   -0.72120E-05   -0.14992E-06  2527   0.176E-03    0.144E-03
RMM:  12    -0.413161198959E+03   -0.73616E-05   -0.13823E-06  2519   0.156E-03    0.646E-04
RMM:  13    -0.413161202387E+03   -0.34280E-05   -0.57159E-07  2196   0.111E-03    0.437E-04
RMM:  14    -0.413161204928E+03   -0.25415E-05   -0.31756E-07  1800   0.869E-04    0.290E-04
RMM:  15    -0.413161209684E+03   -0.47555E-05   -0.45032E-07  1981   0.921E-04    0.280E-04
RMM:  16    -0.413161212811E+03   -0.31276E-05   -0.26216E-07  1513   0.752E-04    0.181E-04
RMM:  17    -0.413161214247E+03   -0.14354E-05   -0.12212E-07  1224   0.633E-04    0.948E-05
RMM:  18    -0.413161215874E+03   -0.16271E-05   -0.92606E-08  1270   0.611E-04    0.572E-05
RMM:  19    -0.413161216500E+03   -0.62634E-06   -0.41649E-08   884   0.522E-04
  139 T=    60. E= -.41286720E+03 F= -.41316122E+03 E0= -.41314050E+03  EK= 0.29401E+00 SP= 0.00E+00 SK= 0.00E+00
       N       E                     dE             d eps       ncg     rms          rms(c)
RMM:   1    -0.413162572093E+03   -0.13562E-02   -0.71577E+00  4265   0.743E-01    0.803E-01
RMM:   2    -0.413164650005E+03   -0.20779E-02   -0.80882E-02  4316   0.850E-02    0.581E-01
RMM:   3    -0.413161866966E+03    0.27830E-02   -0.19361E-02  4945   0.546E-02    0.129E-01
RMM:   4    -0.413184603929E+03   -0.22737E-01   -0.25752E-02  5128   0.135E-01    0.638E-01
RMM:   5    -0.413161057323E+03    0.23547E-01   -0.11317E-02  4804   0.106E-01    0.505E-02
RMM:   6    -0.413161086639E+03   -0.29317E-04   -0.19981E-03  5683   0.434E-02    0.319E-02
RMM:   7    -0.413161125053E+03   -0.38414E-04   -0.35212E-04  5726   0.168E-02    0.183E-02
RMM:   8    -0.413161136433E+03   -0.11380E-04   -0.53971E-05  5219   0.798E-03    0.871E-03
RMM:   9    -0.413161142936E+03   -0.65029E-05   -0.75455E-06  3194   0.330E-03    0.471E-03
RMM:  10    -0.413161154823E+03   -0.11887E-04   -0.24651E-06  2595   0.222E-03    0.284E-03
RMM:  11    -0.413161164491E+03   -0.96680E-05   -0.14316E-06  2523   0.172E-03    0.143E-03
RMM:  12    -0.413161174412E+03   -0.99210E-05   -0.14809E-06  2524   0.158E-03    0.692E-04
RMM:  13    -0.413161178825E+03   -0.44128E-05   -0.59890E-07  2199   0.111E-03    0.427E-04
RMM:  14    -0.413161181346E+03   -0.25216E-05   -0.29631E-07  1736   0.847E-04    0.280E-04
RMM:  15    -0.413161186232E+03   -0.48857E-05   -0.41657E-07  1936   0.903E-04    0.254E-04
RMM:  16    -0.413161189670E+03   -0.34383E-05   -0.26799E-07  1544   0.764E-04    0.187E-04
RMM:  17    -0.413161190861E+03   -0.11907E-05   -0.10854E-07  1158   0.614E-04    0.112E-04
RMM:  18    -0.413161192550E+03   -0.16889E-05   -0.98695E-08  1324   0.624E-04    0.475E-05
RMM:  19    -0.413161192992E+03   -0.44243E-06   -0.39890E-08   861   0.514E-04
  140 T=    60. E= -.41286722E+03 F= -.41316119E+03 E0= -.41314048E+03  EK= 0.29398E+00 SP= 0.00E+00 SK= 0.00E+00
       N       E                     dE             d eps       ncg     rms          rms(c)
RMM:   1    -0.413161378698E+03   -0.18615E-03   -0.77208E+00  4264   0.769E-01    0.805E-01
RMM:   2    -0.413165200382E+03   -0.38217E-02   -0.86221E-02  4313   0.882E-02    0.587E-01
RMM:   3    -0.413161973868E+03    0.32265E-02   -0.16558E-02  4843   0.503E-02    0.954E-02
RMM:   4    -0.413179248391E+03   -0.17275E-01   -0.18446E-02  5139   0.114E-01    0.555E-01
RMM:   5    -0.413161600442E+03    0.17648E-01   -0.87168E-03  4812   0.919E-02    0.469E-02
RMM:   6    -0.413161629594E+03   -0.29152E-04   -0.15834E-03  5680   0.387E-02    0.312E-02
RMM:   7    -0.413161665638E+03   -0.36044E-04   -0.30755E-04  5617   0.157E-02    0.167E-02
RMM:   8    -0.413161677676E+03   -0.12038E-04   -0.45151E-05  5122   0.732E-03    0.814E-03
RMM:   9    -0.413161684822E+03   -0.71464E-05   -0.58988E-06  3029   0.296E-03    0.455E-03
RMM:  10    -0.413161699392E+03   -0.14569E-04   -0.22384E-06  2578   0.215E-03    0.266E-03
RMM:  11    -0.413161711274E+03   -0.11882E-04   -0.13867E-06  2521   0.165E-03    0.130E-03
RMM:  12    -0.413161722527E+03   -0.11253E-04   -0.13168E-06  2477   0.148E-03    0.640E-04
RMM:  13    -0.413161728253E+03   -0.57260E-05   -0.63015E-07  2153   0.109E-03    0.373E-04
RMM:  14    -0.413161731001E+03   -0.27484E-05   -0.28414E-07  1626   0.822E-04    0.255E-04
RMM:  15    -0.413161736038E+03   -0.50366E-05   -0.40569E-07  1877   0.882E-04    0.220E-04
RMM:  16    -0.413161739256E+03   -0.32178E-05   -0.23923E-07  1464   0.726E-04    0.154E-04
RMM:  17    -0.413161740243E+03   -0.98741E-06   -0.94049E-08  1063   0.587E-04
  141 T=    60. E= -.41286696E+03 F= -.41316174E+03 E0= -.41314104E+03  EK= 0.29478E+00 SP= 0.00E+00 SK= 0.00E+00
       N       E                     dE             d eps       ncg     rms          rms(c)
RMM:   1    -0.413159665484E+03    0.20738E-02   -0.82060E+00  4264   0.793E-01    0.825E-01
RMM:   2    -0.413163545144E+03   -0.38797E-02   -0.90047E-02  4309   0.901E-02    0.579E-01
RMM:   3    -0.413161305347E+03    0.22398E-02   -0.12475E-02  4764   0.425E-02    0.775E-02
RMM:   4    -0.413169554611E+03   -0.82493E-02   -0.85750E-03  5160   0.783E-02    0.384E-01
RMM:   5    -0.413161249855E+03    0.83048E-02   -0.42638E-03  4833   0.643E-02    0.430E-02
RMM:   6    -0.413161267531E+03   -0.17676E-04   -0.88844E-04  5605   0.300E-02    0.312E-02
RMM:   7    -0.413161280412E+03   -0.12881E-04   -0.23619E-04  5426   0.142E-02    0.148E-02
RMM:   8    -0.413161283918E+03   -0.35060E-05   -0.32678E-05  4933   0.648E-03    0.742E-03
RMM:   9    -0.413161287184E+03   -0.32666E-05   -0.39780E-06  2806   0.245E-03    0.399E-03
RMM:  10    -0.413161295521E+03   -0.83371E-05   -0.17568E-06  2539   0.192E-03    0.216E-03
RMM:  11    -0.413161302220E+03   -0.66986E-05   -0.12308E-06  2492   0.152E-03    0.108E-03
RMM:  12    -0.413161307504E+03   -0.52845E-05   -0.10202E-06  2337   0.129E-03    0.479E-04
RMM:  13    -0.413161310963E+03   -0.34584E-05   -0.64400E-07  2096   0.104E-03    0.292E-04
RMM:  14    -0.413161312926E+03   -0.19628E-05   -0.33642E-07  1631   0.830E-04    0.243E-04
RMM:  15    -0.413161315375E+03   -0.24492E-05   -0.38681E-07  1737   0.842E-04    0.149E-04
RMM:  16    -0.413161316707E+03   -0.13316E-05   -0.19977E-07  1399   0.693E-04    0.958E-05
RMM:  17    -0.413161317151E+03   -0.44428E-06   -0.81479E-08  1024   0.562E-04
  142 T=    60. E= -.41286716E+03 F= -.41316132E+03 E0= -.41314063E+03  EK= 0.29416E+00 SP= 0.00E+00 SK= 0.00E+00
       N       E                     dE             d eps       ncg     rms          rms(c)
RMM:   1    -0.413156979865E+03    0.43368E-02   -0.85743E+00  4264   0.808E-01    0.810E-01
RMM:   2    -0.413162147566E+03   -0.51677E-02   -0.94129E-02  4314   0.888E-02    0.569E-01
RMM:   3    -0.413160483373E+03    0.16642E-02   -0.10035E-02  4676   0.379E-02    0.813E-02
RMM:   4    -0.413161568365E+03   -0.10850E-02   -0.15508E-03  5197   0.333E-02    0.140E-01
RMM:   5    -0.413160545581E+03    0.10228E-02   -0.62764E-04  4871   0.253E-02    0.399E-02
RMM:   6    -0.413160549389E+03   -0.38079E-05   -0.31163E-04  5331   0.183E-02    0.283E-02
RMM:   7    -0.413160569584E+03   -0.20195E-04   -0.15499E-04  5009   0.108E-02    0.140E-02
RMM:   8    -0.413160568871E+03    0.71305E-06   -0.14441E-05  4125   0.481E-03    0.675E-03
RMM:   9    -0.413160572054E+03   -0.31829E-05   -0.46129E-06  2625   0.234E-03    0.257E-03
RMM:  10    -0.413160580575E+03   -0.85215E-05   -0.19019E-06  2521   0.191E-03    0.130E-03
RMM:  11    -0.413160589871E+03   -0.92963E-05   -0.16862E-06  2501   0.163E-03    0.662E-04
RMM:  12    -0.413160593538E+03   -0.36670E-05   -0.67051E-07  2132   0.111E-03    0.381E-04
RMM:  13    -0.413160596134E+03   -0.25956E-05   -0.41176E-07  1797   0.888E-04    0.316E-04
RMM:  14    -0.413160599046E+03   -0.29120E-05   -0.49039E-07  1763   0.872E-04    0.165E-04
RMM:  15    -0.413160600271E+03   -0.12255E-05   -0.20338E-07  1351   0.682E-04    0.849E-05
RMM:  16    -0.413160601256E+03   -0.98419E-06   -0.14837E-07  1205   0.632E-04
  143 T=    60. E= -.41286696E+03 F= -.41316060E+03 E0= -.41313992E+03  EK= 0.29364E+00 SP= 0.00E+00 SK= 0.00E+00
       N       E                     dE             d eps       ncg     rms          rms(c)
RMM:   1    -0.413156434580E+03    0.41657E-02   -0.90130E+00  4264   0.825E-01    0.801E-01
RMM:   2    -0.413163750792E+03   -0.73162E-02   -0.10098E-01  4315   0.922E-02    0.578E-01
RMM:   3    -0.413161723386E+03    0.20274E-02   -0.85852E-03  4709   0.366E-02    0.836E-02
RMM:   4    -0.413162676561E+03   -0.95318E-03   -0.14466E-03  5235   0.321E-02    0.131E-01
RMM:   5    -0.413161781629E+03    0.89493E-03   -0.53678E-04  4867   0.237E-02    0.358E-02
RMM:   6    -0.413161778787E+03    0.28421E-05   -0.23606E-04  5326   0.160E-02    0.245E-02
RMM:   7    -0.413161824347E+03   -0.45560E-04   -0.13140E-04  5194   0.927E-03    0.134E-02
RMM:   8    -0.413161824427E+03   -0.80159E-07   -0.12634E-05  3989   0.451E-03    0.671E-03
RMM:   9    -0.413161827696E+03   -0.32686E-05   -0.38991E-06  2561   0.228E-03    0.261E-03
RMM:  10    -0.413161839072E+03   -0.11376E-04   -0.18316E-06  2526   0.191E-03    0.140E-03
RMM:  11    -0.413161854012E+03   -0.14939E-04   -0.18400E-06  2495   0.169E-03    0.797E-04
RMM:  12    -0.413161858996E+03   -0.49849E-05   -0.62561E-07  2102   0.108E-03    0.409E-04
RMM:  13    -0.413161863317E+03   -0.43207E-05   -0.46828E-07  1881   0.909E-04    0.360E-04
RMM:  14    -0.413161867946E+03   -0.46288E-05   -0.56735E-07  1768   0.891E-04    0.205E-04
RMM:  15    -0.413161869417E+03   -0.14710E-05   -0.21515E-07  1336   0.677E-04    0.991E-05
RMM:  16    -0.413161870338E+03   -0.92079E-06   -0.16676E-07  1162   0.626E-04
  144 T=    60. E= -.41286693E+03 F= -.41316187E+03 E0= -.41314120E+03  EK= 0.29494E+00 SP= 0.00E+00 SK= 0.00E+00
       N       E                     dE             d eps       ncg     rms          rms(c)
RMM:   1    -0.413155747711E+03    0.61217E-02   -0.93722E+00  4264   0.849E-01    0.822E-01
RMM:   2    -0.413163027997E+03   -0.72803E-02   -0.10374E-01  4303   0.981E-02    0.573E-01
RMM:   3    -0.413161934369E+03    0.10936E-02   -0.73877E-03  4816   0.398E-02    0.116E-01
RMM:   4    -0.413172345221E+03   -0.10411E-01   -0.10739E-02  5166   0.873E-02    0.429E-01
RMM:   5    -0.413161884200E+03    0.10461E-01   -0.53196E-03  4828   0.711E-02    0.388E-02
RMM:   6    -0.413161883991E+03    0.20926E-06   -0.93874E-04  5696   0.294E-02    0.232E-02
RMM:   7    -0.413161910003E+03   -0.26012E-04   -0.15547E-04  5587   0.110E-02    0.101E-02
RMM:   8    -0.413161919815E+03   -0.98125E-05   -0.25737E-05  4627   0.546E-03    0.556E-03
RMM:   9    -0.413161923960E+03   -0.41449E-05   -0.30917E-06  2737   0.237E-03    0.302E-03
RMM:  10    -0.413161931738E+03   -0.77780E-05   -0.16239E-06  2535   0.182E-03    0.179E-03
RMM:  11    -0.413161938491E+03   -0.67530E-05   -0.13009E-06  2494   0.150E-03    0.830E-04
RMM:  12    -0.413161942116E+03   -0.36247E-05   -0.78514E-07  2259   0.115E-03    0.414E-04
RMM:  13    -0.413161943760E+03   -0.16440E-05   -0.42866E-07  1751   0.889E-04    0.250E-04
RMM:  14    -0.413161944751E+03   -0.99096E-06   -0.32866E-07  1564   0.809E-04
  145 T=    60. E= -.41286707E+03 F= -.41316194E+03 E0= -.41314128E+03  EK= 0.29487E+00 SP= 0.00E+00 SK= 0.00E+00
       N       E                     dE             d eps       ncg     rms          rms(c)
RMM:   1    -0.413153396602E+03    0.85472E-02   -0.95594E+00  4264   0.849E-01    0.821E-01
RMM:   2    -0.413161005762E+03   -0.76092E-02   -0.10596E-01  4314   0.940E-02    0.563E-01
RMM:   3    -0.413160694476E+03    0.31129E-03   -0.66430E-03  4976   0.375E-02    0.136E-01
RMM:   4    -0.413179478074E+03   -0.18784E-01   -0.19312E-02  5159   0.116E-01    0.573E-01
RMM:   5    -0.413160533850E+03    0.18944E-01   -0.95069E-03  4830   0.950E-02    0.433E-02
RMM:   6    -0.413160557157E+03   -0.23307E-04   -0.16108E-03  5712   0.375E-02    0.205E-02
RMM:   7    -0.413160586512E+03   -0.29354E-04   -0.20965E-04  5725   0.121E-02    0.111E-02
RMM:   8    -0.413160598014E+03   -0.11503E-04   -0.29910E-05  4543   0.551E-03    0.582E-03
RMM:   9    -0.413160602731E+03   -0.47164E-05   -0.48025E-06  2857   0.269E-03    0.303E-03
RMM:  10    -0.413160608315E+03   -0.55846E-05   -0.19368E-06  2555   0.193E-03    0.194E-03
RMM:  11    -0.413160613007E+03   -0.46915E-05   -0.14040E-06  2509   0.158E-03    0.939E-04
RMM:  12    -0.413160615117E+03   -0.21103E-05   -0.93675E-07  2401   0.124E-03    0.411E-04
RMM:  13    -0.413160615483E+03   -0.36594E-06   -0.40486E-07  1788   0.893E-04
  146 T=    60. E= -.41286669E+03 F= -.41316062E+03 E0= -.41313996E+03  EK= 0.29393E+00 SP= 0.00E+00 SK= 0.00E+00
       N       E                     dE             d eps       ncg     rms          rms(c)
RMM:   1    -0.413153811943E+03    0.68032E-02   -0.96664E+00  4264   0.856E-01    0.796E-01
RMM:   2    -0.413162990175E+03   -0.91782E-02   -0.11137E-01  4319   0.958E-02    0.571E-01
RMM:   3    -0.413162452245E+03    0.53793E-03   -0.58065E-03  4999   0.406E-02    0.145E-01
RMM:   4    -0.413189671363E+03   -0.27219E-01   -0.28358E-02  5148   0.140E-01    0.687E-01
RMM:   5    -0.413162077119E+03    0.27594E-01   -0.13767E-02  4823   0.114E-01    0.450E-02
RMM:   6    -0.413162124589E+03   -0.47470E-04   -0.21655E-03  5710   0.445E-02    0.145E-02
RMM:   7    -0.413162166245E+03   -0.41656E-04   -0.26307E-04  5794   0.133E-02    0.105E-02
RMM:   8    -0.413162184550E+03   -0.18305E-04   -0.31631E-05  4251   0.524E-03    0.587E-03
RMM:   9    -0.413162197661E+03   -0.13111E-04   -0.56734E-06  2868   0.279E-03    0.302E-03
RMM:  10    -0.413162208949E+03   -0.11288E-04   -0.21858E-06  2564   0.194E-03    0.181E-03
RMM:  11    -0.413162218026E+03   -0.90768E-05   -0.14458E-06  2521   0.155E-03    0.932E-04
RMM:  12    -0.413162224033E+03   -0.60074E-05   -0.11442E-06  2452   0.129E-03    0.374E-04
RMM:  13    -0.413162225598E+03   -0.15649E-05   -0.46760E-07  1773   0.909E-04    0.293E-04
RMM:  14    -0.413162226966E+03   -0.13683E-05   -0.64454E-07  1926   0.978E-04    0.196E-04
RMM:  15    -0.413162226748E+03    0.21832E-06   -0.40356E-07  1657   0.824E-04
  147 T=    60. E= -.41286709E+03 F= -.41316223E+03 E0= -.41314158E+03  EK= 0.29514E+00 SP= 0.00E+00 SK= 0.00E+00
       N       E                     dE             d eps       ncg     rms          rms(c)
RMM:   1    -0.413153867961E+03    0.83590E-02   -0.97635E+00  4264   0.860E-01    0.810E-01
RMM:   2    -0.413162985588E+03   -0.91176E-02   -0.11268E-01  4320   0.958E-02    0.575E-01
RMM:   3    -0.413162944416E+03    0.41172E-04   -0.59529E-03  5082   0.434E-02    0.167E-01
RMM:   4    -0.413197246927E+03   -0.34303E-01   -0.37274E-02  5153   0.160E-01    0.771E-01
RMM:   5    -0.413162238093E+03    0.35009E-01   -0.17237E-02  4814   0.129E-01    0.516E-02
RMM:   6    -0.413162296903E+03   -0.58810E-04   -0.27041E-03  5680   0.501E-02    0.129E-02
RMM:   7    -0.413162342273E+03   -0.45370E-04   -0.34543E-04  5965   0.149E-02    0.108E-02
RMM:   8    -0.413162354727E+03   -0.12454E-04   -0.37079E-05  4215   0.526E-03    0.677E-03
RMM:   9    -0.413162367570E+03   -0.12843E-04   -0.57012E-06  2778   0.284E-03    0.339E-03
RMM:  10    -0.413162378339E+03   -0.10769E-04   -0.25065E-06  2566   0.208E-03    0.179E-03
RMM:  11    -0.413162385568E+03   -0.72288E-05   -0.14911E-06  2529   0.158E-03    0.858E-04
RMM:  12    -0.413162389219E+03   -0.36513E-05   -0.97402E-07  2421   0.125E-03    0.404E-04
RMM:  13    -0.413162390295E+03   -0.10761E-05   -0.45943E-07  1860   0.925E-04    0.340E-04
RMM:  14    -0.413162390676E+03   -0.38097E-06   -0.88084E-07  2239   0.110E-03
  148 T=    60. E= -.41286691E+03 F= -.41316239E+03 E0= -.41314174E+03  EK= 0.29548E+00 SP= 0.00E+00 SK= 0.00E+00
       N       E                     dE             d eps       ncg     rms          rms(c)
RMM:   1    -0.413153219547E+03    0.91707E-02   -0.96865E+00  4264   0.858E-01    0.824E-01
RMM:   2    -0.413161461069E+03   -0.82415E-02   -0.11099E-01  4321   0.954E-02    0.566E-01
RMM:   3    -0.413161899461E+03   -0.43839E-03   -0.64525E-03  5104   0.446E-02    0.179E-01
RMM:   4    -0.413194972930E+03   -0.33073E-01   -0.36737E-02  5147   0.159E-01    0.760E-01
RMM:   5    -0.413161089806E+03    0.33883E-01   -0.16552E-02  4814   0.128E-01    0.546E-02
RMM:   6    -0.413161121827E+03   -0.32021E-04   -0.26287E-03  5660   0.495E-02    0.162E-02
RMM:   7    -0.413161159972E+03   -0.38145E-04   -0.34566E-04  6006   0.151E-02    0.118E-02
RMM:   8    -0.413161168128E+03   -0.81562E-05   -0.38834E-05  4575   0.570E-03    0.687E-03
RMM:   9    -0.413161173861E+03   -0.57330E-05   -0.68611E-06  2908   0.305E-03    0.325E-03
RMM:  10    -0.413161177108E+03   -0.32468E-05   -0.22440E-06  2556   0.202E-03    0.179E-03
RMM:  11    -0.413161178759E+03   -0.16504E-05   -0.13865E-06  2536   0.154E-03    0.101E-03
RMM:  12    -0.413161178251E+03    0.50756E-06   -0.93175E-07  2300   0.121E-03
  149 T=    60. E= -.41286677E+03 F= -.41316118E+03 E0= -.41314054E+03  EK= 0.29441E+00 SP= 0.00E+00 SK= 0.00E+00
       N       E                     dE             d eps       ncg     rms          rms(c)
RMM:   1    -0.413154122651E+03    0.70561E-02   -0.94251E+00  4268   0.849E-01    0.791E-01
RMM:   2    -0.413163223066E+03   -0.91004E-02   -0.11161E-01  4318   0.954E-02    0.570E-01
RMM:   3    -0.413162964656E+03    0.25841E-03   -0.62439E-03  5112   0.443E-02    0.174E-01
RMM:   4    -0.413198045599E+03   -0.35081E-01   -0.39271E-02  5146   0.164E-01    0.781E-01
RMM:   5    -0.413162072199E+03    0.35973E-01   -0.17522E-02  4809   0.131E-01    0.547E-02
RMM:   6    -0.413162119761E+03   -0.47562E-04   -0.27821E-03  5661   0.510E-02    0.160E-02
RMM:   7    -0.413162165136E+03   -0.45375E-04   -0.36724E-04  6020   0.154E-02    0.120E-02
RMM:   8    -0.413162180996E+03   -0.15859E-04   -0.45322E-05  5063   0.648E-03    0.671E-03
RMM:   9    -0.413162192243E+03   -0.11247E-04   -0.84130E-06  3068   0.319E-03    0.323E-03
RMM:  10    -0.413162199786E+03   -0.75425E-05   -0.25717E-06  2583   0.209E-03    0.193E-03
RMM:  11    -0.413162206355E+03   -0.65697E-05   -0.16412E-06  2555   0.168E-03    0.122E-03
RMM:  12    -0.413162210062E+03   -0.37067E-05   -0.12277E-06  2470   0.136E-03    0.558E-04
RMM:  13    -0.413162211054E+03   -0.99231E-06   -0.59435E-07  1904   0.988E-04
  150 T=    60. E= -.41286711E+03 F= -.41316221E+03 E0= -.41314157E+03  EK= 0.29510E+00 SP= 0.00E+00 SK= 0.00E+00
