       N       E                     dE             d eps       ncg     rms          rms(c)
RMM:   1     0.220113366805E+04    0.22011E+04   -0.52444E+04  2132   0.654E+02
RMM:   2     0.705633916331E+03   -0.14955E+04   -0.16259E+04  2132   0.177E+02
RMM:   3     0.137702007780E+03   -0.56793E+03   -0.65723E+03  2132   0.117E+02
RMM:   4    -0.159214809293E+03   -0.29692E+03   -0.27844E+03  2132   0.936E+01
RMM:   5    -0.287529914703E+03   -0.12832E+03   -0.11450E+03  2132   0.595E+01
RMM:   6    -0.349818909340E+03   -0.62289E+02   -0.55171E+02  2132   0.423E+01
RMM:   7    -0.382797694000E+03   -0.32979E+02   -0.30489E+02  2132   0.293E+01
RMM:   8    -0.404312381001E+03   -0.21515E+02   -0.18430E+02  2132   0.233E+01
RMM:   9    -0.435940249394E+03   -0.31628E+02   -0.30551E+02  6093   0.173E+01
RMM:  10    -0.441274352161E+03   -0.53341E+01   -0.63454E+01  6393   0.539E+00
RMM:  11    -0.442498480238E+03   -0.12241E+01   -0.11155E+01  6220   0.173E+00
RMM:  12    -0.442879997474E+03   -0.38152E+00   -0.27869E+00  6364   0.606E-01    0.134E+02
RMM:  13    -0.425588424104E+03    0.17292E+02   -0.80777E+01  4679   0.119E+01    0.712E+01
RMM:  14    -0.498993249993E+03   -0.73405E+02   -0.53726E+02  5422   0.232E+01    0.306E+01
RMM:  15    -0.415519414706E+03    0.83474E+02   -0.19785E+02  5086   0.163E+01    0.675E+00
RMM:  16    -0.414026435897E+03    0.14930E+01   -0.39142E+01  6079   0.606E+00    0.426E+00
RMM:  17    -0.413213304135E+03    0.81313E+00   -0.24333E+00  5366   0.185E+00    0.243E+00
RMM:  18    -0.413172555455E+03    0.40749E-01   -0.79537E-01  5983   0.918E-01    0.164E+00
RMM:  19    -0.413169571916E+03    0.29835E-02   -0.27096E-01  5689   0.561E-01    0.860E-01
RMM:  20    -0.413187899181E+03   -0.18327E-01   -0.25836E-01  5495   0.538E-01    0.600E-01
RMM:  21    -0.413168311953E+03    0.19587E-01   -0.34693E-02  4994   0.240E-01    0.273E-01
RMM:  22    -0.413165776463E+03    0.25355E-02   -0.18453E-02  5997   0.124E-01    0.136E-01
RMM:  23    -0.413164600893E+03    0.11756E-02   -0.54979E-03  6003   0.670E-02    0.829E-02
RMM:  24    -0.413163312807E+03    0.12881E-02   -0.15209E-03  5296   0.402E-02    0.465E-02
RMM:  25    -0.413162868436E+03    0.44437E-03   -0.80552E-04  5368   0.272E-02    0.367E-02
RMM:  26    -0.413163018375E+03   -0.14994E-03   -0.90300E-04  5788   0.315E-02    0.336E-02
RMM:  27    -0.413163441335E+03   -0.42296E-03   -0.18726E-04  4584   0.199E-02    0.199E-02
RMM:  28    -0.413163891125E+03   -0.44979E-03   -0.17477E-04  5233   0.186E-02    0.939E-03
RMM:  29    -0.413164294993E+03   -0.40387E-03   -0.11237E-04  4481   0.160E-02    0.422E-03
RMM:  30    -0.413164515583E+03   -0.22059E-03   -0.79542E-05  4372   0.102E-02    0.396E-03
RMM:  31    -0.413164636594E+03   -0.12101E-03   -0.49778E-05  3184   0.671E-03    0.350E-03
RMM:  32    -0.413164658035E+03   -0.21441E-04   -0.19679E-05  2978   0.300E-03    0.169E-03
RMM:  33    -0.413164668198E+03   -0.10163E-04   -0.82362E-06  2777   0.217E-03    0.605E-04
RMM:  34    -0.413164670310E+03   -0.21125E-05   -0.46961E-06  2646   0.165E-03    0.685E-04
RMM:  35    -0.413164669918E+03    0.39265E-06   -0.21869E-06  2339   0.124E-03
    1 T=    61. E= -.41286686E+03 F= -.41316467E+03 E0= -.41314217E+03  EK= 0.29781E+00 SP= 0.00E+00 SK= 0.00E+00
       N       E                     dE             d eps       ncg     rms          rms(c)
RMM:   1    -0.413162132890E+03    0.25374E-02   -0.93387E+00  3983   0.637E-01    0.886E-01
RMM:   2    -0.413168201658E+03   -0.60688E-02   -0.11437E-01  3990   0.917E-02    0.650E-01
RMM:   3    -0.413164628755E+03    0.35729E-02   -0.14499E-02  4778   0.474E-02    0.945E-02
RMM:   4    -0.413186011634E+03   -0.21383E-01   -0.22611E-02  5204   0.125E-01    0.611E-01
RMM:   5    -0.413164222333E+03    0.21789E-01   -0.10661E-02  4851   0.102E-01    0.454E-02
RMM:   6    -0.413164376942E+03   -0.15461E-03   -0.19485E-03  5780   0.428E-02    0.319E-02
RMM:   7    -0.413164376006E+03    0.93690E-06   -0.38078E-04  5649   0.179E-02    0.193E-02
RMM:   8    -0.413164373602E+03    0.24033E-05   -0.44972E-05  4979   0.738E-03    0.840E-03
RMM:   9    -0.413164376413E+03   -0.28103E-05   -0.95853E-06  3398   0.329E-03    0.641E-03
RMM:  10    -0.413164381491E+03   -0.50787E-05   -0.19304E-06  2570   0.211E-03    0.385E-03
RMM:  11    -0.413164386404E+03   -0.49126E-05   -0.13317E-06  2531   0.171E-03    0.199E-03
RMM:  12    -0.413164393130E+03   -0.67261E-05   -0.14518E-06  2538   0.172E-03    0.812E-04
RMM:  13    -0.413164395083E+03   -0.19534E-05   -0.58013E-07  2294   0.116E-03    0.542E-04
RMM:  14    -0.413164395356E+03   -0.27252E-06   -0.32455E-07  1764   0.808E-04
    2 T=    61. E= -.41286660E+03 F= -.41316440E+03 E0= -.41314189E+03  EK= 0.29780E+00 SP= 0.00E+00 SK= 0.00E+00
       N       E                     dE             d eps       ncg     rms          rms(c)
RMM:   1    -0.413162916070E+03    0.14790E-02   -0.93391E+00  4190   0.635E-01    0.905E-01
RMM:   2    -0.413168345419E+03   -0.54293E-02   -0.11290E-01  4024   0.916E-02    0.645E-01
RMM:   3    -0.413165296513E+03    0.30489E-02   -0.13979E-02  4821   0.478E-02    0.112E-01
RMM:   4    -0.413191258999E+03   -0.25962E-01   -0.26923E-02  5171   0.137E-01    0.674E-01
RMM:   5    -0.413164791355E+03    0.26468E-01   -0.12725E-02  4831   0.112E-01    0.480E-02
RMM:   6    -0.413164969384E+03   -0.17803E-03   -0.22914E-03  5762   0.466E-02    0.336E-02
RMM:   7    -0.413164959612E+03    0.97726E-05   -0.41495E-04  5631   0.191E-02    0.205E-02
RMM:   8    -0.413164951005E+03    0.86072E-05   -0.56582E-05  5101   0.837E-03    0.950E-03
RMM:   9    -0.413164949356E+03    0.16482E-05   -0.11425E-05  3687   0.373E-03    0.715E-03
RMM:  10    -0.413164949497E+03   -0.14063E-06   -0.19053E-06  2566   0.223E-03
    3 T=    61. E= -.41286687E+03 F= -.41316495E+03 E0= -.41314245E+03  EK= 0.29808E+00 SP= 0.00E+00 SK= 0.00E+00
       N       E                     dE             d eps       ncg     rms          rms(c)
RMM:   1    -0.413162365296E+03    0.25841E-02   -0.92684E+00  4219   0.637E-01    0.890E-01
RMM:   2    -0.413167896382E+03   -0.55311E-02   -0.11246E-01  4241   0.907E-02    0.639E-01
RMM:   3    -0.413169582731E+03   -0.16863E-02   -0.17226E-02  5153   0.783E-02    0.307E-01
RMM:   4    -0.413190887373E+03   -0.21305E-01   -0.39710E-02  5124   0.170E-01    0.669E-01
RMM:   5    -0.413164654000E+03    0.26233E-01   -0.10281E-02  4717   0.110E-01    0.605E-02
RMM:   6    -0.413164681902E+03   -0.27902E-04   -0.19689E-03  5486   0.446E-02    0.311E-02
RMM:   7    -0.413164700813E+03   -0.18911E-04   -0.36883E-04  6016   0.172E-02    0.190E-02
RMM:   8    -0.413164696904E+03    0.39085E-05   -0.66473E-05  5202   0.926E-03    0.798E-03
RMM:   9    -0.413164694762E+03    0.21426E-05   -0.86895E-06  3478   0.372E-03    0.404E-03
RMM:  10    -0.413164695868E+03   -0.11063E-05   -0.18363E-06  2562   0.216E-03    0.263E-03
RMM:  11    -0.413164697542E+03   -0.16745E-05   -0.14421E-06  2537   0.187E-03    0.156E-03
RMM:  12    -0.413164698385E+03   -0.84269E-06   -0.76666E-07  2495   0.143E-03
    4 T=    61. E= -.41286657E+03 F= -.41316470E+03 E0= -.41314221E+03  EK= 0.29813E+00 SP= 0.00E+00 SK= 0.00E+00
       N       E                     dE             d eps       ncg     rms          rms(c)
RMM:   1    -0.413162333200E+03    0.23643E-02   -0.93295E+00  4236   0.643E-01    0.883E-01
RMM:   2    -0.413168398179E+03   -0.60650E-02   -0.11450E-01  4054   0.892E-02    0.649E-01
RMM:   3    -0.413165378470E+03    0.30197E-02   -0.14628E-02  4953   0.471E-02    0.117E-01
RMM:   4    -0.413196436945E+03   -0.31058E-01   -0.32940E-02  5147   0.152E-01    0.736E-01
RMM:   5    -0.413164651481E+03    0.31785E-01   -0.15068E-02  4812   0.122E-01    0.492E-02
RMM:   6    -0.413164851769E+03   -0.20029E-03   -0.26452E-03  5765   0.501E-02    0.325E-02
RMM:   7    -0.413164858240E+03   -0.64703E-05   -0.43793E-04  5747   0.191E-02    0.208E-02
RMM:   8    -0.413164854723E+03    0.35161E-05   -0.65277E-05  5127   0.868E-03    0.971E-03
RMM:   9    -0.413164855342E+03   -0.61870E-06   -0.12618E-05  3860   0.400E-03    0.711E-03
RMM:  10    -0.413164859360E+03   -0.40174E-05   -0.19533E-06  2577   0.220E-03    0.444E-03
RMM:  11    -0.413164863154E+03   -0.37943E-05   -0.12777E-06  2535   0.177E-03    0.240E-03
RMM:  12    -0.413164868904E+03   -0.57500E-05   -0.18600E-06  2594   0.197E-03    0.103E-03
RMM:  13    -0.413164870462E+03   -0.15577E-05   -0.57424E-07  2376   0.129E-03    0.728E-04
RMM:  14    -0.413164870429E+03    0.32705E-07   -0.24337E-07  1894   0.853E-04
    5 T=    61. E= -.41286662E+03 F= -.41316487E+03 E0= -.41314239E+03  EK= 0.29825E+00 SP= 0.00E+00 SK= 0.00E+00
       N       E                     dE             d eps       ncg     rms          rms(c)
RMM:   1    -0.413163427130E+03    0.14433E-02   -0.93454E+00  4246   0.654E-01    0.902E-01
RMM:   2    -0.413168503556E+03   -0.50764E-02   -0.11367E-01  4058   0.911E-02    0.647E-01
RMM:   3    -0.413165615387E+03    0.28882E-02   -0.14042E-02  4810   0.447E-02    0.104E-01
RMM:   4    -0.413188144857E+03   -0.22529E-01   -0.23188E-02  5154   0.127E-01    0.629E-01
RMM:   5    -0.413165202717E+03    0.22942E-01   -0.11095E-02  4822   0.104E-01    0.461E-02
RMM:   6    -0.413165360107E+03   -0.15739E-03   -0.20263E-03  5774   0.433E-02    0.319E-02
RMM:   7    -0.413165353331E+03    0.67759E-05   -0.37220E-04  5601   0.184E-02    0.198E-02
RMM:   8    -0.413165344547E+03    0.87841E-05   -0.51177E-05  4950   0.805E-03    0.930E-03
RMM:   9    -0.413165343138E+03    0.14090E-05   -0.10066E-05  3585   0.359E-03    0.711E-03
RMM:  10    -0.413165343521E+03   -0.38322E-06   -0.17989E-06  2554   0.221E-03
    6 T=    61. E= -.41286690E+03 F= -.41316534E+03 E0= -.41314288E+03  EK= 0.29844E+00 SP= 0.00E+00 SK= 0.00E+00
       N       E                     dE             d eps       ncg     rms          rms(c)
RMM:   1    -0.413162892950E+03    0.24502E-02   -0.92895E+00  4255   0.649E-01    0.897E-01
RMM:   2    -0.413168305639E+03   -0.54127E-02   -0.11266E-01  4256   0.898E-02    0.640E-01
RMM:   3    -0.413169396273E+03   -0.10906E-02   -0.16825E-02  5127   0.740E-02    0.289E-01
RMM:   4    -0.413193044328E+03   -0.23648E-01   -0.40552E-02  5107   0.171E-01    0.690E-01
RMM:   5    -0.413165057112E+03    0.27987E-01   -0.11243E-02  4722   0.113E-01    0.603E-02
RMM:   6    -0.413165106933E+03   -0.49821E-04   -0.21409E-03  5511   0.461E-02    0.316E-02
RMM:   7    -0.413165122880E+03   -0.15947E-04   -0.38041E-04  6002   0.173E-02    0.192E-02
RMM:   8    -0.413165117652E+03    0.52279E-05   -0.66609E-05  5181   0.920E-03    0.806E-03
RMM:   9    -0.413165114012E+03    0.36397E-05   -0.86641E-06  3434   0.365E-03    0.416E-03
RMM:  10    -0.413165113844E+03    0.16820E-06   -0.19848E-06  2572   0.220E-03
    7 T=    61. E= -.41286665E+03 F= -.41316511E+03 E0= -.41314267E+03  EK= 0.29847E+00 SP= 0.00E+00 SK= 0.00E+00
       N       E                     dE             d eps       ncg     rms          rms(c)
RMM:   1    -0.413163154577E+03    0.19594E-02   -0.93084E+00  4268   0.654E-01    0.882E-01
RMM:   2    -0.413169357599E+03   -0.62030E-02   -0.11388E-01  4136   0.898E-02    0.646E-01
RMM:   3    -0.413166319056E+03    0.30385E-02   -0.14559E-02  4943   0.500E-02    0.125E-01
RMM:   4    -0.413199688050E+03   -0.33369E-01   -0.35820E-02  5141   0.158E-01    0.762E-01
RMM:   5    -0.413165487691E+03    0.34200E-01   -0.16280E-02  4804   0.127E-01    0.507E-02
RMM:   6    -0.413165689105E+03   -0.20141E-03   -0.27749E-03  5746   0.519E-02    0.330E-02
RMM:   7    -0.413165691937E+03   -0.28327E-05   -0.46094E-04  5792   0.194E-02    0.210E-02
RMM:   8    -0.413165688242E+03    0.36949E-05   -0.67073E-05  5169   0.880E-03    0.964E-03
RMM:   9    -0.413165687840E+03    0.40222E-06   -0.12882E-05  3863   0.403E-03    0.687E-03
RMM:  10    -0.413165690729E+03   -0.28885E-05   -0.20344E-06  2580   0.220E-03    0.428E-03
RMM:  11    -0.413165693408E+03   -0.26794E-05   -0.12045E-06  2519   0.174E-03    0.229E-03
RMM:  12    -0.413165697216E+03   -0.38078E-05   -0.18467E-06  2598   0.193E-03    0.999E-04
RMM:  13    -0.413165698340E+03   -0.11244E-05   -0.58148E-07  2368   0.127E-03    0.717E-04
RMM:  14    -0.413165698137E+03    0.20361E-06   -0.23535E-07  1862   0.839E-04
    8 T=    61. E= -.41286689E+03 F= -.41316570E+03 E0= -.41314327E+03  EK= 0.29881E+00 SP= 0.00E+00 SK= 0.00E+00
       N       E                     dE             d eps       ncg     rms          rms(c)
RMM:   1    -0.413163662461E+03    0.20359E-02   -0.93500E+00  4281   0.662E-01    0.898E-01
RMM:   2    -0.413169472737E+03   -0.58103E-02   -0.11380E-01  4163   0.919E-02    0.649E-01
RMM:   3    -0.413166193160E+03    0.32796E-02   -0.14240E-02  4823   0.464E-02    0.104E-01
RMM:   4    -0.413190274733E+03   -0.24082E-01   -0.24904E-02  5141   0.131E-01    0.650E-01
RMM:   5    -0.413165727219E+03    0.24548E-01   -0.11931E-02  4812   0.107E-01    0.460E-02
RMM:   6    -0.413165885747E+03   -0.15853E-03   -0.20596E-03  5771   0.440E-02    0.311E-02
RMM:   7    -0.413165881934E+03    0.38132E-05   -0.36958E-04  5631   0.183E-02    0.196E-02
RMM:   8    -0.413165872849E+03    0.90843E-05   -0.54797E-05  4973   0.821E-03    0.925E-03
RMM:   9    -0.413165871263E+03    0.15868E-05   -0.10944E-05  3686   0.373E-03    0.703E-03
RMM:  10    -0.413165871792E+03   -0.52910E-06   -0.17674E-06  2554   0.218E-03
    9 T=    61. E= -.41286679E+03 F= -.41316587E+03 E0= -.41314346E+03  EK= 0.29908E+00 SP= 0.00E+00 SK= 0.00E+00
       N       E                     dE             d eps       ncg     rms          rms(c)
RMM:   1    -0.413163901994E+03    0.19693E-02   -0.93226E+00  4296   0.664E-01    0.904E-01
RMM:   2    -0.413169286440E+03   -0.53844E-02   -0.11272E-01  4291   0.930E-02    0.642E-01
RMM:   3    -0.413170093510E+03   -0.80707E-03   -0.16832E-02  5104   0.752E-02    0.286E-01
RMM:   4    -0.413194111639E+03   -0.24018E-01   -0.40490E-02  5092   0.171E-01    0.693E-01
RMM:   5    -0.413165852048E+03    0.28260E-01   -0.11383E-02  4718   0.113E-01    0.597E-02
RMM:   6    -0.413165911626E+03   -0.59578E-04   -0.21565E-03  5529   0.461E-02    0.320E-02
RMM:   7    -0.413165921000E+03   -0.93745E-05   -0.37674E-04  5982   0.172E-02    0.193E-02
RMM:   8    -0.413165914414E+03    0.65866E-05   -0.66334E-05  5168   0.918E-03    0.812E-03
RMM:   9    -0.413165909451E+03    0.49633E-05   -0.86972E-06  3419   0.367E-03    0.420E-03
RMM:  10    -0.413165908188E+03    0.12627E-05   -0.20546E-06  2578   0.221E-03    0.277E-03
RMM:  11    -0.413165906179E+03    0.20091E-05   -0.12912E-06  2516   0.181E-03    0.151E-03
RMM:  12    -0.413165904267E+03    0.19117E-05   -0.77662E-07  2477   0.143E-03    0.583E-04
RMM:  13    -0.413165903232E+03    0.10356E-05   -0.38591E-07  2135   0.102E-03    0.340E-04
RMM:  14    -0.413165902246E+03    0.98510E-06   -0.23329E-07  1666   0.813E-04
   10 T=    61. E= -.41286653E+03 F= -.41316590E+03 E0= -.41314352E+03  EK= 0.29937E+00 SP= 0.00E+00 SK= 0.00E+00
       N       E                     dE             d eps       ncg     rms          rms(c)
RMM:   1    -0.413164158181E+03    0.17451E-02   -0.92991E+00  4292   0.666E-01    0.883E-01
RMM:   2    -0.413170188000E+03   -0.60298E-02   -0.11379E-01  4211   0.928E-02    0.644E-01
RMM:   3    -0.413167208439E+03    0.29796E-02   -0.14312E-02  4882   0.501E-02    0.121E-01
RMM:   4    -0.413198932003E+03   -0.31724E-01   -0.33760E-02  5132   0.153E-01    0.743E-01
RMM:   5    -0.413166472409E+03    0.32460E-01   -0.15577E-02  4799   0.123E-01    0.497E-02
RMM:   6    -0.413166668023E+03   -0.19561E-03   -0.26345E-03  5747   0.503E-02    0.333E-02
RMM:   7    -0.413166666616E+03    0.14069E-05   -0.44205E-04  5705   0.192E-02    0.208E-02
RMM:   8    -0.413166660845E+03    0.57712E-05   -0.63851E-05  5143   0.869E-03    0.960E-03
RMM:   9    -0.413166659109E+03    0.17354E-05   -0.12666E-05  3841   0.400E-03    0.695E-03
RMM:  10    -0.413166660318E+03   -0.12084E-05   -0.19256E-06  2569   0.217E-03    0.433E-03
RMM:  11    -0.413166661524E+03   -0.12066E-05   -0.12216E-06  2520   0.174E-03    0.227E-03
RMM:  12    -0.413166663140E+03   -0.16151E-05   -0.16202E-06  2565   0.187E-03    0.974E-04
RMM:  13    -0.413166663485E+03   -0.34527E-06   -0.51969E-07  2348   0.125E-03
   11 T=    61. E= -.41286677E+03 F= -.41316666E+03 E0= -.41314430E+03  EK= 0.29989E+00 SP= 0.00E+00 SK= 0.00E+00
       N       E                     dE             d eps       ncg     rms          rms(c)
RMM:   1    -0.413164298643E+03    0.23645E-02   -0.93688E+00  4292   0.672E-01    0.894E-01
RMM:   2    -0.413170133301E+03   -0.58347E-02   -0.11450E-01  4231   0.931E-02    0.651E-01
RMM:   3    -0.413166999103E+03    0.31342E-02   -0.14483E-02  4815   0.472E-02    0.105E-01
RMM:   4    -0.413192857898E+03   -0.25859E-01   -0.26977E-02  5129   0.136E-01    0.672E-01
RMM:   5    -0.413166469933E+03    0.26388E-01   -0.12715E-02  4803   0.111E-01    0.467E-02
RMM:   6    -0.413166643130E+03   -0.17320E-03   -0.22652E-03  5798   0.453E-02    0.310E-02
RMM:   7    -0.413166642711E+03    0.41977E-06   -0.37039E-04  5665   0.183E-02    0.198E-02
RMM:   8    -0.413166634095E+03    0.86158E-05   -0.61007E-05  4988   0.848E-03    0.970E-03
RMM:   9    -0.413166632175E+03    0.19203E-05   -0.11840E-05  3839   0.393E-03    0.734E-03
RMM:  10    -0.413166632840E+03   -0.66542E-06   -0.17900E-06  2552   0.219E-03
   12 T=    61. E= -.41286653E+03 F= -.41316663E+03 E0= -.41314430E+03  EK= 0.30010E+00 SP= 0.00E+00 SK= 0.00E+00
       N       E                     dE             d eps       ncg     rms          rms(c)
RMM:   1    -0.413165361976E+03    0.12702E-02   -0.93570E+00  4304   0.678E-01    0.909E-01
RMM:   2    -0.413170178622E+03   -0.48166E-02   -0.11326E-01  4306   0.891E-02    0.645E-01
RMM:   3    -0.413172246653E+03   -0.20680E-02   -0.17689E-02  5127   0.776E-02    0.312E-01
RMM:   4    -0.413192852645E+03   -0.20606E-01   -0.39657E-02  5092   0.169E-01    0.661E-01
RMM:   5    -0.413167172175E+03    0.25680E-01   -0.99964E-03  4694   0.108E-01    0.594E-02
RMM:   6    -0.413167210886E+03   -0.38711E-04   -0.19660E-03  5479   0.438E-02    0.320E-02
RMM:   7    -0.413167219178E+03   -0.82918E-05   -0.35874E-04  5964   0.171E-02    0.193E-02
RMM:   8    -0.413167211280E+03    0.78979E-05   -0.64062E-05  5146   0.911E-03    0.801E-03
RMM:   9    -0.413167205600E+03    0.56801E-05   -0.81554E-06  3384   0.363E-03    0.410E-03
RMM:  10    -0.413167203680E+03    0.19199E-05   -0.18348E-06  2545   0.216E-03    0.267E-03
RMM:  11    -0.413167200543E+03    0.31370E-05   -0.13164E-06  2515   0.182E-03    0.150E-03
RMM:  12    -0.413167197887E+03    0.26560E-05   -0.72208E-07  2471   0.141E-03    0.587E-04
RMM:  13    -0.413167196296E+03    0.15918E-05   -0.37498E-07  2121   0.101E-03    0.339E-04
RMM:  14    -0.413167194820E+03    0.14751E-05   -0.22227E-07  1640   0.803E-04    0.230E-04
RMM:  15    -0.413167192364E+03    0.24561E-05   -0.21095E-07  1519   0.759E-04    0.146E-04
RMM:  16    -0.413167190116E+03    0.22486E-05   -0.16784E-07  1385   0.700E-04    0.134E-04
RMM:  17    -0.413167187804E+03    0.23113E-05   -0.14809E-07  1363   0.672E-04    0.760E-05
RMM:  18    -0.413167186798E+03    0.10068E-05   -0.69247E-08   993   0.575E-04    0.443E-05
RMM:  19    -0.413167185808E+03    0.98998E-06   -0.48497E-08   902   0.553E-04
   13 T=    61. E= -.41286668E+03 F= -.41316719E+03 E0= -.41314488E+03  EK= 0.30051E+00 SP= 0.00E+00 SK= 0.00E+00
       N       E                     dE             d eps       ncg     rms          rms(c)
RMM:   1    -0.413165452692E+03    0.17341E-02   -0.92965E+00  4292   0.684E-01    0.885E-01
RMM:   2    -0.413171188864E+03   -0.57362E-02   -0.11361E-01  4236   0.883E-02    0.643E-01
RMM:   3    -0.413168525472E+03    0.26634E-02   -0.14253E-02  4959   0.474E-02    0.129E-01
RMM:   4    -0.413202379150E+03   -0.33854E-01   -0.36619E-02  5129   0.159E-01    0.767E-01
RMM:   5    -0.413167698991E+03    0.34680E-01   -0.16656E-02  4796   0.127E-01    0.510E-02
RMM:   6    -0.413167896598E+03   -0.19761E-03   -0.28230E-03  5750   0.517E-02    0.340E-02
RMM:   7    -0.413167892647E+03    0.39507E-05   -0.45807E-04  5673   0.196E-02    0.213E-02
RMM:   8    -0.413167885435E+03    0.72122E-05   -0.68212E-05  5169   0.896E-03    0.991E-03
RMM:   9    -0.413167882262E+03    0.31730E-05   -0.13608E-05  3954   0.415E-03    0.707E-03
RMM:  10    -0.413167882050E+03    0.21253E-06   -0.19981E-06  2563   0.220E-03
   14 T=    61. E= -.41286687E+03 F= -.41316788E+03 E0= -.41314561E+03  EK= 0.30101E+00 SP= 0.00E+00 SK= 0.00E+00
       N       E                     dE             d eps       ncg     rms          rms(c)
RMM:   1    -0.413165776364E+03    0.21059E-02   -0.93863E+00  4308   0.692E-01    0.891E-01
RMM:   2    -0.413171643930E+03   -0.58676E-02   -0.11493E-01  4336   0.906E-02    0.653E-01
RMM:   3    -0.413174233657E+03   -0.25897E-02   -0.19323E-02  5124   0.847E-02    0.343E-01
RMM:   4    -0.413193125683E+03   -0.18892E-01   -0.41674E-02  5074   0.174E-01    0.655E-01
RMM:   5    -0.413167851948E+03    0.25274E-01   -0.94870E-03  4673   0.106E-01    0.589E-02
RMM:   6    -0.413167873719E+03   -0.21772E-04   -0.18757E-03  5447   0.425E-02    0.300E-02
RMM:   7    -0.413167889958E+03   -0.16238E-04   -0.33711E-04  5976   0.168E-02    0.185E-02
RMM:   8    -0.413167887397E+03    0.25609E-05   -0.63846E-05  5139   0.908E-03    0.764E-03
RMM:   9    -0.413167885347E+03    0.20496E-05   -0.81452E-06  3359   0.366E-03    0.387E-03
RMM:  10    -0.413167886301E+03   -0.95425E-06   -0.16407E-06  2536   0.208E-03
   15 T=    61. E= -.41286653E+03 F= -.41316789E+03 E0= -.41314565E+03  EK= 0.30136E+00 SP= 0.00E+00 SK= 0.00E+00
       N       E                     dE             d eps       ncg     rms          rms(c)
RMM:   1    -0.413167034029E+03    0.85132E-03   -0.93869E+00  4303   0.688E-01    0.910E-01
RMM:   2    -0.413172413244E+03   -0.53792E-02   -0.11382E-01  4250   0.929E-02    0.648E-01
RMM:   3    -0.413169590299E+03    0.28229E-02   -0.14325E-02  4914   0.508E-02    0.135E-01
RMM:   4    -0.413203998097E+03   -0.34408E-01   -0.37059E-02  5123   0.160E-01    0.773E-01
RMM:   5    -0.413168759306E+03    0.35239E-01   -0.16890E-02  4796   0.128E-01    0.519E-02
RMM:   6    -0.413168964798E+03   -0.20549E-03   -0.29173E-03  5748   0.527E-02    0.351E-02
RMM:   7    -0.413168954666E+03    0.10132E-04   -0.47700E-04  5718   0.202E-02    0.222E-02
RMM:   8    -0.413168942465E+03    0.12201E-04   -0.71130E-05  5167   0.915E-03    0.105E-02
RMM:   9    -0.413168936456E+03    0.60095E-05   -0.13663E-05  3968   0.417E-03    0.748E-03
RMM:  10    -0.413168932546E+03    0.39100E-05   -0.21258E-06  2575   0.229E-03    0.461E-03
RMM:  11    -0.413168929595E+03    0.29508E-05   -0.11815E-06  2507   0.175E-03    0.261E-03
RMM:  12    -0.413168924161E+03    0.54336E-05   -0.19067E-06  2589   0.205E-03    0.110E-03
RMM:  13    -0.413168921531E+03    0.26305E-05   -0.64135E-07  2407   0.137E-03    0.850E-04
RMM:  14    -0.413168921549E+03   -0.17862E-07   -0.25791E-07  1956   0.893E-04
   16 T=    62. E= -.41286682E+03 F= -.41316892E+03 E0= -.41314672E+03  EK= 0.30210E+00 SP= 0.00E+00 SK= 0.00E+00
       N       E                     dE             d eps       ncg     rms          rms(c)
RMM:   1    -0.413167080568E+03    0.18410E-02   -0.93188E+00  4297   0.692E-01    0.891E-01
RMM:   2    -0.413172983925E+03   -0.59034E-02   -0.11360E-01  4262   0.945E-02    0.643E-01
RMM:   3    -0.413169830282E+03    0.31536E-02   -0.14026E-02  4811   0.501E-02    0.116E-01
RMM:   4    -0.413198667995E+03   -0.28838E-01   -0.30364E-02  5123   0.145E-01    0.709E-01
RMM:   5    -0.413169209867E+03    0.29458E-01   -0.14254E-02  4798   0.117E-01    0.486E-02
RMM:   6    -0.413169399707E+03   -0.18984E-03   -0.25310E-03  5789   0.479E-02    0.328E-02
RMM:   7    -0.413169393682E+03    0.60257E-05   -0.40426E-04  5647   0.190E-02    0.206E-02
RMM:   8    -0.413169381783E+03    0.11898E-04   -0.66215E-05  5048   0.885E-03    0.102E-02
RMM:   9    -0.413169376861E+03    0.49224E-05   -0.12925E-05  3948   0.410E-03    0.760E-03
RMM:  10    -0.413169374266E+03    0.25952E-05   -0.19154E-06  2565   0.223E-03    0.470E-03
RMM:  11    -0.413169372035E+03    0.22308E-05   -0.12754E-06  2511   0.183E-03    0.250E-03
RMM:  12    -0.413169368659E+03    0.33764E-05   -0.16601E-06  2552   0.196E-03    0.102E-03
RMM:  13    -0.413169367326E+03    0.13326E-05   -0.52297E-07  2355   0.128E-03    0.686E-04
RMM:  14    -0.413169367146E+03    0.18024E-06   -0.23303E-07  1887   0.850E-04
   17 T=    62. E= -.41286663E+03 F= -.41316937E+03 E0= -.41314721E+03  EK= 0.30274E+00 SP= 0.00E+00 SK= 0.00E+00
       N       E                     dE             d eps       ncg     rms          rms(c)
RMM:   1    -0.413167599988E+03    0.17673E-02   -0.94081E+00  4295   0.701E-01    0.890E-01
RMM:   2    -0.413173582931E+03   -0.59829E-02   -0.11577E-01  4267   0.945E-02    0.654E-01
RMM:   3    -0.413170330213E+03    0.32527E-02   -0.14940E-02  4862   0.504E-02    0.114E-01
RMM:   4    -0.413200569351E+03   -0.30239E-01   -0.32108E-02  5121   0.149E-01    0.726E-01
RMM:   5    -0.413169648852E+03    0.30920E-01   -0.14964E-02  4795   0.120E-01    0.488E-02
RMM:   6    -0.413169840192E+03   -0.19134E-03   -0.25831E-03  5776   0.489E-02    0.326E-02
RMM:   7    -0.413169839285E+03    0.90639E-06   -0.42400E-04  5645   0.190E-02    0.206E-02
RMM:   8    -0.413169831595E+03    0.76902E-05   -0.64336E-05  5080   0.871E-03    0.976E-03
RMM:   9    -0.413169829032E+03    0.25630E-05   -0.12902E-05  3894   0.405E-03    0.717E-03
RMM:  10    -0.413169829270E+03   -0.23812E-06   -0.18727E-06  2558   0.217E-03
   18 T=    62. E= -.41286646E+03 F= -.41316983E+03 E0= -.41314771E+03  EK= 0.30337E+00 SP= 0.00E+00 SK= 0.00E+00
       N       E                     dE             d eps       ncg     rms          rms(c)
RMM:   1    -0.413169136185E+03    0.69285E-03   -0.94227E+00  4300   0.703E-01    0.910E-01
RMM:   2    -0.413174337055E+03   -0.52009E-02   -0.11486E-01  4338   0.913E-02    0.651E-01
RMM:   3    -0.413176630067E+03   -0.22930E-02   -0.18335E-02  5118   0.808E-02    0.325E-01
RMM:   4    -0.413196609492E+03   -0.19979E-01   -0.40599E-02  5082   0.171E-01    0.659E-01
RMM:   5    -0.413171048894E+03    0.25561E-01   -0.98283E-03  4679   0.107E-01    0.591E-02
RMM:   6    -0.413171083079E+03   -0.34185E-04   -0.19403E-03  5463   0.432E-02    0.317E-02
RMM:   7    -0.413171088341E+03   -0.52617E-05   -0.35668E-04  5958   0.172E-02    0.194E-02
RMM:   8    -0.413171080371E+03    0.79701E-05   -0.65896E-05  5147   0.922E-03    0.809E-03
RMM:   9    -0.413171073713E+03    0.66575E-05   -0.83360E-06  3416   0.371E-03    0.407E-03
RMM:  10    -0.413171071305E+03    0.24079E-05   -0.17893E-06  2546   0.215E-03    0.263E-03
RMM:  11    -0.413171067319E+03    0.39865E-05   -0.12720E-06  2510   0.180E-03    0.149E-03
RMM:  12    -0.413171064038E+03    0.32812E-05   -0.66589E-07  2458   0.138E-03    0.575E-04
RMM:  13    -0.413171061979E+03    0.20583E-05   -0.34328E-07  2106   0.990E-04    0.331E-04
RMM:  14    -0.413171060156E+03    0.18237E-05   -0.19486E-07  1586   0.781E-04    0.227E-04
RMM:  15    -0.413171056848E+03    0.33079E-05   -0.17728E-07  1427   0.734E-04    0.142E-04
RMM:  16    -0.413171054194E+03    0.26542E-05   -0.12581E-07  1266   0.671E-04    0.126E-04
RMM:  17    -0.413171051110E+03    0.30839E-05   -0.12033E-07  1328   0.666E-04    0.736E-05
RMM:  18    -0.413171049573E+03    0.15362E-05   -0.62454E-08   980   0.582E-04    0.444E-05
RMM:  19    -0.413171048518E+03    0.10555E-05   -0.38374E-08   864   0.555E-04    0.296E-05
RMM:  20    -0.413171048225E+03    0.29261E-06   -0.17492E-08   710   0.531E-04
   19 T=    62. E= -.41286690E+03 F= -.41317105E+03 E0= -.41314897E+03  EK= 0.30415E+00 SP= 0.00E+00 SK= 0.00E+00
       N       E                     dE             d eps       ncg     rms          rms(c)
RMM:   1    -0.413170903907E+03    0.14461E-03   -0.93793E+00  4296   0.712E-01    0.899E-01
RMM:   2    -0.413174513023E+03   -0.36091E-02   -0.11480E-01  4273   0.896E-02    0.645E-01
RMM:   3    -0.413172194023E+03    0.23190E-02   -0.14319E-02  4973   0.489E-02    0.141E-01
RMM:   4    -0.413208176678E+03   -0.35983E-01   -0.39459E-02  5128   0.165E-01    0.791E-01
RMM:   5    -0.413171251023E+03    0.36926E-01   -0.17738E-02  4787   0.131E-01    0.526E-02
RMM:   6    -0.413171455890E+03   -0.20487E-03   -0.29998E-03  5743   0.534E-02    0.353E-02
RMM:   7    -0.413171448727E+03    0.71630E-05   -0.48065E-04  5667   0.204E-02    0.222E-02
RMM:   8    -0.413171438285E+03    0.10441E-04   -0.74763E-05  5215   0.943E-03    0.105E-02
RMM:   9    -0.413171432161E+03    0.61243E-05   -0.14780E-05  4086   0.433E-03    0.733E-03
RMM:  10    -0.413171428630E+03    0.35310E-05   -0.21614E-06  2576   0.228E-03    0.459E-03
RMM:  11    -0.413171426170E+03    0.24606E-05   -0.10910E-06  2502   0.169E-03    0.264E-03
RMM:  12    -0.413171421640E+03    0.45298E-05   -0.16665E-06  2554   0.198E-03    0.109E-03
RMM:  13    -0.413171419218E+03    0.24214E-05   -0.62860E-07  2384   0.137E-03    0.886E-04
RMM:  14    -0.413171419316E+03   -0.97254E-07   -0.25894E-07  1971   0.899E-04
   20 T=    62. E= -.41286671E+03 F= -.41317142E+03 E0= -.41314939E+03  EK= 0.30471E+00 SP= 0.00E+00 SK= 0.00E+00
       N       E                     dE             d eps       ncg     rms          rms(c)
RMM:   1    -0.413170176931E+03    0.12423E-02   -0.94201E+00  4292   0.711E-01    0.890E-01
RMM:   2    -0.413176245290E+03   -0.60684E-02   -0.11631E-01  4277   0.905E-02    0.654E-01
RMM:   3    -0.413172960461E+03    0.32848E-02   -0.14893E-02  4866   0.472E-02    0.106E-01
RMM:   4    -0.413199988609E+03   -0.27028E-01   -0.28462E-02  5128   0.140E-01    0.687E-01
RMM:   5    -0.413172398373E+03    0.27590E-01   -0.13480E-02  4796   0.114E-01    0.471E-02
RMM:   6    -0.413172562008E+03   -0.16364E-03   -0.23119E-03  5816   0.459E-02    0.304E-02
RMM:   7    -0.413172563842E+03   -0.18342E-05   -0.34955E-04  5647   0.181E-02    0.188E-02
RMM:   8    -0.413172555908E+03    0.79339E-05   -0.67153E-05  5014   0.870E-03    0.100E-02
RMM:   9    -0.413172551893E+03    0.40152E-05   -0.12839E-05  3985   0.415E-03    0.740E-03
RMM:  10    -0.413172551268E+03    0.62489E-06   -0.17843E-06  2551   0.217E-03
   21 T=    62. E= -.41286694E+03 F= -.41317255E+03 E0= -.41315056E+03  EK= 0.30561E+00 SP= 0.00E+00 SK= 0.00E+00
       N       E                     dE             d eps       ncg     rms          rms(c)
RMM:   1    -0.413171998790E+03    0.55310E-03   -0.94633E+00  4297   0.729E-01    0.908E-01
RMM:   2    -0.413177277807E+03   -0.52790E-02   -0.11609E-01  4335   0.943E-02    0.655E-01
RMM:   3    -0.413178269913E+03   -0.99211E-03   -0.17780E-02  5111   0.768E-02    0.297E-01
RMM:   4    -0.413203338640E+03   -0.25069E-01   -0.43566E-02  5095   0.176E-01    0.709E-01
RMM:   5    -0.413173578903E+03    0.29760E-01   -0.11987E-02  4703   0.116E-01    0.587E-02
RMM:   6    -0.413173655186E+03   -0.76282E-04   -0.22822E-03  5554   0.469E-02    0.320E-02
RMM:   7    -0.413173661805E+03   -0.66194E-05   -0.38877E-04  5922   0.179E-02    0.198E-02
RMM:   8    -0.413173654089E+03    0.77165E-05   -0.69096E-05  5154   0.935E-03    0.837E-03
RMM:   9    -0.413173647786E+03    0.63023E-05   -0.98280E-06  3518   0.386E-03    0.434E-03
RMM:  10    -0.413173645279E+03    0.25069E-05   -0.20909E-06  2577   0.221E-03    0.288E-03
RMM:  11    -0.413173641768E+03    0.35111E-05   -0.11615E-06  2502   0.175E-03    0.150E-03
RMM:  12    -0.413173638000E+03    0.37680E-05   -0.72136E-07  2459   0.140E-03    0.517E-04
RMM:  13    -0.413173635927E+03    0.20737E-05   -0.35540E-07  2120   0.100E-03    0.303E-04
RMM:  14    -0.413173634126E+03    0.18010E-05   -0.19978E-07  1609   0.782E-04    0.193E-04
RMM:  15    -0.413173630882E+03    0.32440E-05   -0.16398E-07  1417   0.728E-04    0.141E-04
RMM:  16    -0.413173628532E+03    0.23494E-05   -0.10952E-07  1243   0.664E-04    0.139E-04
RMM:  17    -0.413173626316E+03    0.22158E-05   -0.83760E-08  1140   0.628E-04    0.779E-05
RMM:  18    -0.413173623999E+03    0.23171E-05   -0.70586E-08  1105   0.609E-04    0.332E-05
RMM:  19    -0.413173622903E+03    0.10966E-05   -0.36062E-08   860   0.560E-04    0.269E-05
RMM:  20    -0.413173622520E+03    0.38306E-06   -0.18092E-08   747   0.543E-04
   22 T=    62. E= -.41286702E+03 F= -.41317362E+03 E0= -.41315168E+03  EK= 0.30661E+00 SP= 0.00E+00 SK= 0.00E+00
       N       E                     dE             d eps       ncg     rms          rms(c)
RMM:   1    -0.413172373670E+03    0.12492E-02   -0.94324E+00  4295   0.715E-01    0.909E-01
RMM:   2    -0.413177860215E+03   -0.54865E-02   -0.11524E-01  4287   0.940E-02    0.649E-01
RMM:   3    -0.413174890175E+03    0.29700E-02   -0.14392E-02  4898   0.503E-02    0.131E-01
RMM:   4    -0.413208285453E+03   -0.33395E-01   -0.35814E-02  5123   0.157E-01    0.761E-01
RMM:   5    -0.413174130267E+03    0.34155E-01   -0.16596E-02  4789   0.127E-01    0.511E-02
RMM:   6    -0.413174322117E+03   -0.19185E-03   -0.28361E-03  5782   0.515E-02    0.349E-02
RMM:   7    -0.413174313577E+03    0.85396E-05   -0.44848E-04  5655   0.201E-02    0.217E-02
RMM:   8    -0.413174300921E+03    0.12657E-04   -0.74957E-05  5147   0.938E-03    0.108E-02
RMM:   9    -0.413174293659E+03    0.72617E-05   -0.14577E-05  4095   0.435E-03    0.765E-03
RMM:  10    -0.413174288838E+03    0.48206E-05   -0.21029E-06  2583   0.227E-03    0.473E-03
RMM:  11    -0.413174285155E+03    0.36838E-05   -0.12066E-06  2510   0.177E-03    0.265E-03
RMM:  12    -0.413174278809E+03    0.63456E-05   -0.17546E-06  2554   0.204E-03    0.111E-03
RMM:  13    -0.413174275603E+03    0.32056E-05   -0.58181E-07  2372   0.135E-03    0.851E-04
RMM:  14    -0.413174275919E+03   -0.31554E-06   -0.25515E-07  1972   0.885E-04
   23 T=    63. E= -.41286668E+03 F= -.41317428E+03 E0= -.41315238E+03  EK= 0.30759E+00 SP= 0.00E+00 SK= 0.00E+00
       N       E                     dE             d eps       ncg     rms          rms(c)
RMM:   1    -0.413173850390E+03    0.42521E-03   -0.94549E+00  4297   0.732E-01    0.892E-01
RMM:   2    -0.413179926394E+03   -0.60760E-02   -0.11704E-01  4285   0.968E-02    0.654E-01
RMM:   3    -0.413176166067E+03    0.37603E-02   -0.14701E-02  4774   0.482E-02    0.994E-02
RMM:   4    -0.413199149991E+03   -0.22984E-01   -0.23767E-02  5130   0.128E-01    0.634E-01
RMM:   5    -0.413175742125E+03    0.23408E-01   -0.11496E-02  4802   0.105E-01    0.457E-02
RMM:   6    -0.413175872947E+03   -0.13082E-03   -0.20326E-03  5828   0.421E-02    0.285E-02
RMM:   7    -0.413175873650E+03   -0.70310E-06   -0.25654E-04  5633   0.159E-02    0.152E-02
RMM:   8    -0.413175869680E+03    0.39704E-05   -0.53925E-05  4982   0.762E-03    0.992E-03
RMM:   9    -0.413175864999E+03    0.46812E-05   -0.11158E-05  3885   0.386E-03    0.737E-03
RMM:  10    -0.413175863461E+03    0.15383E-05   -0.17223E-06  2549   0.220E-03    0.450E-03
RMM:  11    -0.413175861742E+03    0.17183E-05   -0.15647E-06  2533   0.198E-03    0.230E-03
RMM:  12    -0.413175859232E+03    0.25100E-05   -0.13212E-06  2502   0.182E-03    0.856E-04
RMM:  13    -0.413175858309E+03    0.92334E-06   -0.44201E-07  2252   0.117E-03
   24 T=    63. E= -.41286687E+03 F= -.41317586E+03 E0= -.41315401E+03  EK= 0.30898E+00 SP= 0.00E+00 SK= 0.00E+00
       N       E                     dE             d eps       ncg     rms          rms(c)
RMM:   1    -0.413175001517E+03    0.85772E-03   -0.95321E+00  4298   0.737E-01    0.907E-01
RMM:   2    -0.413180794104E+03   -0.57926E-02   -0.11775E-01  4287   0.981E-02    0.660E-01
RMM:   3    -0.413177116489E+03    0.36776E-02   -0.14849E-02  4737   0.499E-02    0.101E-01
RMM:   4    -0.413199843613E+03   -0.22727E-01   -0.23371E-02  5131   0.127E-01    0.631E-01
RMM:   5    -0.413176709572E+03    0.23134E-01   -0.11382E-02  4804   0.104E-01    0.457E-02
RMM:   6    -0.413176832848E+03   -0.12328E-03   -0.19717E-03  5825   0.419E-02    0.287E-02
RMM:   7    -0.413176830326E+03    0.25221E-05   -0.26562E-04  5676   0.162E-02    0.159E-02
RMM:   8    -0.413176823771E+03    0.65541E-05   -0.56069E-05  4978   0.782E-03    0.986E-03
RMM:   9    -0.413176818466E+03    0.53055E-05   -0.11124E-05  3888   0.390E-03    0.733E-03
RMM:  10    -0.413176815840E+03    0.26260E-05   -0.16958E-06  2550   0.218E-03    0.443E-03
RMM:  11    -0.413176813028E+03    0.28118E-05   -0.14285E-06  2517   0.193E-03    0.229E-03
RMM:  12    -0.413176809205E+03    0.38233E-05   -0.13078E-06  2504   0.180E-03    0.892E-04
RMM:  13    -0.413176807741E+03    0.14640E-05   -0.44183E-07  2262   0.117E-03    0.586E-04
RMM:  14    -0.413176807302E+03    0.43925E-06   -0.20764E-07  1760   0.810E-04
   25 T=    63. E= -.41286657E+03 F= -.41317681E+03 E0= -.41315501E+03  EK= 0.31024E+00 SP= 0.00E+00 SK= 0.00E+00
       N       E                     dE             d eps       ncg     rms          rms(c)
RMM:   1    -0.413176459957E+03    0.34778E-03   -0.95325E+00  4294   0.733E-01    0.919E-01
RMM:   2    -0.413181616114E+03   -0.51562E-02   -0.11691E-01  4286   0.973E-02    0.654E-01
RMM:   3    -0.413178585205E+03    0.30309E-02   -0.14516E-02  4804   0.501E-02    0.118E-01
RMM:   4    -0.413206363302E+03   -0.27778E-01   -0.28947E-02  5132   0.141E-01    0.696E-01
RMM:   5    -0.413178053036E+03    0.28310E-01   -0.13972E-02  4798   0.115E-01    0.491E-02
RMM:   6    -0.413178203770E+03   -0.15073E-03   -0.24259E-03  5807   0.472E-02    0.336E-02
RMM:   7    -0.413178191665E+03    0.12105E-04   -0.39806E-04  5625   0.193E-02    0.206E-02
RMM:   8    -0.413178177814E+03    0.13851E-04   -0.67535E-05  5059   0.904E-03    0.105E-02
RMM:   9    -0.413178170460E+03    0.73538E-05   -0.12769E-05  3944   0.414E-03    0.769E-03
RMM:  10    -0.413178164572E+03    0.58881E-05   -0.19456E-06  2562   0.228E-03    0.466E-03
RMM:  11    -0.413178159374E+03    0.51981E-05   -0.13142E-06  2521   0.185E-03    0.248E-03
RMM:  12    -0.413178151535E+03    0.78389E-05   -0.15466E-06  2528   0.195E-03    0.102E-03
RMM:  13    -0.413178147659E+03    0.38764E-05   -0.51861E-07  2341   0.128E-03    0.705E-04
RMM:  14    -0.413178147780E+03   -0.12155E-06   -0.24192E-07  1888   0.858E-04
   26 T=    63. E= -.41286658E+03 F= -.41317815E+03 E0= -.41315640E+03  EK= 0.31157E+00 SP= 0.00E+00 SK= 0.00E+00
       N       E                     dE             d eps       ncg     rms          rms(c)
RMM:   1    -0.413178488419E+03   -0.34076E-03   -0.95149E+00  4297   0.763E-01    0.897E-01
RMM:   2    -0.413183541374E+03   -0.50530E-02   -0.11894E-01  4284   0.100E-01    0.655E-01
RMM:   3    -0.413180295716E+03    0.32457E-02   -0.14645E-02  4763   0.482E-02    0.101E-01
RMM:   4    -0.413202222472E+03   -0.21927E-01   -0.22572E-02  5140   0.125E-01    0.620E-01
RMM:   5    -0.413179924524E+03    0.22298E-01   -0.11038E-02  4805   0.102E-01    0.457E-02
RMM:   6    -0.413180037696E+03   -0.11317E-03   -0.19656E-03  5829   0.413E-02    0.289E-02
RMM:   7    -0.413180033897E+03    0.37987E-05   -0.25421E-04  5633   0.160E-02    0.154E-02
RMM:   8    -0.413180028462E+03    0.54356E-05   -0.52106E-05  4973   0.757E-03    0.994E-03
RMM:   9    -0.413180023146E+03    0.53159E-05   -0.10763E-05  3872   0.384E-03    0.739E-03
RMM:  10    -0.413180020402E+03    0.27440E-05   -0.16971E-06  2545   0.221E-03    0.444E-03
RMM:  11    -0.413180017617E+03    0.27847E-05   -0.13423E-06  2511   0.188E-03    0.239E-03
RMM:  12    -0.413180013342E+03    0.42755E-05   -0.14246E-06  2517   0.186E-03    0.927E-04
RMM:  13    -0.413180011504E+03    0.18380E-05   -0.44954E-07  2278   0.119E-03    0.597E-04
RMM:  14    -0.413180011266E+03    0.23818E-06   -0.21172E-07  1781   0.819E-04
   27 T=    64. E= -.41286693E+03 F= -.41318001E+03 E0= -.41315831E+03  EK= 0.31308E+00 SP= 0.00E+00 SK= 0.00E+00
       N       E                     dE             d eps       ncg     rms          rms(c)
RMM:   1    -0.413179329470E+03    0.68203E-03   -0.96175E+00  4292   0.758E-01    0.908E-01
RMM:   2    -0.413184803932E+03   -0.54745E-02   -0.11976E-01  4281   0.100E-01    0.665E-01
RMM:   3    -0.413181398908E+03    0.34050E-02   -0.15365E-02  4731   0.502E-02    0.944E-02
RMM:   4    -0.413201462222E+03   -0.20063E-01   -0.20541E-02  5135   0.119E-01    0.594E-01
RMM:   5    -0.413181063003E+03    0.20399E-01   -0.10176E-02  4804   0.980E-02    0.448E-02
RMM:   6    -0.413181159659E+03   -0.96656E-04   -0.17595E-03  5827   0.396E-02    0.281E-02
RMM:   7    -0.413181155525E+03    0.41339E-05   -0.24165E-04  5611   0.157E-02    0.151E-02
RMM:   8    -0.413181150645E+03    0.48796E-05   -0.48612E-05  4953   0.739E-03    0.956E-03
RMM:   9    -0.413181145907E+03    0.47381E-05   -0.98483E-06  3720   0.369E-03    0.707E-03
RMM:  10    -0.413181143794E+03    0.21136E-05   -0.16321E-06  2536   0.217E-03    0.416E-03
RMM:  11    -0.413181141442E+03    0.23520E-05   -0.13986E-06  2520   0.190E-03    0.211E-03
RMM:  12    -0.413181138211E+03    0.32305E-05   -0.11818E-06  2486   0.172E-03    0.830E-04
RMM:  13    -0.413181136807E+03    0.14038E-05   -0.40475E-07  2207   0.112E-03    0.539E-04
RMM:  14    -0.413181136421E+03    0.38629E-06   -0.19233E-07  1709   0.787E-04
   28 T=    64. E= -.41286667E+03 F= -.41318114E+03 E0= -.41315949E+03  EK= 0.31447E+00 SP= 0.00E+00 SK= 0.00E+00
       N       E                     dE             d eps       ncg     rms          rms(c)
RMM:   1    -0.413181519368E+03   -0.38256E-03   -0.96342E+00  4292   0.756E-01    0.927E-01
RMM:   2    -0.413186642674E+03   -0.51233E-02   -0.11891E-01  4278   0.102E-01    0.661E-01
RMM:   3    -0.413183294791E+03    0.33479E-02   -0.14860E-02  4638   0.498E-02    0.996E-02
RMM:   4    -0.413198600679E+03   -0.15306E-01   -0.15574E-02  5147   0.104E-01    0.520E-01
RMM:   5    -0.413183098233E+03    0.15502E-01   -0.78336E-03  4823   0.857E-02    0.443E-02
RMM:   6    -0.413183162518E+03   -0.64285E-04   -0.13906E-03  5831   0.348E-02    0.268E-02
RMM:   7    -0.413183154895E+03    0.76232E-05   -0.16892E-04  5476   0.138E-02    0.124E-02
RMM:   8    -0.413183146719E+03    0.81763E-05   -0.22205E-05  4332   0.512E-03    0.777E-03
RMM:   9    -0.413183141589E+03    0.51292E-05   -0.44836E-06  2861   0.275E-03    0.483E-03
RMM:  10    -0.413183138750E+03    0.28390E-05   -0.10282E-06  2480   0.174E-03    0.344E-03
RMM:  11    -0.413183130327E+03    0.84234E-05   -0.17485E-06  2538   0.219E-03    0.192E-03
RMM:  12    -0.413183125953E+03    0.43739E-05   -0.83160E-07  2434   0.153E-03    0.110E-03
RMM:  13    -0.413183124355E+03    0.15985E-05   -0.29974E-07  2147   0.982E-04    0.534E-04
RMM:  14    -0.413183122432E+03    0.19231E-05   -0.14882E-07  1528   0.724E-04    0.353E-04
RMM:  15    -0.413183117775E+03    0.46570E-05   -0.18272E-07  1910   0.785E-04    0.417E-04
RMM:  16    -0.413183115971E+03    0.18032E-05   -0.63011E-08  1068   0.608E-04    0.268E-04
RMM:  17    -0.413183111461E+03    0.45104E-05   -0.67052E-08  1075   0.617E-04    0.197E-04
RMM:  18    -0.413183109324E+03    0.21367E-05   -0.36875E-08   857   0.563E-04    0.584E-05
RMM:  19    -0.413183107453E+03    0.18714E-05   -0.31257E-08   895   0.571E-04    0.668E-05
RMM:  20    -0.413183107087E+03    0.36632E-06   -0.14293E-08   732   0.542E-04
   29 T=    64. E= -.41286683E+03 F= -.41318311E+03 E0= -.41316151E+03  EK= 0.31627E+00 SP= 0.00E+00 SK= 0.00E+00
       N       E                     dE             d eps       ncg     rms          rms(c)
RMM:   1    -0.413186072173E+03   -0.29647E-02   -0.96301E+00  4289   0.809E-01    0.907E-01
RMM:   2    -0.413188964200E+03   -0.28920E-02   -0.12322E-01  4270   0.114E-01    0.659E-01
RMM:   3    -0.413185043173E+03    0.39210E-02   -0.14617E-02  4499   0.529E-02    0.905E-02
RMM:   4    -0.413194252497E+03   -0.92093E-02   -0.94463E-03  5149   0.813E-02    0.405E-01
RMM:   5    -0.413184963583E+03    0.92889E-02   -0.47503E-03  4827   0.666E-02    0.414E-02
RMM:   6    -0.413185002023E+03   -0.38440E-04   -0.93082E-04  5809   0.283E-02    0.260E-02
RMM:   7    -0.413185001236E+03    0.78753E-06   -0.23854E-04  5372   0.157E-02    0.173E-02
RMM:   8    -0.413184984747E+03    0.16488E-04   -0.25803E-05  4553   0.637E-03    0.764E-03
RMM:   9    -0.413184982841E+03    0.19057E-05   -0.48311E-06  2932   0.276E-03    0.536E-03
RMM:  10    -0.413184979659E+03    0.31823E-05   -0.15986E-06  2513   0.206E-03    0.289E-03
RMM:  11    -0.413184976475E+03    0.31839E-05   -0.10143E-06  2479   0.167E-03    0.144E-03
RMM:  12    -0.413184973538E+03    0.29369E-05   -0.55854E-07  2344   0.126E-03    0.733E-04
RMM:  13    -0.413184971966E+03    0.15722E-05   -0.27512E-07  1942   0.899E-04    0.323E-04
RMM:  14    -0.413184970161E+03    0.18049E-05   -0.15255E-07  1444   0.726E-04    0.200E-04
RMM:  15    -0.413184967492E+03    0.26687E-05   -0.99210E-08  1203   0.667E-04    0.104E-04
RMM:  16    -0.413184965477E+03    0.20158E-05   -0.62716E-08  1021   0.624E-04    0.749E-05
RMM:  17    -0.413184963643E+03    0.18334E-05   -0.43315E-08   919   0.599E-04    0.441E-05
RMM:  18    -0.413184960717E+03    0.29265E-05   -0.58553E-08  1124   0.618E-04    0.364E-05
RMM:  19    -0.413184960149E+03    0.56809E-06   -0.20709E-08   752   0.546E-04
   30 T=    65. E= -.41286680E+03 F= -.41318496E+03 E0= -.41316341E+03  EK= 0.31816E+00 SP= 0.00E+00 SK= 0.00E+00
       N       E                     dE             d eps       ncg     rms          rms(c)
RMM:   1    -0.413188072230E+03   -0.31115E-02   -0.97577E+00  4292   0.818E-01    0.911E-01
RMM:   2    -0.413191156112E+03   -0.30839E-02   -0.12258E-01  4281   0.116E-01    0.671E-01
RMM:   3    -0.413186627496E+03    0.45286E-02   -0.15902E-02  4406   0.609E-02    0.739E-02
RMM:   4    -0.413193178991E+03   -0.65515E-02   -0.67298E-03  5158   0.689E-02    0.343E-01
RMM:   5    -0.413186558600E+03    0.66204E-02   -0.33949E-03  4829   0.565E-02    0.404E-02
RMM:   6    -0.413186594387E+03   -0.35787E-04   -0.75384E-04  5766   0.257E-02    0.267E-02
RMM:   7    -0.413186590958E+03    0.34286E-05   -0.24471E-04  5272   0.159E-02    0.176E-02
RMM:   8    -0.413186578008E+03    0.12950E-04   -0.21815E-05  4353   0.598E-03    0.734E-03
RMM:   9    -0.413186576968E+03    0.10401E-05   -0.34896E-06  2754   0.244E-03    0.485E-03
RMM:  10    -0.413186575512E+03    0.14564E-05   -0.14836E-06  2513   0.193E-03    0.259E-03
RMM:  11    -0.413186574159E+03    0.13528E-05   -0.89292E-07  2451   0.154E-03    0.123E-03
RMM:  12    -0.413186572680E+03    0.14793E-05   -0.47725E-07  2226   0.115E-03    0.575E-04
RMM:  13    -0.413186571599E+03    0.10811E-05   -0.25094E-07  1810   0.853E-04    0.288E-04
RMM:  14    -0.413186570202E+03    0.13966E-05   -0.13645E-07  1315   0.705E-04    0.185E-04
RMM:  15    -0.413186568021E+03    0.21813E-05   -0.99437E-08  1162   0.662E-04    0.941E-05
RMM:  16    -0.413186566727E+03    0.12937E-05   -0.56371E-08   945   0.609E-04    0.662E-05
RMM:  17    -0.413186564656E+03    0.20709E-05   -0.56166E-08  1007   0.606E-04    0.410E-05
RMM:  18    -0.413186562953E+03    0.17029E-05   -0.40996E-08   942   0.582E-04    0.295E-05
RMM:  19    -0.413186562376E+03    0.57772E-06   -0.16136E-08   689   0.540E-04
   31 T=    65. E= -.41286651E+03 F= -.41318656E+03 E0= -.41316506E+03  EK= 0.32005E+00 SP= 0.00E+00 SK= 0.00E+00
       N       E                     dE             d eps       ncg     rms          rms(c)
RMM:   1    -0.413189091876E+03   -0.25289E-02   -0.97777E+00  4287   0.820E-01    0.933E-01
RMM:   2    -0.413193296758E+03   -0.42049E-02   -0.12264E-01  4278   0.123E-01    0.668E-01
RMM:   3    -0.413189148679E+03    0.41481E-02   -0.15291E-02  4287   0.586E-02    0.852E-02
RMM:   4    -0.413189783202E+03   -0.63452E-03   -0.11356E-03  5105   0.267E-02    0.108E-01
RMM:   5    -0.413189202800E+03    0.58040E-03   -0.38242E-04  4826   0.195E-02    0.419E-02
RMM:   6    -0.413189223882E+03   -0.21081E-04   -0.40971E-04  5355   0.199E-02    0.308E-02
RMM:   7    -0.413189178039E+03    0.45842E-04   -0.19752E-04  4849   0.149E-02    0.168E-02
RMM:   8    -0.413189172912E+03    0.51273E-05   -0.26229E-05  4572   0.545E-03    0.626E-03
RMM:   9    -0.413189171413E+03    0.14986E-05   -0.33789E-06  2526   0.219E-03    0.270E-03
RMM:  10    -0.413189164740E+03    0.66733E-05   -0.98382E-07  2411   0.159E-03    0.115E-03
RMM:  11    -0.413189159891E+03    0.48493E-05   -0.39243E-07  2139   0.992E-04    0.518E-04
RMM:  12    -0.413189156307E+03    0.35839E-05   -0.19649E-07  1622   0.773E-04    0.335E-04
RMM:  13    -0.413189152864E+03    0.34432E-05   -0.13325E-07  1354   0.700E-04    0.209E-04
RMM:  14    -0.413189148891E+03    0.39725E-05   -0.93980E-08  1128   0.655E-04    0.107E-04
RMM:  15    -0.413189145137E+03    0.37545E-05   -0.63276E-08   985   0.613E-04    0.907E-05
RMM:  16    -0.413189140942E+03    0.41949E-05   -0.58884E-08  1028   0.609E-04    0.610E-05
RMM:  17    -0.413189139599E+03    0.13428E-05   -0.26158E-08   730   0.548E-04    0.494E-05
RMM:  18    -0.413189138860E+03    0.73939E-06   -0.16414E-08   646   0.533E-04
   32 T=    66. E= -.41286677E+03 F= -.41318914E+03 E0= -.41316769E+03  EK= 0.32237E+00 SP= 0.00E+00 SK= 0.00E+00
       N       E                     dE             d eps       ncg     rms          rms(c)
RMM:   1    -0.413192093186E+03   -0.29536E-02   -0.97617E+00  4287   0.844E-01    0.920E-01
RMM:   2    -0.413194986300E+03   -0.28931E-02   -0.12360E-01  4277   0.121E-01    0.664E-01
RMM:   3    -0.413191138382E+03    0.38479E-02   -0.15170E-02  4254   0.618E-02    0.822E-02
RMM:   4    -0.413191222386E+03   -0.84004E-04   -0.60566E-04  4892   0.149E-02    0.445E-02
RMM:   5    -0.413191330503E+03   -0.10812E-03   -0.22406E-04  5020   0.138E-02    0.635E-02
RMM:   6    -0.413191213519E+03    0.11698E-03   -0.37425E-04  5212   0.187E-02    0.299E-02
RMM:   7    -0.413191162340E+03    0.51179E-04   -0.18610E-04  4923   0.145E-02    0.132E-02
RMM:   8    -0.413191159738E+03    0.26024E-05   -0.23553E-05  4436   0.512E-03    0.508E-03
RMM:   9    -0.413191158326E+03    0.14114E-05   -0.33692E-06  2460   0.212E-03    0.183E-03
RMM:  10    -0.413191152266E+03    0.60606E-05   -0.82247E-07  2309   0.142E-03    0.848E-04
RMM:  11    -0.413191148511E+03    0.37550E-05   -0.26310E-07  1724   0.851E-04    0.517E-04
RMM:  12    -0.413191144741E+03    0.37693E-05   -0.14184E-07  1200   0.705E-04    0.287E-04
RMM:  13    -0.413191141367E+03    0.33749E-05   -0.11109E-07  1199   0.670E-04    0.211E-04
RMM:  14    -0.413191136373E+03    0.49932E-05   -0.11499E-07  1266   0.673E-04    0.177E-04
RMM:  15    -0.413191134717E+03    0.16566E-05   -0.37967E-08   670   0.565E-04    0.114E-04
RMM:  16    -0.413191130706E+03    0.40111E-05   -0.46157E-08   799   0.587E-04    0.494E-05
RMM:  17    -0.413191129247E+03    0.14587E-05   -0.25287E-08   672   0.546E-04    0.497E-05
RMM:  18    -0.413191128608E+03    0.63936E-06   -0.11279E-08   505   0.521E-04
   33 T=    66. E= -.41286657E+03 F= -.41319113E+03 E0= -.41316973E+03  EK= 0.32456E+00 SP= 0.00E+00 SK= 0.00E+00
       N       E                     dE             d eps       ncg     rms          rms(c)
RMM:   1    -0.413194266326E+03   -0.31371E-02   -0.98723E+00  4300   0.855E-01    0.916E-01
RMM:   2    -0.413197520214E+03   -0.32539E-02   -0.12735E-01  4277   0.128E-01    0.676E-01
RMM:   3    -0.413193572099E+03    0.39481E-02   -0.16066E-02  4314   0.669E-02    0.707E-02
RMM:   4    -0.413195009735E+03   -0.14376E-02   -0.18257E-03  5176   0.352E-02    0.162E-01
RMM:   5    -0.413193598239E+03    0.14115E-02   -0.77322E-04  4828   0.274E-02    0.398E-02
RMM:   6    -0.413193624447E+03   -0.26209E-04   -0.43926E-04  5484   0.201E-02    0.289E-02
RMM:   7    -0.413193594627E+03    0.29821E-04   -0.21008E-04  4969   0.146E-02    0.190E-02
RMM:   8    -0.413193587297E+03    0.73299E-05   -0.25845E-05  4264   0.518E-03    0.603E-03
RMM:   9    -0.413193586706E+03    0.59087E-06   -0.25950E-06  2534   0.214E-03
   34 T=    67. E= -.41286666E+03 F= -.41319359E+03 E0= -.41317223E+03  EK= 0.32693E+00 SP= 0.00E+00 SK= 0.00E+00
       N       E                     dE             d eps       ncg     rms          rms(c)
RMM:   1    -0.413211950371E+03   -0.18363E-01   -0.10081E+01  4303   0.952E-01    0.937E-01
RMM:   2    -0.413200078434E+03    0.11872E-01   -0.14691E-01  4283   0.134E-01    0.679E-01
RMM:   3    -0.413196309078E+03    0.37694E-02   -0.14186E-02  4328   0.634E-02    0.112E-01
RMM:   4    -0.413196829275E+03   -0.52020E-03   -0.14243E-03  5098   0.289E-02    0.948E-02
RMM:   5    -0.413196412678E+03    0.41660E-03   -0.32188E-04  4829   0.181E-02    0.449E-02
RMM:   6    -0.413196406549E+03    0.61290E-05   -0.34277E-04  5312   0.187E-02    0.325E-02
RMM:   7    -0.413196371856E+03    0.34693E-04   -0.22129E-04  4747   0.140E-02    0.177E-02
RMM:   8    -0.413196366055E+03    0.58002E-05   -0.23201E-05  4282   0.495E-03    0.582E-03
RMM:   9    -0.413196364400E+03    0.16554E-05   -0.35036E-06  2482   0.209E-03    0.225E-03
RMM:  10    -0.413196355346E+03    0.90543E-05   -0.10726E-06  2403   0.153E-03    0.732E-04
RMM:  11    -0.413196350286E+03    0.50593E-05   -0.32187E-07  1909   0.913E-04    0.438E-04
RMM:  12    -0.413196346357E+03    0.39293E-05   -0.18392E-07  1589   0.759E-04    0.273E-04
RMM:  13    -0.413196340840E+03    0.55166E-05   -0.13946E-07  1279   0.696E-04    0.145E-04
RMM:  14    -0.413196334655E+03    0.61855E-05   -0.10892E-07  1225   0.662E-04    0.121E-04
RMM:  15    -0.413196329497E+03    0.51581E-05   -0.72869E-08  1023   0.607E-04    0.650E-05
RMM:  16    -0.413196325899E+03    0.35975E-05   -0.50218E-08   951   0.578E-04    0.583E-05
RMM:  17    -0.413196325180E+03    0.71961E-06   -0.17425E-08   617   0.514E-04
   35 T=    67. E= -.41286688E+03 F= -.41319633E+03 E0= -.41317502E+03  EK= 0.32944E+00 SP= 0.00E+00 SK= 0.00E+00
       N       E                     dE             d eps       ncg     rms          rms(c)
RMM:   1    -0.413197782699E+03   -0.14568E-02   -0.99115E+00  4301   0.868E-01    0.936E-01
RMM:   2    -0.413202014237E+03   -0.42315E-02   -0.12824E-01  4258   0.131E-01    0.672E-01
RMM:   3    -0.413198478950E+03    0.35353E-02   -0.15447E-02  4378   0.660E-02    0.924E-02
RMM:   4    -0.413201777286E+03   -0.32983E-02   -0.37012E-03  5183   0.512E-02    0.245E-01
RMM:   5    -0.413198509122E+03    0.32682E-02   -0.17449E-03  4822   0.410E-02    0.418E-02
RMM:   6    -0.413198526728E+03   -0.17605E-04   -0.57963E-04  5591   0.240E-02    0.313E-02
RMM:   7    -0.413198493460E+03    0.33268E-04   -0.25117E-04  5063   0.162E-02    0.176E-02
RMM:   8    -0.413198484384E+03    0.90756E-05   -0.25802E-05  4608   0.579E-03    0.698E-03
RMM:   9    -0.413198482200E+03    0.21843E-05   -0.33704E-06  2647   0.233E-03    0.383E-03
RMM:  10    -0.413198476665E+03    0.55345E-05   -0.10728E-06  2479   0.173E-03    0.207E-03
RMM:  11    -0.413198471693E+03    0.49729E-05   -0.62605E-07  2363   0.125E-03    0.926E-04
RMM:  12    -0.413198466692E+03    0.50003E-05   -0.35501E-07  2046   0.986E-04    0.373E-04
RMM:  13    -0.413198462753E+03    0.39394E-05   -0.19004E-07  1589   0.778E-04    0.231E-04
RMM:  14    -0.413198459120E+03    0.36327E-05   -0.96015E-08  1081   0.659E-04    0.176E-04
RMM:  15    -0.413198453881E+03    0.52396E-05   -0.79082E-08  1083   0.646E-04    0.769E-05
RMM:  16    -0.413198450703E+03    0.31779E-05   -0.57314E-08  1038   0.614E-04    0.730E-05
RMM:  17    -0.413198447962E+03    0.27411E-05   -0.39461E-08   937   0.583E-04    0.418E-05
RMM:  18    -0.413198445476E+03    0.24858E-05   -0.32963E-08   890   0.566E-04    0.285E-05
RMM:  19    -0.413198445105E+03    0.37041E-06   -0.12269E-08   582   0.517E-04
   36 T=    68. E= -.41286667E+03 F= -.41319845E+03 E0= -.41317718E+03  EK= 0.33177E+00 SP= 0.00E+00 SK= 0.00E+00
       N       E                     dE             d eps       ncg     rms          rms(c)
RMM:   1    -0.413208235303E+03   -0.97898E-02   -0.10062E+01  4305   0.943E-01    0.923E-01
RMM:   2    -0.413205749413E+03    0.24859E-02   -0.13812E-01  4251   0.135E-01    0.681E-01
RMM:   3    -0.413201440360E+03    0.43091E-02   -0.15466E-02  4507   0.638E-02    0.960E-02
RMM:   4    -0.413212966318E+03   -0.11526E-01   -0.11710E-02  5167   0.914E-02    0.453E-01
RMM:   5    -0.413201379709E+03    0.11587E-01   -0.59373E-03  4825   0.752E-02    0.439E-02
RMM:   6    -0.413201385481E+03   -0.57723E-05   -0.11127E-03  5787   0.325E-02    0.297E-02
RMM:   7    -0.413201389973E+03   -0.44923E-05   -0.31191E-04  5358   0.174E-02    0.192E-02
RMM:   8    -0.413201373674E+03    0.16299E-04   -0.35873E-05  4855   0.722E-03    0.835E-03
RMM:   9    -0.413201372530E+03    0.11445E-05   -0.64011E-06  3065   0.310E-03    0.523E-03
RMM:  10    -0.413201370156E+03    0.23734E-05   -0.15497E-06  2518   0.212E-03    0.277E-03
RMM:  11    -0.413201367537E+03    0.26199E-05   -0.10530E-06  2494   0.166E-03    0.141E-03
RMM:  12    -0.413201364636E+03    0.29008E-05   -0.64030E-07  2371   0.131E-03    0.740E-04
RMM:  13    -0.413201362919E+03    0.17169E-05   -0.29553E-07  1970   0.926E-04    0.359E-04
RMM:  14    -0.413201361293E+03    0.16258E-05   -0.15371E-07  1419   0.724E-04    0.210E-04
RMM:  15    -0.413201358481E+03    0.28119E-05   -0.10056E-07  1185   0.667E-04    0.101E-04
RMM:  16    -0.413201356211E+03    0.22699E-05   -0.66194E-08  1011   0.630E-04    0.741E-05
RMM:  17    -0.413201354452E+03    0.17592E-05   -0.46898E-08   963   0.604E-04    0.506E-05
RMM:  18    -0.413201351474E+03    0.29776E-05   -0.50246E-08  1089   0.608E-04    0.298E-05
RMM:  19    -0.413201350616E+03    0.85891E-06   -0.21585E-08   782   0.547E-04
   37 T=    68. E= -.41286694E+03 F= -.41320135E+03 E0= -.41318013E+03  EK= 0.33442E+00 SP= 0.00E+00 SK= 0.00E+00
       N       E                     dE             d eps       ncg     rms          rms(c)
RMM:   1    -0.413213519026E+03   -0.12168E-01   -0.10185E+01  4307   0.100E+00    0.941E-01
RMM:   2    -0.413208431185E+03    0.50878E-02   -0.14922E-01  4251   0.132E-01    0.689E-01
RMM:   3    -0.413204328171E+03    0.41030E-02   -0.14887E-02  4795   0.602E-02    0.146E-01
RMM:   4    -0.413242395239E+03   -0.38067E-01   -0.39600E-02  5139   0.166E-01    0.811E-01
RMM:   5    -0.413203742652E+03    0.38653E-01   -0.19345E-02  4796   0.136E-01    0.536E-02
RMM:   6    -0.413203835120E+03   -0.92469E-04   -0.32081E-03  5846   0.534E-02    0.344E-02
RMM:   7    -0.413203843752E+03   -0.86313E-05   -0.38322E-04  5631   0.187E-02    0.174E-02
RMM:   8    -0.413203838494E+03    0.52576E-05   -0.49112E-05  4767   0.714E-03    0.935E-03
RMM:   9    -0.413203834176E+03    0.43182E-05   -0.11172E-05  3563   0.366E-03    0.600E-03
RMM:  10    -0.413203832614E+03    0.15624E-05   -0.27570E-06  2676   0.233E-03    0.430E-03
RMM:  11    -0.413203828706E+03    0.39077E-05   -0.14509E-06  2500   0.205E-03    0.241E-03
RMM:  12    -0.413203822357E+03    0.63484E-05   -0.17698E-06  2529   0.211E-03    0.116E-03
RMM:  13    -0.413203820337E+03    0.20201E-05   -0.54945E-07  2397   0.135E-03    0.786E-04
RMM:  14    -0.413203820034E+03    0.30335E-06   -0.24146E-07  1974   0.877E-04
   38 T=    69. E= -.41286683E+03 F= -.41320382E+03 E0= -.41318264E+03  EK= 0.33699E+00 SP= 0.00E+00 SK= 0.00E+00
       N       E                     dE             d eps       ncg     rms          rms(c)
RMM:   1    -0.413207137173E+03   -0.33168E-02   -0.10111E+01  4306   0.971E-01    0.953E-01
RMM:   2    -0.413210738437E+03   -0.36013E-02   -0.13368E-01  4258   0.124E-01    0.682E-01
RMM:   3    -0.413206909970E+03    0.38285E-02   -0.15883E-02  4888   0.587E-02    0.144E-01
RMM:   4    -0.413245156040E+03   -0.38246E-01   -0.40538E-02  5135   0.168E-01    0.814E-01
RMM:   5    -0.413206221674E+03    0.38934E-01   -0.19384E-02  4792   0.136E-01    0.548E-02
RMM:   6    -0.413206311549E+03   -0.89876E-04   -0.31937E-03  5827   0.536E-02    0.348E-02
RMM:   7    -0.413206323307E+03   -0.11757E-04   -0.41321E-04  5677   0.191E-02    0.184E-02
RMM:   8    -0.413206312736E+03    0.10571E-04   -0.59720E-05  4995   0.801E-03    0.102E-02
RMM:   9    -0.413206310810E+03    0.19258E-05   -0.22346E-05  4601   0.494E-03    0.802E-03
RMM:  10    -0.413206302784E+03    0.80259E-05   -0.32488E-06  2715   0.280E-03    0.450E-03
RMM:  11    -0.413206298388E+03    0.43961E-05   -0.14860E-06  2507   0.197E-03    0.277E-03
RMM:  12    -0.413206287543E+03    0.10845E-04   -0.19019E-06  2547   0.224E-03    0.131E-03
RMM:  13    -0.413206282686E+03    0.48571E-05   -0.69235E-07  2422   0.148E-03    0.852E-04
RMM:  14    -0.413206282220E+03    0.46561E-06   -0.27599E-07  2074   0.947E-04
   39 T=    69. E= -.41286668E+03 F= -.41320628E+03 E0= -.41318514E+03  EK= 0.33960E+00 SP= 0.00E+00 SK= 0.00E+00
       N       E                     dE             d eps       ncg     rms          rms(c)
RMM:   1    -0.413222298831E+03   -0.16016E-01   -0.10257E+01  4310   0.109E+00    0.931E-01
RMM:   2    -0.413214285189E+03    0.80136E-02   -0.15463E-01  4260   0.130E-01    0.688E-01
RMM:   3    -0.413210513061E+03    0.37721E-02   -0.14928E-02  4986   0.622E-02    0.186E-01
RMM:   4    -0.413261214606E+03   -0.50702E-01   -0.56311E-02  5125   0.198E-01    0.934E-01
RMM:   5    -0.413209185665E+03    0.52029E-01   -0.25361E-02  4782   0.157E-01    0.597E-02
RMM:   6    -0.413209339174E+03   -0.15351E-03   -0.42047E-03  5820   0.611E-02    0.367E-02
RMM:   7    -0.413209353195E+03   -0.14022E-04   -0.51257E-04  5769   0.207E-02    0.209E-02
RMM:   8    -0.413209354874E+03   -0.16783E-05   -0.10893E-04  5216   0.103E-02    0.135E-02
RMM:   9    -0.413209343181E+03    0.11693E-04   -0.27748E-05  4742   0.589E-03    0.755E-03
RMM:  10    -0.413209338985E+03    0.41962E-05   -0.45220E-06  2837   0.298E-03    0.462E-03
RMM:  11    -0.413209335832E+03    0.31529E-05   -0.15902E-06  2506   0.209E-03    0.280E-03
RMM:  12    -0.413209328768E+03    0.70635E-05   -0.17021E-06  2528   0.213E-03    0.107E-03
RMM:  13    -0.413209324369E+03    0.43990E-05   -0.73820E-07  2437   0.149E-03    0.790E-04
RMM:  14    -0.413209323927E+03    0.44193E-06   -0.30730E-07  2125   0.979E-04
   40 T=    70. E= -.41286690E+03 F= -.41320932E+03 E0= -.41318822E+03  EK= 0.34242E+00 SP= 0.00E+00 SK= 0.00E+00
       N       E                     dE             d eps       ncg     rms          rms(c)
RMM:   1    -0.413222992208E+03   -0.13668E-01   -0.10369E+01  4310   0.112E+00    0.948E-01
RMM:   2    -0.413216523573E+03    0.64686E-02   -0.14408E-01  4266   0.138E-01    0.697E-01
RMM:   3    -0.413213195729E+03    0.33278E-02   -0.17153E-02  5014   0.674E-02    0.197E-01
RMM:   4    -0.413262470284E+03   -0.49275E-01   -0.57409E-02  5126   0.200E-01    0.925E-01
RMM:   5    -0.413211358471E+03    0.51112E-01   -0.24331E-02  4781   0.155E-01    0.600E-02
RMM:   6    -0.413211509252E+03   -0.15078E-03   -0.41184E-03  5815   0.603E-02    0.362E-02
RMM:   7    -0.413211523064E+03   -0.13812E-04   -0.50604E-04  5769   0.206E-02    0.209E-02
RMM:   8    -0.413211525301E+03   -0.22372E-05   -0.11228E-04  5238   0.104E-02    0.137E-02
RMM:   9    -0.413211513060E+03    0.12241E-04   -0.26420E-05  4692   0.586E-03    0.725E-03
RMM:  10    -0.413211509245E+03    0.38150E-05   -0.45372E-06  2860   0.299E-03    0.443E-03
RMM:  11    -0.413211506282E+03    0.29634E-05   -0.14891E-06  2500   0.205E-03    0.267E-03
RMM:  12    -0.413211499799E+03    0.64828E-05   -0.15335E-06  2526   0.203E-03    0.105E-03
RMM:  13    -0.413211495644E+03    0.41550E-05   -0.67704E-07  2427   0.142E-03    0.688E-04
RMM:  14    -0.413211494883E+03    0.76058E-06   -0.29327E-07  2083   0.952E-04
   41 T=    70. E= -.41286651E+03 F= -.41321149E+03 E0= -.41319042E+03  EK= 0.34499E+00 SP= 0.00E+00 SK= 0.00E+00
       N       E                     dE             d eps       ncg     rms          rms(c)
RMM:   1    -0.413223088591E+03   -0.11593E-01   -0.10363E+01  4310   0.116E+00    0.968E-01
RMM:   2    -0.413218700147E+03    0.43884E-02   -0.14425E-01  4299   0.133E-01    0.693E-01
RMM:   3    -0.413216997994E+03    0.17022E-02   -0.17752E-02  5069   0.739E-02    0.252E-01
RMM:   4    -0.413259437925E+03   -0.42440E-01   -0.55746E-02  5101   0.198E-01    0.874E-01
RMM:   5    -0.413214042012E+03    0.45396E-01   -0.20598E-02  4757   0.145E-01    0.616E-02
RMM:   6    -0.413214150196E+03   -0.10818E-03   -0.36239E-03  5776   0.569E-02    0.369E-02
RMM:   7    -0.413214160767E+03   -0.10571E-04   -0.49483E-04  5745   0.206E-02    0.223E-02
RMM:   8    -0.413214158764E+03    0.20034E-05   -0.13160E-04  5236   0.116E-02    0.140E-02
RMM:   9    -0.413214143031E+03    0.15733E-04   -0.23116E-05  4559   0.591E-03    0.626E-03
RMM:  10    -0.413214137026E+03    0.60042E-05   -0.51150E-06  2986   0.292E-03    0.391E-03
RMM:  11    -0.413214131923E+03    0.51030E-05   -0.12713E-06  2493   0.195E-03    0.224E-03
RMM:  12    -0.413214122499E+03    0.94244E-05   -0.10551E-06  2478   0.175E-03    0.869E-04
RMM:  13    -0.413214116683E+03    0.58156E-05   -0.49510E-07  2362   0.123E-03    0.490E-04
RMM:  14    -0.413214115222E+03    0.14608E-05   -0.24337E-07  1941   0.871E-04    0.338E-04
RMM:  15    -0.413214111957E+03    0.32655E-05   -0.12973E-07  1430   0.706E-04    0.173E-04
RMM:  16    -0.413214105426E+03    0.65305E-05   -0.10403E-07  1342   0.687E-04    0.188E-04
RMM:  17    -0.413214102888E+03    0.25387E-05   -0.53808E-08   986   0.607E-04    0.114E-04
RMM:  18    -0.413214098070E+03    0.48180E-05   -0.62884E-08  1292   0.639E-04    0.938E-05
RMM:  19    -0.413214095680E+03    0.23901E-05   -0.36675E-08  1035   0.577E-04    0.548E-05
RMM:  20    -0.413214094597E+03    0.10824E-05   -0.23398E-08   872   0.543E-04    0.243E-05
RMM:  21    -0.413214094258E+03    0.33915E-06   -0.13513E-08   734   0.522E-04
   42 T=    71. E= -.41286659E+03 F= -.41321409E+03 E0= -.41319305E+03  EK= 0.34751E+00 SP= 0.00E+00 SK= 0.00E+00
       N       E                     dE             d eps       ncg     rms          rms(c)
RMM:   1    -0.413243325874E+03   -0.29231E-01   -0.10514E+01  4311   0.131E+00    0.944E-01
RMM:   2    -0.413220999161E+03    0.22327E-01   -0.17027E-01  4313   0.149E-01    0.695E-01
RMM:   3    -0.413220224901E+03    0.77426E-03   -0.16611E-02  5075   0.794E-02    0.305E-01
RMM:   4    -0.413261703481E+03   -0.41479E-01   -0.59204E-02  5096   0.205E-01    0.876E-01
RMM:   5    -0.413216159742E+03    0.45544E-01   -0.20239E-02  4737   0.146E-01    0.640E-02
RMM:   6    -0.413216257576E+03   -0.97833E-04   -0.36044E-03  5742   0.568E-02    0.371E-02
RMM:   7    -0.413216263846E+03   -0.62706E-05   -0.52382E-04  5776   0.208E-02    0.244E-02
RMM:   8    -0.413216262152E+03    0.16950E-05   -0.13419E-04  5214   0.120E-02    0.131E-02
RMM:   9    -0.413216249740E+03    0.12412E-04   -0.22069E-05  4519   0.586E-03    0.531E-03
RMM:  10    -0.413216246472E+03    0.32683E-05   -0.48637E-06  2920   0.278E-03    0.341E-03
RMM:  11    -0.413216242992E+03    0.34795E-05   -0.13353E-06  2497   0.192E-03    0.188E-03
RMM:  12    -0.413216237638E+03    0.53537E-05   -0.86691E-07  2470   0.157E-03    0.696E-04
RMM:  13    -0.413216234311E+03    0.33273E-05   -0.42647E-07  2219   0.111E-03    0.346E-04
RMM:  14    -0.413216232578E+03    0.17327E-05   -0.22517E-07  1791   0.837E-04    0.240E-04
RMM:  15    -0.413216229383E+03    0.31950E-05   -0.13683E-07  1381   0.714E-04    0.115E-04
RMM:  16    -0.413216226406E+03    0.29774E-05   -0.90056E-08  1161   0.659E-04    0.931E-05
RMM:  17    -0.413216224217E+03    0.21890E-05   -0.63600E-08  1074   0.629E-04    0.611E-05
RMM:  18    -0.413216221347E+03    0.28699E-05   -0.56362E-08  1156   0.628E-04    0.384E-05
RMM:  19    -0.413216219488E+03    0.18595E-05   -0.37069E-08  1003   0.589E-04    0.267E-05
RMM:  20    -0.413216218771E+03    0.71674E-06   -0.22572E-08   825   0.554E-04
   43 T=    71. E= -.41286663E+03 F= -.41321622E+03 E0= -.41319520E+03  EK= 0.34959E+00 SP= 0.00E+00 SK= 0.00E+00
       N       E                     dE             d eps       ncg     rms          rms(c)
RMM:   1    -0.413226831052E+03   -0.10612E-01   -0.10447E+01  4313   0.127E+00    0.950E-01
RMM:   2    -0.413222563522E+03    0.42675E-02   -0.15401E-01  4314   0.155E-01    0.705E-01
RMM:   3    -0.413222795372E+03   -0.23185E-03   -0.20127E-02  5068   0.906E-02    0.327E-01
RMM:   4    -0.413257994800E+03   -0.35199E-01   -0.56619E-02  5090   0.202E-01    0.826E-01
RMM:   5    -0.413217421984E+03    0.40573E-01   -0.17068E-02  4717   0.137E-01    0.616E-02
RMM:   6    -0.413217489193E+03   -0.67209E-04   -0.31818E-03  5734   0.533E-02    0.356E-02
RMM:   7    -0.413217494037E+03   -0.48442E-05   -0.47322E-04  5741   0.201E-02    0.233E-02
RMM:   8    -0.413217493294E+03    0.74316E-06   -0.12395E-04  5183   0.115E-02    0.123E-02
RMM:   9    -0.413217482939E+03    0.10355E-04   -0.19466E-05  4416   0.561E-03    0.508E-03
RMM:  10    -0.413217480559E+03    0.23801E-05   -0.41766E-06  2819   0.265E-03    0.320E-03
RMM:  11    -0.413217477939E+03    0.26198E-05   -0.12941E-06  2498   0.188E-03    0.173E-03
RMM:  12    -0.413217473833E+03    0.41059E-05   -0.86311E-07  2468   0.153E-03    0.692E-04
RMM:  13    -0.413217471225E+03    0.26086E-05   -0.42099E-07  2156   0.109E-03    0.319E-04
RMM:  14    -0.413217469632E+03    0.15927E-05   -0.22703E-07  1722   0.826E-04    0.216E-04
RMM:  15    -0.413217466306E+03    0.33265E-05   -0.15368E-07  1365   0.729E-04    0.121E-04
RMM:  16    -0.413217464323E+03    0.19830E-05   -0.93935E-08  1132   0.661E-04    0.891E-05
RMM:  17    -0.413217462330E+03    0.19929E-05   -0.71244E-08  1106   0.639E-04    0.568E-05
RMM:  18    -0.413217459873E+03    0.24562E-05   -0.59660E-08  1126   0.626E-04    0.346E-05
RMM:  19    -0.413217458058E+03    0.18153E-05   -0.41410E-08  1006   0.590E-04    0.260E-05
RMM:  20    -0.413217457456E+03    0.60206E-06   -0.21931E-08   788   0.554E-04
   44 T=    71. E= -.41286640E+03 F= -.41321746E+03 E0= -.41319647E+03  EK= 0.35106E+00 SP= 0.00E+00 SK= 0.00E+00
       N       E                     dE             d eps       ncg     rms          rms(c)
RMM:   1    -0.413261969230E+03   -0.44511E-01   -0.10763E+01  4311   0.151E+00    0.974E-01
RMM:   2    -0.413223544202E+03    0.38425E-01   -0.17222E-01  4340   0.167E-01    0.703E-01
RMM:   3    -0.413227204199E+03   -0.36600E-02   -0.21089E-02  5114   0.102E-01    0.415E-01
RMM:   4    -0.413247915672E+03   -0.20711E-01   -0.49143E-02  5064   0.190E-01    0.707E-01
RMM:   5    -0.413218964600E+03    0.28951E-01   -0.11369E-02  4673   0.118E-01    0.612E-02
RMM:   6    -0.413218958171E+03    0.64287E-05   -0.22564E-03  5635   0.458E-02    0.358E-02
RMM:   7    -0.413218956226E+03    0.19452E-05   -0.38815E-04  5646   0.190E-02    0.235E-02
RMM:   8    -0.413218949287E+03    0.69384E-05   -0.12204E-04  5105   0.117E-02    0.113E-02
RMM:   9    -0.413218936545E+03    0.12743E-04   -0.16935E-05  4369   0.560E-03    0.457E-03
RMM:  10    -0.413218932640E+03    0.39046E-05   -0.33478E-06  2758   0.242E-03    0.271E-03
RMM:  11    -0.413218927076E+03    0.55636E-05   -0.11981E-06  2487   0.182E-03    0.147E-03
RMM:  12    -0.413218920865E+03    0.62113E-05   -0.65209E-07  2431   0.139E-03    0.636E-04
RMM:  13    -0.413218917191E+03    0.36741E-05   -0.31617E-07  1967   0.966E-04    0.304E-04
RMM:  14    -0.413218913944E+03    0.32467E-05   -0.17820E-07  1532   0.763E-04    0.178E-04
RMM:  15    -0.413218908912E+03    0.50322E-05   -0.12919E-07  1309   0.707E-04    0.121E-04
RMM:  16    -0.413218906084E+03    0.28279E-05   -0.83095E-08  1153   0.652E-04    0.858E-05
RMM:  17    -0.413218901751E+03    0.43336E-05   -0.79217E-08  1320   0.658E-04    0.576E-05
RMM:  18    -0.413218899629E+03    0.21218E-05   -0.46498E-08  1048   0.584E-04    0.448E-05
RMM:  19    -0.413218897818E+03    0.18104E-05   -0.32376E-08   939   0.559E-04    0.216E-05
RMM:  20    -0.413218897451E+03    0.36743E-06   -0.16321E-08   719   0.527E-04
   45 T=    72. E= -.41286676E+03 F= -.41321890E+03 E0= -.41319793E+03  EK= 0.35213E+00 SP= 0.00E+00 SK= 0.00E+00
       N       E                     dE             d eps       ncg     rms          rms(c)
RMM:   1    -0.413250406516E+03   -0.31509E-01   -0.10545E+01  4310   0.154E+00    0.955E-01
RMM:   2    -0.413223525056E+03    0.26881E-01   -0.16913E-01  4359   0.179E-01    0.697E-01
RMM:   3    -0.413229901781E+03   -0.63767E-02   -0.23045E-02  5109   0.113E-01    0.469E-01
RMM:   4    -0.413242238088E+03   -0.12336E-01   -0.46117E-02  5039   0.186E-01    0.636E-01
RMM:   5    -0.413218945759E+03    0.23292E-01   -0.85114E-03  4624   0.107E-01    0.591E-02
RMM:   6    -0.413218917826E+03    0.27933E-04   -0.17941E-03  5543   0.410E-02    0.340E-02
RMM:   7    -0.413218916331E+03    0.14943E-05   -0.32831E-04  5582   0.177E-02    0.226E-02
RMM:   8    -0.413218907834E+03    0.84976E-05   -0.12390E-04  5083   0.117E-02    0.106E-02
RMM:   9    -0.413218895207E+03    0.12627E-04   -0.15584E-05  4299   0.549E-03    0.436E-03
RMM:  10    -0.413218891824E+03    0.33835E-05   -0.28142E-06  2704   0.229E-03    0.253E-03
RMM:  11    -0.413218886525E+03    0.52989E-05   -0.11903E-06  2486   0.178E-03    0.134E-03
RMM:  12    -0.413218881347E+03    0.51781E-05   -0.60779E-07  2410   0.133E-03    0.654E-04
RMM:  13    -0.413218877965E+03    0.33822E-05   -0.29313E-07  1891   0.925E-04    0.312E-04
RMM:  14    -0.413218874727E+03    0.32374E-05   -0.16489E-07  1414   0.731E-04    0.173E-04
RMM:  15    -0.413218870427E+03    0.43005E-05   -0.12177E-07  1255   0.688E-04    0.117E-04
RMM:  16    -0.413218867768E+03    0.26589E-05   -0.79650E-08  1112   0.640E-04    0.898E-05
RMM:  17    -0.413218863388E+03    0.43795E-05   -0.82457E-08  1315   0.656E-04    0.640E-05
RMM:  18    -0.413218861605E+03    0.17837E-05   -0.44093E-08   996   0.573E-04    0.408E-05
RMM:  19    -0.413218860293E+03    0.13114E-05   -0.30551E-08   871   0.545E-04    0.224E-05
RMM:  20    -0.413218859778E+03    0.51508E-06   -0.17600E-08   727   0.523E-04
   46 T=    72. E= -.41286669E+03 F= -.41321886E+03 E0= -.41319791E+03  EK= 0.35217E+00 SP= 0.00E+00 SK= 0.00E+00
       N       E                     dE             d eps       ncg     rms          rms(c)
RMM:   1    -0.413234957337E+03   -0.16097E-01   -0.10425E+01  4311   0.153E+00    0.946E-01
RMM:   2    -0.413223092811E+03    0.11865E-01   -0.16393E-01  4378   0.185E-01    0.707E-01
RMM:   3    -0.413231580676E+03   -0.84879E-02   -0.26125E-02  5102   0.126E-01    0.506E-01
RMM:   4    -0.413240380160E+03   -0.87995E-02   -0.47719E-02  5029   0.191E-01    0.617E-01
RMM:   5    -0.413218204604E+03    0.22176E-01   -0.76334E-03  4606   0.104E-01    0.584E-02
RMM:   6    -0.413218160770E+03    0.43834E-04   -0.16069E-03  5470   0.390E-02    0.322E-02
RMM:   7    -0.413218162216E+03   -0.14457E-05   -0.29413E-04  5589   0.168E-02    0.216E-02
RMM:   8    -0.413218156383E+03    0.58334E-05   -0.12765E-04  5081   0.118E-02    0.103E-02
RMM:   9    -0.413218145206E+03    0.11176E-04   -0.14951E-05  4233   0.544E-03    0.421E-03
RMM:  10    -0.413218143035E+03    0.21715E-05   -0.28756E-06  2720   0.227E-03    0.244E-03
RMM:  11    -0.413218139311E+03    0.37232E-05   -0.12466E-06  2495   0.179E-03    0.128E-03
RMM:  12    -0.413218135966E+03    0.33456E-05   -0.61111E-07  2401   0.133E-03    0.667E-04
RMM:  13    -0.413218133407E+03    0.25591E-05   -0.30381E-07  1838   0.932E-04    0.318E-04
RMM:  14    -0.413218130894E+03    0.25124E-05   -0.17388E-07  1392   0.740E-04    0.174E-04
RMM:  15    -0.413218127825E+03    0.30691E-05   -0.13267E-07  1292   0.697E-04    0.116E-04
RMM:  16    -0.413218125879E+03    0.19466E-05   -0.85550E-08  1139   0.642E-04    0.908E-05
RMM:  17    -0.413218122451E+03    0.34278E-05   -0.89275E-08  1292   0.657E-04    0.578E-05
RMM:  18    -0.413218121033E+03    0.14177E-05   -0.45907E-08   978   0.572E-04    0.398E-05
RMM:  19    -0.413218120176E+03    0.85677E-06   -0.27614E-08   827   0.540E-04
   47 T=    72. E= -.41286682E+03 F= -.41321812E+03 E0= -.41319718E+03  EK= 0.35130E+00 SP= 0.00E+00 SK= 0.00E+00
       N       E                     dE             d eps       ncg     rms          rms(c)
RMM:   1    -0.413245889952E+03   -0.27769E-01   -0.10459E+01  4305   0.169E+00    0.965E-01
RMM:   2    -0.413221321987E+03    0.24568E-01   -0.17519E-01  4434   0.199E-01    0.705E-01
RMM:   3    -0.413236293214E+03   -0.14971E-01   -0.30350E-02  5136   0.143E-01    0.615E-01
RMM:   4    -0.413230920138E+03    0.53731E-02   -0.43747E-02  4993   0.186E-01    0.506E-01
RMM:   5    -0.413216611272E+03    0.14309E-01   -0.49882E-03  4550   0.923E-02    0.586E-02
RMM:   6    -0.413216513851E+03    0.97422E-04   -0.85178E-04  5026   0.316E-02    0.313E-02
RMM:   7    -0.413216509383E+03    0.44674E-05   -0.18232E-04  5646   0.132E-02    0.149E-02
RMM:   8    -0.413216514623E+03   -0.52397E-05   -0.11262E-04  5257   0.107E-02    0.124E-02
RMM:   9    -0.413216497706E+03    0.16917E-04   -0.24193E-05  4613   0.615E-03    0.455E-03
RMM:  10    -0.413216495117E+03    0.25890E-05   -0.36169E-06  2790   0.254E-03    0.244E-03
RMM:  11    -0.413216489233E+03    0.58842E-05   -0.15366E-06  2449   0.203E-03    0.135E-03
RMM:  12    -0.413216485193E+03    0.40402E-05   -0.67581E-07  2371   0.144E-03    0.815E-04
RMM:  13    -0.413216480994E+03    0.41989E-05   -0.31785E-07  1911   0.100E-03    0.438E-04
RMM:  14    -0.413216476677E+03    0.43171E-05   -0.16341E-07  1532   0.754E-04    0.256E-04
RMM:  15    -0.413216472780E+03    0.38965E-05   -0.99722E-08  1133   0.640E-04    0.151E-04
RMM:  16    -0.413216470150E+03    0.26304E-05   -0.70582E-08  1060   0.602E-04    0.121E-04
RMM:  17    -0.413216466575E+03    0.35747E-05   -0.68146E-08  1135   0.611E-04    0.818E-05
RMM:  18    -0.413216464414E+03    0.21606E-05   -0.39866E-08   933   0.564E-04    0.626E-05
RMM:  19    -0.413216463427E+03    0.98771E-06   -0.19987E-08   704   0.519E-04
   48 T=    71. E= -.41286715E+03 F= -.41321646E+03 E0= -.41319553E+03  EK= 0.34931E+00 SP= 0.00E+00 SK= 0.00E+00
       N       E                     dE             d eps       ncg     rms          rms(c)
RMM:   1    -0.413246166974E+03   -0.29703E-01   -0.10308E+01  4305   0.181E+00    0.955E-01
RMM:   2    -0.413217363026E+03    0.28804E-01   -0.17523E-01  4479   0.211E-01    0.694E-01
RMM:   3    -0.413239533303E+03   -0.22170E-01   -0.35844E-02  5147   0.160E-01    0.709E-01
RMM:   4    -0.413222430557E+03    0.17103E-01   -0.42276E-02  4963   0.186E-01    0.423E-01
RMM:   5    -0.413212912206E+03    0.95184E-02   -0.41156E-03  4568   0.878E-02    0.625E-02
RMM:   6    -0.413212752973E+03    0.15923E-03   -0.48664E-04  4719   0.287E-02    0.330E-02
RMM:   7    -0.413212764744E+03   -0.11771E-04   -0.30094E-04  5787   0.179E-02    0.228E-02
RMM:   8    -0.413212735099E+03    0.29645E-04   -0.10615E-04  5077   0.117E-02    0.961E-03
RMM:   9    -0.413212728885E+03    0.62142E-05   -0.17198E-05  4676   0.553E-03    0.476E-03
RMM:  10    -0.413212724874E+03    0.40115E-05   -0.21838E-06  2617   0.236E-03    0.251E-03
RMM:  11    -0.413212718956E+03    0.59173E-05   -0.14040E-06  2492   0.193E-03    0.179E-03
RMM:  12    -0.413212715414E+03    0.35427E-05   -0.44709E-07  2388   0.124E-03    0.932E-04
RMM:  13    -0.413212710780E+03    0.46338E-05   -0.29163E-07  2024   0.916E-04    0.463E-04
RMM:  14    -0.413212705347E+03    0.54328E-05   -0.22735E-07  1808   0.811E-04    0.383E-04
RMM:  15    -0.413212700898E+03    0.44490E-05   -0.11959E-07  1140   0.643E-04    0.156E-04
RMM:  16    -0.413212698347E+03    0.25511E-05   -0.74655E-08  1084   0.607E-04    0.927E-05
RMM:  17    -0.413212694530E+03    0.38171E-05   -0.78172E-08  1223   0.624E-04    0.882E-05
RMM:  18    -0.413212693342E+03    0.11877E-05   -0.38894E-08   940   0.546E-04    0.791E-05
[...]
RMM:   9    -0.413582384785E+03    0.36062E-04   -0.58866E-05  5048   0.981E-03    0.997E-03
RMM:  10    -0.413582384622E+03    0.16369E-06   -0.23829E-05  4938   0.575E-03    0.671E-03
RMM:  11    -0.413582390996E+03   -0.63746E-05   -0.71456E-06  3378   0.431E-03    0.323E-03
RMM:  12    -0.413582403979E+03   -0.12982E-04   -0.37632E-06  2853   0.309E-03    0.168E-03
RMM:  13    -0.413582420634E+03   -0.16655E-04   -0.29091E-06  2746   0.256E-03    0.128E-03
RMM:  14    -0.413582443167E+03   -0.22533E-04   -0.38801E-06  2852   0.270E-03    0.772E-04
RMM:  15    -0.413582457729E+03   -0.14563E-04   -0.29798E-06  2745   0.198E-03    0.579E-04
RMM:  16    -0.413582470984E+03   -0.13254E-04   -0.26319E-06  2706   0.179E-03    0.373E-04
RMM:  17    -0.413582478995E+03   -0.80114E-05   -0.15241E-06  2212   0.130E-03    0.223E-04
RMM:  18    -0.413582485249E+03   -0.62541E-05   -0.86367E-07  2072   0.106E-03    0.163E-04
RMM:  19    -0.413582488675E+03   -0.34255E-05   -0.35492E-07  1573   0.780E-04    0.104E-04
RMM:  20    -0.413582491170E+03   -0.24958E-05   -0.19269E-07  1351   0.675E-04    0.639E-05
RMM:  21    -0.413582492866E+03   -0.16960E-05   -0.11233E-07  1236   0.621E-04    0.474E-05
RMM:  22    -0.413582493562E+03   -0.69528E-06   -0.56344E-08  1057   0.560E-04
  139 T=   147. E= -.41285861E+03 F= -.41358249E+03 E0= -.41356180E+03  EK= 0.72389E+00 SP= 0.00E+00 SK= 0.00E+00
       N       E                     dE             d eps       ncg     rms          rms(c)
RMM:   1    -0.413813941270E+03   -0.23145E+00   -0.17035E+01  4292   0.775E+00    0.110E+00
RMM:   2    -0.413739935547E+03    0.74006E-01   -0.39382E-01  5052   0.768E-01    0.829E-01
RMM:   3    -0.413756194006E+03   -0.16258E-01   -0.74537E-02  5410   0.330E-01    0.670E-01
RMM:   4    -0.413773453992E+03   -0.17260E-01   -0.59722E-02  5307   0.243E-01    0.784E-01
RMM:   5    -0.413742159910E+03    0.31294E-01   -0.39416E-02  5136   0.237E-01    0.167E-01
RMM:   6    -0.413740954147E+03    0.12058E-02   -0.41613E-03  4979   0.924E-02    0.617E-02
RMM:   7    -0.413740877071E+03    0.77076E-04   -0.13020E-03  5498   0.395E-02    0.381E-02
RMM:   8    -0.413740851534E+03    0.25537E-04   -0.48166E-04  5795   0.239E-02    0.291E-02
RMM:   9    -0.413740794693E+03    0.56840E-04   -0.94560E-05  4802   0.129E-02    0.157E-02
RMM:  10    -0.413740787077E+03    0.76169E-05   -0.50004E-05  5551   0.848E-03    0.784E-03
RMM:  11    -0.413740791610E+03   -0.45336E-05   -0.11934E-05  3844   0.437E-03    0.545E-03
RMM:  12    -0.413740802826E+03   -0.11216E-04   -0.50470E-06  3047   0.380E-03    0.276E-03
RMM:  13    -0.413740817319E+03   -0.14494E-04   -0.42579E-06  2911   0.318E-03    0.182E-03
RMM:  14    -0.413740831611E+03   -0.14292E-04   -0.23724E-06  2677   0.226E-03    0.110E-03
RMM:  15    -0.413740843532E+03   -0.11922E-04   -0.17606E-06  2624   0.175E-03    0.708E-04
RMM:  16    -0.413740858855E+03   -0.15323E-04   -0.30157E-06  2774   0.216E-03    0.505E-04
RMM:  17    -0.413740869059E+03   -0.10204E-04   -0.24946E-06  2591   0.166E-03    0.320E-04
RMM:  18    -0.413740874689E+03   -0.56299E-05   -0.11460E-06  2048   0.113E-03    0.207E-04
RMM:  19    -0.413740878750E+03   -0.40611E-05   -0.55821E-07  1779   0.902E-04    0.144E-04
RMM:  20    -0.413740881898E+03   -0.31479E-05   -0.30991E-07  1503   0.760E-04    0.827E-05
RMM:  21    -0.413740883730E+03   -0.18324E-05   -0.16621E-07  1335   0.661E-04    0.542E-05
RMM:  22    -0.413740884770E+03   -0.10396E-05   -0.87150E-08  1109   0.592E-04    0.401E-05
RMM:  23    -0.413740885538E+03   -0.76816E-06   -0.53729E-08  1045   0.567E-04
  140 T=   178. E= -.41286439E+03 F= -.41374089E+03 E0= -.41372005E+03  EK= 0.87650E+00 SP= 0.00E+00 SK= 0.00E+00
       N       E                     dE             d eps       ncg     rms          rms(c)
RMM:   1    -0.413852680734E+03   -0.11180E+00   -0.19684E+01  4268   0.817E+00    0.135E+00
RMM:   2    -0.413769994253E+03    0.82686E-01   -0.65311E-01  5226   0.896E-01    0.102E+00
RMM:   3    -0.413885941088E+03   -0.11595E+00   -0.19032E-01  5345   0.468E-01    0.159E+00
RMM:   4    -0.413775647364E+03    0.11029E+00   -0.10327E-01  5142   0.362E-01    0.675E-01
RMM:   5    -0.413766549651E+03    0.90977E-02   -0.36067E-02  4926   0.254E-01    0.110E-01
RMM:   6    -0.413766814765E+03   -0.26511E-03   -0.76830E-03  5978   0.972E-02    0.961E-02
RMM:   7    -0.413766536790E+03    0.27797E-03   -0.16804E-03  5343   0.469E-02    0.577E-02
RMM:   8    -0.413766413177E+03    0.12361E-03   -0.67015E-04  5576   0.319E-02    0.347E-02
RMM:   9    -0.413766402785E+03    0.10392E-04   -0.27863E-04  5809   0.194E-02    0.311E-02
RMM:  10    -0.413766370510E+03    0.32276E-04   -0.12004E-04  5148   0.141E-02    0.992E-03
RMM:  11    -0.413766371927E+03   -0.14176E-05   -0.37111E-05  5407   0.666E-03    0.901E-03
RMM:  12    -0.413766371592E+03    0.33556E-06   -0.87768E-06  3748   0.441E-03
  141 T=   185. E= -.41285631E+03 F= -.41376637E+03 E0= -.41374545E+03  EK= 0.91006E+00 SP= 0.00E+00 SK= 0.00E+00
       N       E                     dE             d eps       ncg     rms          rms(c)
RMM:   1    -0.413858459698E+03   -0.92088E-01   -0.20028E+01  4264   0.817E+00    0.156E+00
RMM:   2    -0.413791669599E+03    0.66790E-01   -0.76138E-01  5404   0.996E-01    0.135E+00
RMM:   3    -0.413868934862E+03   -0.77265E-01   -0.20435E-01  5348   0.492E-01    0.166E+00
RMM:   4    -0.413772502114E+03    0.96433E-01   -0.13140E-01  5197   0.421E-01    0.776E-01
RMM:   5    -0.413763213147E+03    0.92890E-02   -0.28854E-02  4432   0.255E-01    0.156E-01
RMM:   6    -0.413764244655E+03   -0.10315E-02   -0.16690E-02  5536   0.145E-01    0.156E-01
RMM:   7    -0.413762910651E+03    0.13340E-02   -0.43607E-03  5227   0.785E-02    0.703E-02
RMM:   8    -0.413762823411E+03    0.87241E-04   -0.10983E-03  5646   0.402E-02    0.374E-02
RMM:   9    -0.413762818402E+03    0.50088E-05   -0.35969E-04  5732   0.225E-02    0.304E-02
RMM:  10    -0.413762793306E+03    0.25096E-04   -0.10522E-04  5220   0.134E-02    0.105E-02
RMM:  11    -0.413762797526E+03   -0.42193E-05   -0.48327E-05  5581   0.740E-03    0.874E-03
RMM:  12    -0.413762798604E+03   -0.10781E-05   -0.76817E-06  3585   0.416E-03    0.322E-03
RMM:  13    -0.413762802376E+03   -0.37718E-05   -0.37966E-06  2874   0.275E-03    0.156E-03
RMM:  14    -0.413762807065E+03   -0.46896E-05   -0.17369E-06  2596   0.212E-03    0.788E-04
RMM:  15    -0.413762810027E+03   -0.29614E-05   -0.10425E-06  2503   0.152E-03    0.581E-04
RMM:  16    -0.413762813631E+03   -0.36042E-05   -0.10686E-06  2488   0.143E-03    0.492E-04
RMM:  17    -0.413762816473E+03   -0.28418E-05   -0.95799E-07  2319   0.118E-03    0.308E-04
RMM:  18    -0.413762818119E+03   -0.16465E-05   -0.63225E-07  1802   0.932E-04    0.153E-04
RMM:  19    -0.413762819313E+03   -0.11941E-05   -0.45956E-07  1805   0.856E-04    0.127E-04
RMM:  20    -0.413762820093E+03   -0.77972E-06   -0.23423E-07  1406   0.673E-04
  142 T=   185. E= -.41285515E+03 F= -.41376282E+03 E0= -.41374170E+03  EK= 0.90767E+00 SP= 0.00E+00 SK= 0.00E+00
       N       E                     dE             d eps       ncg     rms          rms(c)
RMM:   1    -0.413906698409E+03   -0.14388E+00   -0.20974E+01  4264   0.821E+00    0.185E+00
RMM:   2    -0.413830320235E+03    0.76378E-01   -0.84017E-01  5398   0.110E+00    0.177E+00
RMM:   3    -0.413886383803E+03   -0.56064E-01   -0.23969E-01  5424   0.536E-01    0.186E+00
RMM:   4    -0.413786445911E+03    0.99938E-01   -0.15158E-01  5236   0.452E-01    0.930E-01
RMM:   5    -0.413776527259E+03    0.99187E-02   -0.42088E-02  4395   0.307E-01    0.217E-01
RMM:   6    -0.413776599194E+03   -0.71935E-04   -0.20439E-02  5305   0.169E-01    0.177E-01
RMM:   7    -0.413774716891E+03    0.18823E-02   -0.50426E-03  4993   0.897E-02    0.751E-02
RMM:   8    -0.413774649879E+03    0.67012E-04   -0.11390E-03  5531   0.416E-02    0.459E-02
RMM:   9    -0.413774614347E+03    0.35532E-04   -0.35276E-04  4895   0.245E-02    0.228E-02
RMM:  10    -0.413774606734E+03    0.76136E-05   -0.93775E-05  5698   0.119E-02    0.122E-02
RMM:  11    -0.413774606007E+03    0.72646E-06   -0.34620E-05  5264   0.682E-03    0.698E-03
RMM:  12    -0.413774605767E+03    0.24045E-06   -0.61030E-06  3145   0.363E-03
  143 T=   187. E= -.41285736E+03 F= -.41377461E+03 E0= -.41375326E+03  EK= 0.91724E+00 SP= 0.00E+00 SK= 0.00E+00
       N       E                     dE             d eps       ncg     rms          rms(c)
RMM:   1    -0.413967287275E+03   -0.19268E+00   -0.22115E+01  4264   0.825E+00    0.182E+00
RMM:   2    -0.413841416863E+03    0.12587E+00   -0.86010E-01  5405   0.112E+00    0.180E+00
RMM:   3    -0.413886998790E+03   -0.45582E-01   -0.20896E-01  5508   0.504E-01    0.182E+00
RMM:   4    -0.413807162475E+03    0.79836E-01   -0.11957E-01  5258   0.402E-01    0.100E+00
RMM:   5    -0.413798041269E+03    0.91212E-02   -0.56240E-02  4372   0.344E-01    0.259E-01
RMM:   6    -0.413796351649E+03    0.16896E-02   -0.17988E-02  5113   0.168E-01    0.167E-01
RMM:   7    -0.413794852432E+03    0.14992E-02   -0.39383E-03  4893   0.832E-02    0.813E-02
RMM:   8    -0.413794726109E+03    0.12632E-03   -0.85772E-04  5044   0.388E-02    0.492E-02
RMM:   9    -0.413794688153E+03    0.37956E-04   -0.38907E-04  4596   0.259E-02    0.174E-02
RMM:  10    -0.413794694016E+03   -0.58637E-05   -0.11684E-04  5910   0.123E-02    0.131E-02
RMM:  11    -0.413794693329E+03    0.68683E-06   -0.26985E-05  4830   0.637E-03    0.640E-03
RMM:  12    -0.413794695392E+03   -0.20622E-05   -0.77070E-06  3416   0.387E-03    0.383E-03
RMM:  13    -0.413794696974E+03   -0.15825E-05   -0.22964E-06  2684   0.245E-03    0.178E-03
RMM:  14    -0.413794697807E+03   -0.83305E-06   -0.10336E-06  2518   0.163E-03
  144 T=   188. E= -.41286906E+03 F= -.41379470E+03 E0= -.41377325E+03  EK= 0.92564E+00 SP= 0.00E+00 SK= 0.00E+00
       N       E                     dE             d eps       ncg     rms          rms(c)
RMM:   1    -0.413859505186E+03   -0.64808E-01   -0.22470E+01  4279   0.824E+00    0.225E+00
RMM:   2    -0.413728255697E+03    0.13125E+00   -0.85289E-01  5370   0.110E+00    0.204E+00
RMM:   3    -0.413860876609E+03   -0.13262E+00   -0.27188E-01  5517   0.557E-01    0.220E+00
RMM:   4    -0.413733623228E+03    0.12725E+00   -0.20267E-01  5197   0.496E-01    0.111E+00
RMM:   5    -0.413708746624E+03    0.24877E-01   -0.95114E-02  4717   0.413E-01    0.335E-01
RMM:   6    -0.413704413771E+03    0.43329E-02   -0.15867E-02  4910   0.173E-01    0.147E-01
RMM:   7    -0.413703567480E+03    0.84629E-03   -0.32811E-03  5058   0.775E-02    0.812E-02
RMM:   8    -0.413703383712E+03    0.18377E-03   -0.96427E-04  5048   0.416E-02    0.479E-02
RMM:   9    -0.413703391126E+03   -0.74141E-05   -0.45800E-04  5362   0.265E-02    0.278E-02
RMM:  10    -0.413703384566E+03    0.65597E-05   -0.11835E-04  5571   0.132E-02    0.142E-02
RMM:  11    -0.413703385249E+03   -0.68267E-06   -0.53895E-05  5502   0.840E-03    0.768E-03
RMM:  12    -0.413703386693E+03   -0.14444E-05   -0.98254E-06  3744   0.414E-03    0.437E-03
RMM:  13    -0.413703388643E+03   -0.19501E-05   -0.43211E-06  2992   0.308E-03    0.244E-03
RMM:  14    -0.413703390229E+03   -0.15858E-05   -0.13743E-06  2555   0.206E-03    0.104E-03
RMM:  15    -0.413703391076E+03   -0.84647E-06   -0.62944E-07  2368   0.130E-03
  145 T=   169. E= -.41287212E+03 F= -.41370339E+03 E0= -.41368192E+03  EK= 0.83128E+00 SP= 0.00E+00 SK= 0.00E+00
       N       E                     dE             d eps       ncg     rms          rms(c)
RMM:   1    -0.413669718215E+03    0.33672E-01   -0.17190E+01  4288   0.727E+00    0.158E+00
RMM:   2    -0.413565831646E+03    0.10389E+00   -0.54867E-01  5379   0.864E-01    0.144E+00
RMM:   3    -0.413624823182E+03   -0.58992E-01   -0.15514E-01  5572   0.424E-01    0.159E+00
RMM:   4    -0.413556415820E+03    0.68407E-01   -0.10058E-01  5208   0.363E-01    0.715E-01
RMM:   5    -0.413550064430E+03    0.63514E-02   -0.49654E-02  4779   0.299E-01    0.241E-01
RMM:   6    -0.413547694290E+03    0.23701E-02   -0.16504E-02  5050   0.158E-01    0.141E-01
RMM:   7    -0.413546579439E+03    0.11149E-02   -0.23049E-03  4663   0.699E-02    0.580E-02
RMM:   8    -0.413546562103E+03    0.17335E-04   -0.71611E-04  5541   0.329E-02    0.367E-02
RMM:   9    -0.413546565095E+03   -0.29915E-05   -0.20964E-04  5254   0.181E-02    0.195E-02
RMM:  10    -0.413546563203E+03    0.18913E-05   -0.58475E-05  5471   0.905E-03    0.981E-03
RMM:  11    -0.413546566392E+03   -0.31889E-05   -0.28556E-05  5131   0.627E-03    0.624E-03
RMM:  12    -0.413546568514E+03   -0.21218E-05   -0.41234E-06  2924   0.292E-03    0.328E-03
RMM:  13    -0.413546570009E+03   -0.14950E-05   -0.21722E-06  2650   0.224E-03    0.152E-03
RMM:  14    -0.413546571281E+03   -0.12717E-05   -0.10805E-06  2471   0.170E-03    0.775E-04
RMM:  15    -0.413546572225E+03   -0.94408E-06   -0.61014E-07  2284   0.124E-03
  146 T=   144. E= -.41284055E+03 F= -.41354657E+03 E0= -.41352501E+03  EK= 0.70602E+00 SP= 0.00E+00 SK= 0.00E+00
       N       E                     dE             d eps       ncg     rms          rms(c)
RMM:   1    -0.413755189377E+03   -0.20862E+00   -0.15980E+01  4296   0.714E+00    0.125E+00
RMM:   2    -0.413706015551E+03    0.49174E-01   -0.49401E-01  5394   0.815E-01    0.134E+00
RMM:   3    -0.413674762230E+03    0.31253E-01   -0.11270E-01  5476   0.383E-01    0.111E+00
RMM:   4    -0.413656196657E+03    0.18566E-01   -0.68096E-02  5269   0.308E-01    0.583E-01
RMM:   5    -0.413654127914E+03    0.20687E-02   -0.46764E-02  4877   0.275E-01    0.277E-01
RMM:   6    -0.413650986502E+03    0.31414E-02   -0.18333E-02  5003   0.168E-01    0.143E-01
RMM:   7    -0.413649992869E+03    0.99363E-03   -0.16377E-03  4433   0.655E-02    0.560E-02
RMM:   8    -0.413649984417E+03    0.84516E-05   -0.74832E-04  5518   0.327E-02    0.354E-02
RMM:   9    -0.413649983896E+03    0.52122E-06   -0.20998E-04  5042   0.182E-02    0.190E-02
RMM:  10    -0.413649982968E+03    0.92744E-06   -0.51861E-05  5504   0.890E-03    0.928E-03
RMM:  11    -0.413649989354E+03   -0.63855E-05   -0.26171E-05  5046   0.602E-03    0.614E-03
RMM:  12    -0.413649994318E+03   -0.49648E-05   -0.44776E-06  2950   0.311E-03    0.352E-03
RMM:  13    -0.413649996932E+03   -0.26133E-05   -0.21208E-06  2677   0.222E-03    0.132E-03
RMM:  14    -0.413649999184E+03   -0.22520E-05   -0.11701E-06  2488   0.164E-03    0.720E-04
RMM:  15    -0.413650000732E+03   -0.15480E-05   -0.79776E-07  2286   0.125E-03    0.402E-04
RMM:  16    -0.413650001436E+03   -0.70446E-06   -0.65553E-07  2056   0.105E-03
  147 T=   160. E= -.41286549E+03 F= -.41365000E+03 E0= -.41362814E+03  EK= 0.78451E+00 SP= 0.00E+00 SK= 0.00E+00
       N       E                     dE             d eps       ncg     rms          rms(c)
RMM:   1    -0.413833338462E+03   -0.18334E+00   -0.19350E+01  4296   0.797E+00    0.178E+00
RMM:   2    -0.413792207426E+03    0.41131E-01   -0.63818E-01  5405   0.968E-01    0.179E+00
RMM:   3    -0.413773566504E+03    0.18641E-01   -0.18729E-01  5483   0.479E-01    0.164E+00
RMM:   4    -0.413724877851E+03    0.48689E-01   -0.13648E-01  5240   0.428E-01    0.800E-01
RMM:   5    -0.413719477413E+03    0.54004E-02   -0.78006E-02  4885   0.357E-01    0.335E-01
RMM:   6    -0.413714201285E+03    0.52761E-02   -0.30000E-02  5036   0.213E-01    0.169E-01
RMM:   7    -0.413712674631E+03    0.15267E-02   -0.24138E-03  4456   0.802E-02    0.724E-02
RMM:   8    -0.413712636483E+03    0.38148E-04   -0.92175E-04  5371   0.371E-02    0.425E-02
RMM:   9    -0.413712642139E+03   -0.56560E-05   -0.35635E-04  5005   0.236E-02    0.224E-02
RMM:  10    -0.413712647663E+03   -0.55238E-05   -0.86854E-05  5548   0.113E-02    0.119E-02
RMM:  11    -0.413712658947E+03   -0.11284E-04   -0.39320E-05  5292   0.763E-03    0.721E-03
RMM:  12    -0.413712667412E+03   -0.84652E-05   -0.86592E-06  3431   0.401E-03    0.441E-03
RMM:  13    -0.413712671449E+03   -0.40373E-05   -0.36444E-06  2862   0.274E-03    0.185E-03
RMM:  14    -0.413712675326E+03   -0.38765E-05   -0.20255E-06  2643   0.211E-03    0.101E-03
RMM:  15    -0.413712677721E+03   -0.23953E-05   -0.14825E-06  2538   0.164E-03    0.572E-04
RMM:  16    -0.413712678455E+03   -0.73385E-06   -0.10434E-06  2305   0.126E-03
  148 T=   172. E= -.41286804E+03 F= -.41371268E+03 E0= -.41369039E+03  EK= 0.84463E+00 SP= 0.00E+00 SK= 0.00E+00
       N       E                     dE             d eps       ncg     rms          rms(c)
RMM:   1    -0.413703561548E+03    0.91162E-02   -0.17939E+01  4296   0.778E+00    0.123E+00
RMM:   2    -0.413644810020E+03    0.58752E-01   -0.52990E-01  5420   0.879E-01    0.128E+00
RMM:   3    -0.413649412345E+03   -0.46023E-02   -0.11667E-01  5678   0.371E-01    0.125E+00
RMM:   4    -0.413614810918E+03    0.34601E-01   -0.53926E-02  5251   0.272E-01    0.680E-01
RMM:   5    -0.413613677809E+03    0.11331E-02   -0.40723E-02  4651   0.265E-01    0.286E-01
RMM:   6    -0.413611797879E+03    0.18799E-02   -0.22230E-02  5097   0.177E-01    0.169E-01
RMM:   7    -0.413610191831E+03    0.16060E-02   -0.29471E-03  4739   0.784E-02    0.845E-02
RMM:   8    -0.413610123645E+03    0.68187E-04   -0.10522E-03  5491   0.387E-02    0.493E-02
RMM:   9    -0.413610111615E+03    0.12029E-04   -0.47717E-04  4703   0.275E-02    0.197E-02
RMM:  10    -0.413610127842E+03   -0.16227E-04   -0.11715E-04  5804   0.131E-02    0.133E-02
RMM:  11    -0.413610139409E+03   -0.11567E-04   -0.32301E-05  4571   0.755E-03    0.675E-03
RMM:  12    -0.413610150334E+03   -0.10925E-04   -0.96337E-06  3443   0.414E-03    0.369E-03
RMM:  13    -0.413610156278E+03   -0.59442E-05   -0.42795E-06  2923   0.275E-03    0.173E-03
RMM:  14    -0.413610161273E+03   -0.49946E-05   -0.23834E-06  2706   0.220E-03    0.107E-03
RMM:  15    -0.413610163722E+03   -0.24499E-05   -0.16222E-06  2537   0.162E-03    0.546E-04
RMM:  16    -0.413610164982E+03   -0.12598E-05   -0.15893E-06  2448   0.147E-03    0.366E-04
RMM:  17    -0.413610164335E+03    0.64759E-06   -0.13013E-06  2235   0.127E-03
  149 T=   154. E= -.41285438E+03 F= -.41361016E+03 E0= -.41358758E+03  EK= 0.75578E+00 SP= 0.00E+00 SK= 0.00E+00
       N       E                     dE             d eps       ncg     rms          rms(c)
RMM:   1    -0.413542538853E+03    0.67626E-01   -0.14458E+01  4290   0.708E+00    0.878E-01
RMM:   2    -0.413497550338E+03    0.44989E-01   -0.37907E-01  5435   0.732E-01    0.833E-01
RMM:   3    -0.413512165870E+03   -0.14616E-01   -0.66470E-02  5705   0.278E-01    0.834E-01
RMM:   4    -0.413498265170E+03    0.13901E-01   -0.28853E-02  5314   0.177E-01    0.580E-01
RMM:   5    -0.413492335313E+03    0.59299E-02   -0.25254E-02  4388   0.212E-01    0.179E-01
RMM:   6    -0.413491875210E+03    0.46010E-03   -0.65859E-03  5188   0.103E-01    0.109E-01
RMM:   7    -0.413491477738E+03    0.39747E-03   -0.15266E-03  5297   0.493E-02    0.745E-02
RMM:   8    -0.413491360672E+03    0.11707E-03   -0.51383E-04  4648   0.300E-02    0.396E-02
RMM:   9    -0.413491368785E+03   -0.81123E-05   -0.38936E-04  4705   0.247E-02    0.188E-02
RMM:  10    -0.413491381492E+03   -0.12708E-04   -0.79894E-05  5705   0.109E-02    0.128E-02
RMM:  11    -0.413491386725E+03   -0.52325E-05   -0.24811E-05  4499   0.668E-03    0.516E-03
RMM:  12    -0.413491394600E+03   -0.78751E-05   -0.65930E-06  3192   0.350E-03    0.264E-03
RMM:  13    -0.413491400024E+03   -0.54241E-05   -0.26259E-06  2735   0.234E-03    0.168E-03
RMM:  14    -0.413491404148E+03   -0.41243E-05   -0.20510E-06  2655   0.199E-03    0.854E-04
RMM:  15    -0.413491406036E+03   -0.18878E-05   -0.12275E-06  2382   0.142E-03    0.527E-04
RMM:  16    -0.413491407038E+03   -0.10018E-05   -0.10237E-06  2321   0.127E-03    0.341E-04
RMM:  17    -0.413491406966E+03    0.71639E-07   -0.87793E-07  2126   0.113E-03
  150 T=   131. E= -.41284844E+03 F= -.41349141E+03 E0= -.41346888E+03  EK= 0.64296E+00 SP= 0.00E+00 SK= 0.00E+00
