       N       E                     dE             d eps       ncg     rms          rms(c)
RMM:   1     0.220125923451E+04    0.22013E+04   -0.52441E+04  2132   0.654E+02
RMM:   2     0.705467081387E+03   -0.14958E+04   -0.16262E+04  2132   0.177E+02
RMM:   3     0.137473225449E+03   -0.56799E+03   -0.65753E+03  2132   0.117E+02
RMM:   4    -0.159090272744E+03   -0.29656E+03   -0.27829E+03  2132   0.936E+01
RMM:   5    -0.287540373794E+03   -0.12845E+03   -0.11440E+03  2132   0.595E+01
RMM:   6    -0.349813097328E+03   -0.62273E+02   -0.55121E+02  2132   0.423E+01
RMM:   7    -0.382754936966E+03   -0.32942E+02   -0.30451E+02  2132   0.293E+01
RMM:   8    -0.404233363282E+03   -0.21478E+02   -0.18438E+02  2132   0.233E+01
RMM:   9    -0.435962678920E+03   -0.31729E+02   -0.30654E+02  6106   0.173E+01
RMM:  10    -0.441285615675E+03   -0.53229E+01   -0.63378E+01  6399   0.538E+00
RMM:  11    -0.442510552681E+03   -0.12249E+01   -0.11010E+01  6228   0.173E+00
RMM:  12    -0.442888828289E+03   -0.37828E+00   -0.27696E+00  6368   0.603E-01    0.134E+02
RMM:  13    -0.425644703407E+03    0.17244E+02   -0.81147E+01  4679   0.119E+01    0.712E+01
RMM:  14    -0.499393738737E+03   -0.73749E+02   -0.54318E+02  5418   0.233E+01    0.306E+01
RMM:  15    -0.412818859541E+03    0.86575E+02   -0.19191E+02  5038   0.162E+01    0.510E+00
RMM:  16    -0.414162166616E+03   -0.13433E+01   -0.38677E+01  6068   0.596E+00    0.436E+00
RMM:  17    -0.413278815017E+03    0.88335E+00   -0.20408E+00  5309   0.171E+00    0.260E+00
RMM:  18    -0.413153291085E+03    0.12552E+00   -0.11573E+00  5843   0.113E+00    0.152E+00
RMM:  19    -0.413169339320E+03   -0.16048E-01   -0.28542E-01  5849   0.551E-01    0.884E-01
RMM:  20    -0.413185691274E+03   -0.16352E-01   -0.17258E-01  5141   0.489E-01    0.587E-01
RMM:  21    -0.413167928129E+03    0.17763E-01   -0.35039E-02  4985   0.233E-01    0.289E-01
RMM:  22    -0.413166203076E+03    0.17251E-02   -0.14336E-02  6135   0.104E-01    0.181E-01
RMM:  23    -0.413164008236E+03    0.21948E-02   -0.68849E-03  5870   0.789E-02    0.826E-02
RMM:  24    -0.413162754264E+03    0.12540E-02   -0.26339E-03  5882   0.498E-02    0.351E-02
RMM:  25    -0.413162629141E+03    0.12512E-03   -0.72580E-04  5877   0.233E-02    0.249E-02
RMM:  26    -0.413162863614E+03   -0.23447E-03   -0.38851E-04  5654   0.211E-02    0.234E-02
RMM:  27    -0.413163331659E+03   -0.46804E-03   -0.17564E-04  4515   0.183E-02    0.147E-02
RMM:  28    -0.413163795136E+03   -0.46348E-03   -0.13654E-04  4798   0.170E-02    0.902E-03
RMM:  29    -0.413164202347E+03   -0.40721E-03   -0.12240E-04  4431   0.162E-02    0.357E-03
RMM:  30    -0.413164384836E+03   -0.18249E-03   -0.77205E-05  3733   0.862E-03    0.209E-03
RMM:  31    -0.413164469839E+03   -0.85003E-04   -0.37670E-05  3077   0.516E-03    0.165E-03
RMM:  32    -0.413164490537E+03   -0.20698E-04   -0.16358E-05  2924   0.256E-03    0.775E-04
RMM:  33    -0.413164499369E+03   -0.88318E-05   -0.74763E-06  2713   0.177E-03    0.611E-04
RMM:  34    -0.413164501948E+03   -0.25788E-05   -0.39072E-06  2383   0.132E-03    0.896E-04
RMM:  35    -0.413164501786E+03    0.16125E-06   -0.19618E-06  1657   0.944E-04
    1 T=    61. E= -.41286670E+03 F= -.41316450E+03 E0= -.41314200E+03  EK= 0.29780E+00 SP= 0.00E+00 SK= 0.00E+00
       N       E                     dE             d eps       ncg     rms          rms(c)
RMM:   1    -0.413156658723E+03    0.78432E-02   -0.10655E+01  4009   0.681E-01    0.886E-01
RMM:   2    -0.413166372836E+03   -0.97141E-02   -0.13069E-01  3944   0.968E-02    0.643E-01
RMM:   3    -0.413164493816E+03    0.18790E-02   -0.80913E-03  4871   0.401E-02    0.143E-01
RMM:   4    -0.413192490026E+03   -0.27996E-01   -0.29565E-02  5213   0.142E-01    0.697E-01
RMM:   5    -0.413163993230E+03    0.28497E-01   -0.14045E-02  4841   0.118E-01    0.396E-02
RMM:   6    -0.413164178868E+03   -0.18564E-03   -0.23208E-03  5842   0.465E-02    0.235E-02
RMM:   7    -0.413164197335E+03   -0.18467E-04   -0.30024E-04  5915   0.151E-02    0.154E-02
RMM:   8    -0.413164203228E+03   -0.58934E-05   -0.59186E-05  5053   0.736E-03    0.894E-03
RMM:   9    -0.413164204740E+03   -0.15116E-05   -0.12631E-05  3890   0.394E-03    0.614E-03
RMM:  10    -0.413164210016E+03   -0.52759E-05   -0.21873E-06  2601   0.206E-03    0.403E-03
RMM:  11    -0.413164217111E+03   -0.70955E-05   -0.18724E-06  2564   0.198E-03    0.194E-03
RMM:  12    -0.413164223901E+03   -0.67897E-05   -0.13864E-06  2513   0.169E-03    0.652E-04
RMM:  13    -0.413164224971E+03   -0.10702E-05   -0.50691E-07  2170   0.107E-03    0.441E-04
RMM:  14    -0.413164225412E+03   -0.44081E-06   -0.30058E-07  1617   0.779E-04
    2 T=    61. E= -.41286646E+03 F= -.41316423E+03 E0= -.41314172E+03  EK= 0.29777E+00 SP= 0.00E+00 SK= 0.00E+00
       N       E                     dE             d eps       ncg     rms          rms(c)
RMM:   1    -0.413157729444E+03    0.64955E-02   -0.10684E+01  4191   0.684E-01    0.909E-01
RMM:   2    -0.413166413958E+03   -0.86845E-02   -0.12835E-01  3896   0.945E-02    0.636E-01
RMM:   3    -0.413164925241E+03    0.14887E-02   -0.82458E-03  4841   0.377E-02    0.149E-01
RMM:   4    -0.413189396541E+03   -0.24471E-01   -0.24915E-02  5187   0.132E-01    0.653E-01
RMM:   5    -0.413164589044E+03    0.24807E-01   -0.12004E-02  4828   0.109E-01    0.404E-02
RMM:   6    -0.413164751260E+03   -0.16222E-03   -0.20485E-03  5783   0.437E-02    0.253E-02
RMM:   7    -0.413164757249E+03   -0.59890E-05   -0.29417E-04  5828   0.151E-02    0.160E-02
RMM:   8    -0.413164755501E+03    0.17478E-05   -0.43802E-05  4935   0.675E-03    0.743E-03
RMM:   9    -0.413164754548E+03    0.95273E-06   -0.90910E-06  3460   0.339E-03
    3 T=    61. E= -.41286672E+03 F= -.41316475E+03 E0= -.41314226E+03  EK= 0.29803E+00 SP= 0.00E+00 SK= 0.00E+00
       N       E                     dE             d eps       ncg     rms          rms(c)
RMM:   1    -0.413157170448E+03    0.75851E-02   -0.10599E+01  4225   0.685E-01    0.893E-01
RMM:   2    -0.413166316109E+03   -0.91457E-02   -0.12746E-01  4291   0.972E-02    0.631E-01
RMM:   3    -0.413171781794E+03   -0.54657E-02   -0.13791E-02  5192   0.853E-02    0.385E-01
RMM:   4    -0.413183307600E+03   -0.11526E-01   -0.34656E-02  5097   0.161E-01    0.572E-01
RMM:   5    -0.413164564455E+03    0.18743E-01   -0.68411E-03  4672   0.956E-02    0.549E-02
RMM:   6    -0.413164510180E+03    0.54275E-04   -0.12589E-03  5364   0.362E-02    0.240E-02
RMM:   7    -0.413164528227E+03   -0.18047E-04   -0.24949E-04  5989   0.153E-02    0.153E-02
RMM:   8    -0.413164528666E+03   -0.43903E-06   -0.46390E-05  5229   0.753E-03    0.668E-03
RMM:   9    -0.413164528321E+03    0.34428E-06   -0.99055E-06  3737   0.393E-03
    4 T=    61. E= -.41286648E+03 F= -.41316453E+03 E0= -.41314204E+03  EK= 0.29804E+00 SP= 0.00E+00 SK= 0.00E+00
       N       E                     dE             d eps       ncg     rms          rms(c)
RMM:   1    -0.413157062638E+03    0.74660E-02   -0.10646E+01  4233   0.696E-01    0.883E-01
RMM:   2    -0.413166825753E+03   -0.97631E-02   -0.13085E-01  4111   0.946E-02    0.642E-01
RMM:   3    -0.413165194633E+03    0.16311E-02   -0.81967E-03  4995   0.426E-02    0.159E-01
RMM:   4    -0.413203386788E+03   -0.38192E-01   -0.39999E-02  5160   0.167E-01    0.813E-01
RMM:   5    -0.413164434415E+03    0.38952E-01   -0.18572E-02  4815   0.136E-01    0.449E-02
RMM:   6    -0.413164666387E+03   -0.23197E-03   -0.31188E-03  5839   0.539E-02    0.252E-02
RMM:   7    -0.413164686017E+03   -0.19630E-04   -0.39255E-04  5955   0.170E-02    0.175E-02
RMM:   8    -0.413164691045E+03   -0.50284E-05   -0.62816E-05  5084   0.765E-03    0.928E-03
RMM:   9    -0.413164694008E+03   -0.29624E-05   -0.13645E-05  3916   0.404E-03    0.632E-03
RMM:  10    -0.413164699119E+03   -0.51113E-05   -0.23744E-06  2609   0.217E-03    0.405E-03
RMM:  11    -0.413164705769E+03   -0.66496E-05   -0.20298E-06  2597   0.209E-03    0.190E-03
RMM:  12    -0.413164711147E+03   -0.53783E-05   -0.13296E-06  2526   0.174E-03    0.637E-04
RMM:  13    -0.413164711923E+03   -0.77594E-06   -0.42895E-07  2213   0.109E-03
    5 T=    61. E= -.41286654E+03 F= -.41316471E+03 E0= -.41314223E+03  EK= 0.29817E+00 SP= 0.00E+00 SK= 0.00E+00
       N       E                     dE             d eps       ncg     rms          rms(c)
RMM:   1    -0.413158011164E+03    0.67000E-02   -0.10685E+01  4250   0.697E-01    0.905E-01
RMM:   2    -0.413166915256E+03   -0.89041E-02   -0.12858E-01  4052   0.957E-02    0.638E-01
RMM:   3    -0.413165450719E+03    0.14645E-02   -0.81658E-03  4810   0.394E-02    0.148E-01
RMM:   4    -0.413191219852E+03   -0.25769E-01   -0.26223E-02  5165   0.135E-01    0.671E-01
RMM:   5    -0.413165011629E+03    0.26208E-01   -0.12763E-02  4822   0.112E-01    0.399E-02
RMM:   6    -0.413165179042E+03   -0.16741E-03   -0.21266E-03  5779   0.443E-02    0.247E-02
RMM:   7    -0.413165184704E+03   -0.56625E-05   -0.29192E-04  5823   0.151E-02    0.161E-02
RMM:   8    -0.413165182570E+03    0.21343E-05   -0.48064E-05  4932   0.702E-03    0.797E-03
RMM:   9    -0.413165181191E+03    0.13785E-05   -0.99116E-06  3559   0.360E-03    0.586E-03
RMM:  10    -0.413165181828E+03   -0.63657E-06   -0.15244E-06  2554   0.194E-03
    6 T=    61. E= -.41286677E+03 F= -.41316518E+03 E0= -.41314272E+03  EK= 0.29842E+00 SP= 0.00E+00 SK= 0.00E+00
       N       E                     dE             d eps       ncg     rms          rms(c)
RMM:   1    -0.413157796418E+03    0.73848E-02   -0.10631E+01  4256   0.701E-01    0.900E-01
RMM:   2    -0.413166467570E+03   -0.86712E-02   -0.12774E-01  4157   0.945E-02    0.631E-01
RMM:   3    -0.413167034624E+03   -0.56705E-03   -0.96322E-03  5104   0.572E-02    0.238E-01
RMM:   4    -0.413202485020E+03   -0.35450E-01   -0.45145E-02  5134   0.178E-01    0.801E-01
RMM:   5    -0.413164785052E+03    0.37700E-01   -0.16854E-02  4774   0.133E-01    0.539E-02
RMM:   6    -0.413164917926E+03   -0.13287E-03   -0.27533E-03  5649   0.522E-02    0.245E-02
RMM:   7    -0.413164938272E+03   -0.20346E-04   -0.37882E-04  6012   0.162E-02    0.163E-02
RMM:   8    -0.413164938237E+03    0.34983E-07   -0.59248E-05  5253   0.778E-03    0.767E-03
RMM:   9    -0.413164935207E+03    0.30298E-05   -0.10672E-05  3469   0.362E-03    0.371E-03
RMM:  10    -0.413164935279E+03   -0.71683E-07   -0.24567E-06  2600   0.215E-03
    7 T=    61. E= -.41286647E+03 F= -.41316494E+03 E0= -.41314249E+03  EK= 0.29847E+00 SP= 0.00E+00 SK= 0.00E+00
       N       E                     dE             d eps       ncg     rms          rms(c)
RMM:   1    -0.413157937736E+03    0.69975E-02   -0.10630E+01  4266   0.707E-01    0.882E-01
RMM:   2    -0.413167528633E+03   -0.95909E-02   -0.13024E-01  4145   0.947E-02    0.639E-01
RMM:   3    -0.413167021344E+03    0.50729E-03   -0.89845E-03  5090   0.530E-02    0.210E-01
RMM:   4    -0.413209633388E+03   -0.42612E-01   -0.50028E-02  5144   0.187E-01    0.865E-01
RMM:   5    -0.413165269823E+03    0.44364E-01   -0.20386E-02  4797   0.144E-01    0.522E-02
RMM:   6    -0.413165463452E+03   -0.19363E-03   -0.32473E-03  5719   0.566E-02    0.241E-02
RMM:   7    -0.413165489920E+03   -0.26468E-04   -0.43181E-04  6016   0.174E-02    0.173E-02
RMM:   8    -0.413165495102E+03   -0.51817E-05   -0.67949E-05  5250   0.803E-03    0.873E-03
RMM:   9    -0.413165495992E+03   -0.88973E-06   -0.12820E-05  3678   0.389E-03    0.450E-03
RMM:  10    -0.413165499571E+03   -0.35794E-05   -0.27807E-06  2620   0.219E-03    0.302E-03
RMM:  11    -0.413165503275E+03   -0.37036E-05   -0.11810E-06  2519   0.165E-03    0.149E-03
RMM:  12    -0.413165506549E+03   -0.32747E-05   -0.93380E-07  2476   0.141E-03    0.363E-04
RMM:  13    -0.413165507775E+03   -0.12261E-05   -0.42302E-07  2056   0.101E-03    0.291E-04
RMM:  14    -0.413165508155E+03   -0.38006E-06   -0.21539E-07  1536   0.785E-04
    8 T=    61. E= -.41286671E+03 F= -.41316551E+03 E0= -.41314308E+03  EK= 0.29880E+00 SP= 0.00E+00 SK= 0.00E+00
       N       E                     dE             d eps       ncg     rms          rms(c)
RMM:   1    -0.413158359625E+03    0.71482E-02   -0.10689E+01  4279   0.712E-01    0.899E-01
RMM:   2    -0.413167571954E+03   -0.92123E-02   -0.12950E-01  4158   0.979E-02    0.641E-01
RMM:   3    -0.413166022092E+03    0.15499E-02   -0.82362E-03  4889   0.410E-02    0.151E-01
RMM:   4    -0.413196936545E+03   -0.30914E-01   -0.31806E-02  5150   0.148E-01    0.733E-01
RMM:   5    -0.413165461126E+03    0.31475E-01   -0.15293E-02  4809   0.122E-01    0.426E-02
RMM:   6    -0.413165655885E+03   -0.19476E-03   -0.25298E-03  5757   0.484E-02    0.253E-02
RMM:   7    -0.413165666929E+03   -0.11045E-04   -0.34441E-04  5857   0.159E-02    0.168E-02
RMM:   8    -0.413165666116E+03    0.81280E-06   -0.51313E-05  5015   0.717E-03    0.821E-03
RMM:   9    -0.413165664934E+03    0.11825E-05   -0.11169E-05  3652   0.369E-03    0.576E-03
RMM:  10    -0.413165665829E+03   -0.89524E-06   -0.17334E-06  2563   0.197E-03
    9 T=    61. E= -.41286661E+03 F= -.41316567E+03 E0= -.41314326E+03  EK= 0.29906E+00 SP= 0.00E+00 SK= 0.00E+00
       N       E                     dE             d eps       ncg     rms          rms(c)
RMM:   1    -0.413158705489E+03    0.69594E-02   -0.10671E+01  4295   0.716E-01    0.907E-01
RMM:   2    -0.413167279531E+03   -0.85740E-02   -0.12790E-01  4248   0.953E-02    0.633E-01
RMM:   3    -0.413168262496E+03   -0.98297E-03   -0.10132E-02  5099   0.617E-02    0.255E-01
RMM:   4    -0.413200472775E+03   -0.32210E-01   -0.43609E-02  5122   0.175E-01    0.772E-01
RMM:   5    -0.413165621425E+03    0.34851E-01   -0.15289E-02  4752   0.128E-01    0.537E-02
RMM:   6    -0.413165743240E+03   -0.12182E-03   -0.25651E-03  5634   0.502E-02    0.246E-02
RMM:   7    -0.413165760475E+03   -0.17235E-04   -0.35822E-04  6001   0.160E-02    0.162E-02
RMM:   8    -0.413165758211E+03    0.22638E-05   -0.57853E-05  5242   0.779E-03    0.760E-03
RMM:   9    -0.413165753467E+03    0.47442E-05   -0.10050E-05  3417   0.360E-03    0.358E-03
RMM:  10    -0.413165752326E+03    0.11407E-05   -0.22634E-06  2580   0.213E-03    0.248E-03
RMM:  11    -0.413165750652E+03    0.16739E-05   -0.11335E-06  2515   0.165E-03    0.128E-03
RMM:  12    -0.413165748930E+03    0.17225E-05   -0.68638E-07  2432   0.129E-03    0.398E-04
RMM:  13    -0.413165748130E+03    0.80001E-06   -0.32832E-07  1918   0.926E-04
   10 T=    61. E= -.41286647E+03 F= -.41316575E+03 E0= -.41314336E+03  EK= 0.29928E+00 SP= 0.00E+00 SK= 0.00E+00
       N       E                     dE             d eps       ncg     rms          rms(c)
RMM:   1    -0.413159467137E+03    0.62818E-02   -0.10625E+01  4290   0.729E-01    0.883E-01
RMM:   2    -0.413168457791E+03   -0.89907E-02   -0.12949E-01  4208   0.957E-02    0.636E-01
RMM:   3    -0.413166893018E+03    0.15648E-02   -0.79734E-03  4876   0.421E-02    0.151E-01
RMM:   4    -0.413198317118E+03   -0.31424E-01   -0.32428E-02  5148   0.150E-01    0.739E-01
RMM:   5    -0.413166287939E+03    0.32029E-01   -0.15605E-02  4806   0.123E-01    0.421E-02
RMM:   6    -0.413166480352E+03   -0.19241E-03   -0.25318E-03  5767   0.486E-02    0.249E-02
RMM:   7    -0.413166491723E+03   -0.11371E-04   -0.33884E-04  5842   0.159E-02    0.167E-02
RMM:   8    -0.413166491905E+03   -0.18216E-06   -0.54010E-05  5019   0.731E-03    0.842E-03
RMM:   9    -0.413166490950E+03    0.95546E-06   -0.11719E-05  3717   0.381E-03    0.586E-03
RMM:  10    -0.413166492436E+03   -0.14862E-05   -0.18502E-06  2571   0.200E-03    0.382E-03
RMM:  11    -0.413166494523E+03   -0.20871E-05   -0.17494E-06  2559   0.200E-03    0.164E-03
RMM:  12    -0.413166495839E+03   -0.13158E-05   -0.10606E-06  2493   0.159E-03    0.650E-04
RMM:  13    -0.413166495931E+03   -0.92565E-07   -0.33854E-07  2088   0.992E-04
   11 T=    61. E= -.41286680E+03 F= -.41316650E+03 E0= -.41314414E+03  EK= 0.29970E+00 SP= 0.00E+00 SK= 0.00E+00
       N       E                     dE             d eps       ncg     rms          rms(c)
RMM:   1    -0.413159002501E+03    0.74933E-02   -0.10697E+01  4295   0.725E-01    0.894E-01
RMM:   2    -0.413168429386E+03   -0.94269E-02   -0.13079E-01  4225   0.969E-02    0.644E-01
RMM:   3    -0.413166690170E+03    0.17392E-02   -0.81328E-03  4836   0.404E-02    0.146E-01
RMM:   4    -0.413194371910E+03   -0.27682E-01   -0.28384E-02  5143   0.140E-01    0.694E-01
RMM:   5    -0.413166219454E+03    0.28152E-01   -0.13752E-02  4806   0.116E-01    0.401E-02
RMM:   6    -0.413166397478E+03   -0.17802E-03   -0.22672E-03  5793   0.455E-02    0.242E-02
RMM:   7    -0.413166407864E+03   -0.10386E-04   -0.29813E-04  5821   0.152E-02    0.160E-02
RMM:   8    -0.413166407768E+03    0.95701E-07   -0.51607E-05  4972   0.719E-03    0.830E-03
RMM:   9    -0.413166406488E+03    0.12795E-05   -0.10818E-05  3683   0.375E-03    0.594E-03
RMM:  10    -0.413166407717E+03   -0.12282E-05   -0.16435E-06  2551   0.196E-03    0.389E-03
RMM:  11    -0.413166409524E+03   -0.18075E-05   -0.18590E-06  2578   0.206E-03    0.168E-03
RMM:  12    -0.413166410498E+03   -0.97332E-06   -0.10050E-06  2482   0.157E-03
   12 T=    61. E= -.41286654E+03 F= -.41316641E+03 E0= -.41314408E+03  EK= 0.29987E+00 SP= 0.00E+00 SK= 0.00E+00
       N       E                     dE             d eps       ncg     rms          rms(c)
RMM:   1    -0.413160041832E+03    0.63677E-02   -0.10704E+01  4298   0.728E-01    0.912E-01
RMM:   2    -0.413168431986E+03   -0.83902E-02   -0.12816E-01  4226   0.944E-02    0.635E-01
RMM:   3    -0.413167275614E+03    0.11564E-02   -0.83314E-03  4843   0.381E-02    0.152E-01
RMM:   4    -0.413192928515E+03   -0.25653E-01   -0.26206E-02  5143   0.134E-01    0.669E-01
RMM:   5    -0.413166852161E+03    0.26076E-01   -0.12767E-02  4806   0.111E-01    0.405E-02
RMM:   6    -0.413167011778E+03   -0.15962E-03   -0.21321E-03  5804   0.440E-02    0.248E-02
RMM:   7    -0.413167014661E+03   -0.28831E-05   -0.27460E-04  5830   0.150E-02    0.157E-02
RMM:   8    -0.413167009021E+03    0.56397E-05   -0.53165E-05  4965   0.729E-03    0.853E-03
RMM:   9    -0.413167003774E+03    0.52475E-05   -0.10772E-05  3746   0.378E-03    0.627E-03
RMM:  10    -0.413167001184E+03    0.25892E-05   -0.15578E-06  2550   0.198E-03    0.405E-03
RMM:  11    -0.413166997518E+03    0.36664E-05   -0.17515E-06  2562   0.204E-03    0.186E-03
RMM:  12    -0.413166993970E+03    0.35479E-05   -0.10505E-06  2485   0.161E-03    0.662E-04
RMM:  13    -0.413166993532E+03    0.43825E-06   -0.34116E-07  2097   0.997E-04
   13 T=    61. E= -.41286668E+03 F= -.41316699E+03 E0= -.41314469E+03  EK= 0.30032E+00 SP= 0.00E+00 SK= 0.00E+00
       N       E                     dE             d eps       ncg     rms          rms(c)
RMM:   1    -0.413160304136E+03    0.66898E-02   -0.10625E+01  4299   0.732E-01    0.887E-01
RMM:   2    -0.413169481635E+03   -0.91775E-02   -0.12918E-01  4224   0.938E-02    0.635E-01
RMM:   3    -0.413167913536E+03    0.15681E-02   -0.79766E-03  4819   0.392E-02    0.147E-01
RMM:   4    -0.413194134135E+03   -0.26221E-01   -0.26852E-02  5141   0.136E-01    0.676E-01
RMM:   5    -0.413167485264E+03    0.26649E-01   -0.13050E-02  4807   0.112E-01    0.396E-02
RMM:   6    -0.413167650241E+03   -0.16498E-03   -0.21609E-03  5806   0.443E-02    0.242E-02
RMM:   7    -0.413167656644E+03   -0.64036E-05   -0.28299E-04  5798   0.150E-02    0.158E-02
RMM:   8    -0.413167653915E+03    0.27295E-05   -0.51149E-05  4951   0.719E-03    0.822E-03
RMM:   9    -0.413167650982E+03    0.29329E-05   -0.10514E-05  3661   0.373E-03    0.598E-03
RMM:  10    -0.413167650691E+03    0.29064E-06   -0.15693E-06  2548   0.195E-03
   14 T=    61. E= -.41286678E+03 F= -.41316765E+03 E0= -.41314538E+03  EK= 0.30087E+00 SP= 0.00E+00 SK= 0.00E+00
       N       E                     dE             d eps       ncg     rms          rms(c)
RMM:   1    -0.413160419010E+03    0.72320E-02   -0.10714E+01  4303   0.746E-01    0.891E-01
RMM:   2    -0.413169959752E+03   -0.95407E-02   -0.13152E-01  4275   0.987E-02    0.646E-01
RMM:   3    -0.413170016492E+03   -0.56740E-04   -0.97700E-03  5087   0.592E-02    0.241E-01
RMM:   4    -0.413209006783E+03   -0.38990E-01   -0.49876E-02  5119   0.186E-01    0.837E-01
RMM:   5    -0.413167532927E+03    0.41474E-01   -0.18583E-02  4766   0.139E-01    0.537E-02
RMM:   6    -0.413167684351E+03   -0.15142E-03   -0.29812E-03  5665   0.543E-02    0.235E-02
RMM:   7    -0.413167708139E+03   -0.23788E-04   -0.40401E-04  5998   0.167E-02    0.164E-02
RMM:   8    -0.413167710752E+03   -0.26127E-05   -0.62559E-05  5230   0.788E-03    0.797E-03
RMM:   9    -0.413167709433E+03    0.13183E-05   -0.11915E-05  3554   0.375E-03    0.375E-03
RMM:  10    -0.413167710847E+03   -0.14132E-05   -0.26820E-06  2611   0.216E-03    0.260E-03
RMM:  11    -0.413167712126E+03   -0.12791E-05   -0.11303E-06  2512   0.163E-03    0.132E-03
RMM:  12    -0.413167712866E+03   -0.73984E-06   -0.74325E-07  2425   0.130E-03
   15 T=    61. E= -.41286646E+03 F= -.41316771E+03 E0= -.41314548E+03  EK= 0.30125E+00 SP= 0.00E+00 SK= 0.00E+00
       N       E                     dE             d eps       ncg     rms          rms(c)
RMM:   1    -0.413161867857E+03    0.58443E-02   -0.10740E+01  4295   0.739E-01    0.914E-01
RMM:   2    -0.413170375567E+03   -0.85077E-02   -0.12896E-01  4250   0.982E-02    0.639E-01
RMM:   3    -0.413169176743E+03    0.11988E-02   -0.85249E-03  4924   0.418E-02    0.161E-01
RMM:   4    -0.413203401442E+03   -0.34225E-01   -0.35587E-02  5137   0.156E-01    0.770E-01
RMM:   5    -0.413168534108E+03    0.34867E-01   -0.16943E-02  4798   0.129E-01    0.450E-02
RMM:   6    -0.413168736384E+03   -0.20228E-03   -0.28419E-03  5777   0.510E-02    0.270E-02
RMM:   7    -0.413168741241E+03   -0.48568E-05   -0.36992E-04  5833   0.169E-02    0.179E-02
RMM:   8    -0.413168734622E+03    0.66188E-05   -0.60856E-05  5041   0.777E-03    0.938E-03
RMM:   9    -0.413168728129E+03    0.64928E-05   -0.12898E-05  3846   0.401E-03    0.650E-03
RMM:  10    -0.413168724518E+03    0.36113E-05   -0.20332E-06  2579   0.211E-03    0.419E-03
RMM:  11    -0.413168720299E+03    0.42186E-05   -0.16738E-06  2545   0.201E-03    0.193E-03
RMM:  12    -0.413168715723E+03    0.45763E-05   -0.12333E-06  2507   0.174E-03    0.686E-04
RMM:  13    -0.413168715031E+03    0.69139E-06   -0.39127E-07  2214   0.109E-03
   16 T=    61. E= -.41286675E+03 F= -.41316872E+03 E0= -.41314652E+03  EK= 0.30196E+00 SP= 0.00E+00 SK= 0.00E+00
       N       E                     dE             d eps       ncg     rms          rms(c)
RMM:   1    -0.413161807521E+03    0.69082E-02   -0.10658E+01  4297   0.742E-01    0.894E-01
RMM:   2    -0.413171015442E+03   -0.92079E-02   -0.12949E-01  4250   0.962E-02    0.635E-01
RMM:   3    -0.413169424215E+03    0.15912E-02   -0.80701E-03  4879   0.405E-02    0.154E-01
RMM:   4    -0.413199439729E+03   -0.30016E-01   -0.30901E-02  5138   0.146E-01    0.722E-01
RMM:   5    -0.413168940599E+03    0.30499E-01   -0.14936E-02  4805   0.120E-01    0.419E-02
RMM:   6    -0.413169122246E+03   -0.18165E-03   -0.24739E-03  5795   0.476E-02    0.253E-02
RMM:   7    -0.413169128982E+03   -0.67359E-05   -0.31716E-04  5820   0.158E-02    0.166E-02
RMM:   8    -0.413169124742E+03    0.42400E-05   -0.56837E-05  5010   0.750E-03    0.888E-03
RMM:   9    -0.413169119678E+03    0.50643E-05   -0.11981E-05  3818   0.393E-03    0.630E-03
RMM:  10    -0.413169117462E+03    0.22161E-05   -0.17842E-06  2559   0.204E-03    0.410E-03
RMM:  11    -0.413169114327E+03    0.31352E-05   -0.18727E-06  2566   0.210E-03    0.181E-03
RMM:  12    -0.413169111379E+03    0.29472E-05   -0.10570E-06  2490   0.165E-03    0.662E-04
RMM:  13    -0.413169111008E+03    0.37181E-06   -0.34601E-07  2135   0.101E-03
   17 T=    62. E= -.41286659E+03 F= -.41316911E+03 E0= -.41314695E+03  EK= 0.30252E+00 SP= 0.00E+00 SK= 0.00E+00
       N       E                     dE             d eps       ncg     rms          rms(c)
RMM:   1    -0.413162130410E+03    0.69810E-02   -0.10732E+01  4298   0.754E-01    0.889E-01
RMM:   2    -0.413171914718E+03   -0.97843E-02   -0.13206E-01  4257   0.999E-02    0.647E-01
RMM:   3    -0.413170014796E+03    0.18999E-02   -0.81991E-03  4871   0.428E-02    0.148E-01
RMM:   4    -0.413201305254E+03   -0.31290E-01   -0.32402E-02  5139   0.149E-01    0.737E-01
RMM:   5    -0.413169422466E+03    0.31883E-01   -0.15534E-02  4795   0.123E-01    0.421E-02
RMM:   6    -0.413169614644E+03   -0.19218E-03   -0.25926E-03  5796   0.486E-02    0.248E-02
RMM:   7    -0.413169625508E+03   -0.10864E-04   -0.32335E-04  5844   0.158E-02    0.164E-02
RMM:   8    -0.413169624635E+03    0.87252E-06   -0.58187E-05  5027   0.754E-03    0.875E-03
RMM:   9    -0.413169621952E+03    0.26826E-05   -0.12887E-05  3906   0.403E-03    0.606E-03
RMM:  10    -0.413169622254E+03   -0.30173E-06   -0.19277E-06  2568   0.205E-03
   18 T=    62. E= -.41286654E+03 F= -.41316962E+03 E0= -.41314750E+03  EK= 0.30309E+00 SP= 0.00E+00 SK= 0.00E+00
       N       E                     dE             d eps       ncg     rms          rms(c)
RMM:   1    -0.413163748137E+03    0.58738E-02   -0.10773E+01  4304   0.751E-01    0.912E-01
RMM:   2    -0.413172557708E+03   -0.88096E-02   -0.13040E-01  4294   0.976E-02    0.642E-01
RMM:   3    -0.413174063750E+03   -0.15060E-02   -0.10779E-02  5101   0.661E-02    0.278E-01
RMM:   4    -0.413204026198E+03   -0.29962E-01   -0.44040E-02  5099   0.176E-01    0.754E-01
RMM:   5    -0.413170714443E+03    0.33312E-01   -0.14307E-02  4729   0.125E-01    0.533E-02
RMM:   6    -0.413170818674E+03   -0.10423E-03   -0.24235E-03  5612   0.485E-02    0.247E-02
RMM:   7    -0.413170832327E+03   -0.13653E-04   -0.34012E-04  5998   0.157E-02    0.163E-02
RMM:   8    -0.413170828051E+03    0.42762E-05   -0.56899E-05  5202   0.777E-03    0.757E-03
RMM:   9    -0.413170821194E+03    0.68574E-05   -0.10073E-05  3417   0.363E-03    0.345E-03
RMM:  10    -0.413170818642E+03    0.25511E-05   -0.22050E-06  2568   0.210E-03    0.236E-03
RMM:  11    -0.413170814737E+03    0.39054E-05   -0.11100E-06  2514   0.166E-03    0.127E-03
RMM:  12    -0.413170811308E+03    0.34286E-05   -0.59927E-07  2397   0.126E-03    0.422E-04
RMM:  13    -0.413170809565E+03    0.17434E-05   -0.29509E-07  1897   0.907E-04    0.245E-04
RMM:  14    -0.413170808013E+03    0.15525E-05   -0.17959E-07  1444   0.757E-04    0.166E-04
RMM:  15    -0.413170805018E+03    0.29949E-05   -0.18935E-07  1503   0.753E-04    0.980E-05
RMM:  16    -0.413170803367E+03    0.16505E-05   -0.11323E-07  1307   0.660E-04    0.849E-05
RMM:  17    -0.413170800424E+03    0.29428E-05   -0.12766E-07  1434   0.670E-04    0.451E-05
RMM:  18    -0.413170799224E+03    0.12002E-05   -0.61634E-08   996   0.559E-04    0.341E-05
RMM:  19    -0.413170798709E+03    0.51470E-06   -0.30008E-08   793   0.523E-04
   19 T=    62. E= -.41286689E+03 F= -.41317080E+03 E0= -.41314872E+03  EK= 0.30391E+00 SP= 0.00E+00 SK= 0.00E+00
       N       E                     dE             d eps       ncg     rms          rms(c)
RMM:   1    -0.413164098586E+03    0.67006E-02   -0.10715E+01  4298   0.752E-01    0.902E-01
RMM:   2    -0.413172940208E+03   -0.88416E-02   -0.12963E-01  4257   0.990E-02    0.636E-01
RMM:   3    -0.413171822903E+03    0.11173E-02   -0.84016E-03  4949   0.437E-02    0.169E-01
RMM:   4    -0.413210131442E+03   -0.38309E-01   -0.40569E-02  5139   0.167E-01    0.814E-01
RMM:   5    -0.413171022274E+03    0.39109E-01   -0.18992E-02  4793   0.136E-01    0.474E-02
RMM:   6    -0.413171237871E+03   -0.21560E-03   -0.31673E-03  5749   0.541E-02    0.274E-02
RMM:   7    -0.413171243202E+03   -0.53311E-05   -0.41167E-04  5835   0.174E-02    0.185E-02
RMM:   8    -0.413171236918E+03    0.62840E-05   -0.64935E-05  5132   0.797E-03    0.954E-03
RMM:   9    -0.413171230022E+03    0.68958E-05   -0.14118E-05  3956   0.412E-03    0.631E-03
RMM:  10    -0.413171226291E+03    0.37315E-05   -0.22344E-06  2591   0.214E-03    0.409E-03
RMM:  11    -0.413171222281E+03    0.40094E-05   -0.14778E-06  2519   0.191E-03    0.193E-03
RMM:  12    -0.413171217980E+03    0.43014E-05   -0.11407E-06  2502   0.170E-03    0.610E-04
RMM:  13    -0.413171217120E+03    0.85968E-06   -0.39859E-07  2232   0.111E-03
   20 T=    62. E= -.41286661E+03 F= -.41317122E+03 E0= -.41314918E+03  EK= 0.30461E+00 SP= 0.00E+00 SK= 0.00E+00
       N       E                     dE             d eps       ncg     rms          rms(c)
RMM:   1    -0.413167296712E+03    0.39213E-02   -0.10782E+01  4300   0.795E-01    0.889E-01
RMM:   2    -0.413174593468E+03   -0.72968E-02   -0.13807E-01  4276   0.102E-01    0.647E-01
RMM:   3    -0.413172626194E+03    0.19673E-02   -0.80601E-03  4866   0.413E-02    0.153E-01
RMM:   4    -0.413202874576E+03   -0.30248E-01   -0.31209E-02  5134   0.147E-01    0.724E-01
RMM:   5    -0.413172120161E+03    0.30754E-01   -0.15154E-02  4806   0.121E-01    0.412E-02
RMM:   6    -0.413172299131E+03   -0.17897E-03   -0.24468E-03  5806   0.474E-02    0.246E-02
RMM:   7    -0.413172308396E+03   -0.92651E-05   -0.30796E-04  5820   0.156E-02    0.159E-02
RMM:   8    -0.413172306574E+03    0.18220E-05   -0.58359E-05  4995   0.756E-03    0.885E-03
RMM:   9    -0.413172302523E+03    0.40508E-05   -0.12694E-05  3919   0.404E-03    0.618E-03
RMM:  10    -0.413172301779E+03    0.74407E-06   -0.18553E-06  2563   0.205E-03
   21 T=    62. E= -.41286673E+03 F= -.41317230E+03 E0= -.41315031E+03  EK= 0.30557E+00 SP= 0.00E+00 SK= 0.00E+00
       N       E                     dE             d eps       ncg     rms          rms(c)
RMM:   1    -0.413166245030E+03    0.60575E-02   -0.10821E+01  4297   0.764E-01    0.910E-01
RMM:   2    -0.413175298690E+03   -0.90537E-02   -0.13193E-01  4301   0.986E-02    0.647E-01
RMM:   3    -0.413176147611E+03   -0.84892E-03   -0.10432E-02  5083   0.635E-02    0.263E-01
RMM:   4    -0.413210431523E+03   -0.34284E-01   -0.47137E-02  5106   0.182E-01    0.795E-01
RMM:   5    -0.413173195934E+03    0.37236E-01   -0.16419E-02  4747   0.132E-01    0.534E-02
RMM:   6    -0.413173319430E+03   -0.12350E-03   -0.27126E-03  5639   0.517E-02    0.249E-02
RMM:   7    -0.413173333062E+03   -0.13631E-04   -0.37533E-04  5993   0.165E-02    0.168E-02
RMM:   8    -0.413173329072E+03    0.39898E-05   -0.60460E-05  5207   0.795E-03    0.793E-03
RMM:   9    -0.413173322002E+03    0.70694E-05   -0.11331E-05  3541   0.377E-03    0.371E-03
RMM:  10    -0.413173319217E+03    0.27852E-05   -0.24228E-06  2592   0.215E-03    0.258E-03
RMM:  11    -0.413173315431E+03    0.37862E-05   -0.10521E-06  2503   0.163E-03    0.132E-03
RMM:  12    -0.413173311656E+03    0.37745E-05   -0.62034E-07  2407   0.127E-03    0.367E-04
RMM:  13    -0.413173309753E+03    0.19038E-05   -0.30300E-07  1899   0.915E-04    0.226E-04
RMM:  14    -0.413173307834E+03    0.19183E-05   -0.18485E-07  1452   0.761E-04    0.130E-04
RMM:  15    -0.413173305041E+03    0.27937E-05   -0.15887E-07  1381   0.729E-04    0.867E-05
RMM:  16    -0.413173303375E+03    0.16657E-05   -0.10746E-07  1309   0.667E-04    0.805E-05
RMM:  17    -0.413173300887E+03    0.24875E-05   -0.10068E-07  1332   0.649E-04    0.496E-05
RMM:  18    -0.413173299350E+03    0.15376E-05   -0.59003E-08  1029   0.578E-04    0.229E-05
RMM:  19    -0.413173298914E+03    0.43553E-06   -0.27170E-08   790   0.534E-04
   22 T=    62. E= -.41286677E+03 F= -.41317330E+03 E0= -.41315136E+03  EK= 0.30652E+00 SP= 0.00E+00 SK= 0.00E+00
       N       E                     dE             d eps       ncg     rms          rms(c)
RMM:   1    -0.413167067521E+03    0.62318E-02   -0.10802E+01  4295   0.774E-01    0.912E-01
RMM:   2    -0.413175840378E+03   -0.87729E-02   -0.13090E-01  4273   0.105E-01    0.640E-01
RMM:   3    -0.413174474537E+03    0.13658E-02   -0.85706E-03  4868   0.459E-02    0.163E-01
RMM:   4    -0.413209219909E+03   -0.34745E-01   -0.36161E-02  5141   0.158E-01    0.775E-01
RMM:   5    -0.413173826290E+03    0.35394E-01   -0.17363E-02  4796   0.130E-01    0.454E-02
RMM:   6    -0.413174023957E+03   -0.19767E-03   -0.29059E-03  5796   0.514E-02    0.276E-02
RMM:   7    -0.413174028538E+03   -0.45811E-05   -0.36784E-04  5788   0.171E-02    0.179E-02
RMM:   8    -0.413174020589E+03    0.79497E-05   -0.64673E-05  5097   0.799E-03    0.970E-03
RMM:   9    -0.413174012423E+03    0.81661E-05   -0.13752E-05  3986   0.415E-03    0.668E-03
RMM:  10    -0.413174007482E+03    0.49406E-05   -0.20633E-06  2581   0.213E-03    0.434E-03
RMM:  11    -0.413174001612E+03    0.58705E-05   -0.16409E-06  2523   0.202E-03    0.200E-03
RMM:  12    -0.413173995565E+03    0.60470E-05   -0.11565E-06  2491   0.175E-03    0.649E-04
RMM:  13    -0.413173994519E+03    0.10451E-05   -0.39058E-07  2222   0.110E-03    0.448E-04
RMM:  14    -0.413173994060E+03    0.45951E-06   -0.18532E-07  1698   0.782E-04
   23 T=    63. E= -.41286649E+03 F= -.41317399E+03 E0= -.41315210E+03  EK= 0.30751E+00 SP= 0.00E+00 SK= 0.00E+00
       N       E                     dE             d eps       ncg     rms          rms(c)
RMM:   1    -0.413168090731E+03    0.59038E-02   -0.10801E+01  4296   0.778E-01    0.892E-01
RMM:   2    -0.413177939607E+03   -0.98489E-02   -0.13347E-01  4278   0.103E-01    0.646E-01
RMM:   3    -0.413175821808E+03    0.21178E-02   -0.82077E-03  4766   0.436E-02    0.147E-01
RMM:   4    -0.413202153905E+03   -0.26332E-01   -0.26886E-02  5144   0.137E-01    0.676E-01
RMM:   5    -0.413175439934E+03    0.26714E-01   -0.13234E-02  4803   0.113E-01    0.400E-02
RMM:   6    -0.413175590687E+03   -0.15075E-03   -0.21732E-03  5801   0.444E-02    0.247E-02
RMM:   7    -0.413175596640E+03   -0.59528E-05   -0.28528E-04  5760   0.155E-02    0.157E-02
RMM:   8    -0.413175592605E+03    0.40344E-05   -0.54457E-05  4987   0.746E-03    0.847E-03
RMM:   9    -0.413175587681E+03    0.49238E-05   -0.11302E-05  3764   0.387E-03    0.602E-03
RMM:  10    -0.413175585824E+03    0.18574E-05   -0.16103E-06  2550   0.198E-03    0.397E-03
RMM:  11    -0.413175582872E+03    0.29520E-05   -0.18633E-06  2552   0.214E-03    0.167E-03
RMM:  12    -0.413175580449E+03    0.24231E-05   -0.88402E-07  2459   0.155E-03    0.641E-04
RMM:  13    -0.413175580219E+03    0.22951E-06   -0.29492E-07  2022   0.941E-04
   24 T=    63. E= -.41286675E+03 F= -.41317558E+03 E0= -.41315373E+03  EK= 0.30883E+00 SP= 0.00E+00 SK= 0.00E+00
       N       E                     dE             d eps       ncg     rms          rms(c)
RMM:   1    -0.413169353527E+03    0.62269E-02   -0.10893E+01  4296   0.791E-01    0.907E-01
RMM:   2    -0.413178882481E+03   -0.95290E-02   -0.13378E-01  4276   0.105E-01    0.652E-01
RMM:   3    -0.413176801548E+03    0.20809E-02   -0.83353E-03  4676   0.439E-02    0.143E-01
RMM:   4    -0.413196607226E+03   -0.19806E-01   -0.20188E-02  5141   0.119E-01    0.590E-01
RMM:   5    -0.413176473578E+03    0.20134E-01   -0.99885E-03  4811   0.977E-02    0.369E-02
RMM:   6    -0.413176570020E+03   -0.96442E-04   -0.15904E-03  5825   0.378E-02    0.220E-02
RMM:   7    -0.413176572122E+03   -0.21018E-05   -0.17409E-04  5611   0.125E-02    0.103E-02
RMM:   8    -0.413176567385E+03    0.47369E-05   -0.29599E-05  4631   0.547E-03    0.665E-03
RMM:   9    -0.413176563919E+03    0.34662E-05   -0.51809E-06  2966   0.265E-03    0.490E-03
RMM:  10    -0.413176562811E+03    0.11080E-05   -0.11859E-06  2512   0.172E-03    0.361E-03
RMM:  11    -0.413176557654E+03    0.51566E-05   -0.17291E-06  2523   0.214E-03    0.167E-03
RMM:  12    -0.413176555132E+03    0.25224E-05   -0.76809E-07  2411   0.147E-03    0.941E-04
RMM:  13    -0.413176554491E+03    0.64036E-06   -0.24030E-07  1971   0.892E-04
   25 T=    63. E= -.41286662E+03 F= -.41317655E+03 E0= -.41315476E+03  EK= 0.30994E+00 SP= 0.00E+00 SK= 0.00E+00
       N       E                     dE             d eps       ncg     rms          rms(c)
RMM:   1    -0.413174623435E+03    0.19317E-02   -0.10947E+01  4296   0.824E-01    0.922E-01
RMM:   2    -0.413179556587E+03   -0.49332E-02   -0.13646E-01  4276   0.108E-01    0.645E-01
RMM:   3    -0.413177967507E+03    0.15891E-02   -0.84574E-03  4627   0.438E-02    0.153E-01
RMM:   4    -0.413195947078E+03   -0.17980E-01   -0.18206E-02  5144   0.113E-01    0.561E-01
RMM:   5    -0.413177773975E+03    0.18173E-01   -0.90988E-03  4821   0.928E-02    0.373E-02
RMM:   6    -0.413177849879E+03   -0.75905E-04   -0.14214E-03  5818   0.359E-02    0.224E-02
RMM:   7    -0.413177844520E+03    0.53597E-05   -0.16045E-04  5567   0.124E-02    0.101E-02
RMM:   8    -0.413177836774E+03    0.77454E-05   -0.25973E-05  4478   0.521E-03    0.650E-03
RMM:   9    -0.413177830912E+03    0.58618E-05   -0.41192E-06  2825   0.246E-03    0.462E-03
RMM:  10    -0.413177828503E+03    0.24090E-05   -0.10311E-06  2492   0.164E-03    0.341E-03
RMM:  11    -0.413177818539E+03    0.99642E-05   -0.15920E-06  2521   0.210E-03    0.164E-03
RMM:  12    -0.413177814297E+03    0.42424E-05   -0.69446E-07  2372   0.142E-03    0.941E-04
RMM:  13    -0.413177813390E+03    0.90707E-06   -0.22637E-07  1929   0.874E-04
   26 T=    63. E= -.41286657E+03 F= -.41317781E+03 E0= -.41315607E+03  EK= 0.31124E+00 SP= 0.00E+00 SK= 0.00E+00
       N       E                     dE             d eps       ncg     rms          rms(c)
RMM:   1    -0.413172111449E+03    0.57028E-02   -0.10871E+01  4293   0.792E-01    0.898E-01
RMM:   2    -0.413181596391E+03   -0.94849E-02   -0.13404E-01  4276   0.103E-01    0.647E-01
RMM:   3    -0.413179769059E+03    0.18273E-02   -0.82778E-03  4625   0.429E-02    0.143E-01
RMM:   4    -0.413196285958E+03   -0.16517E-01   -0.16838E-02  5147   0.108E-01    0.539E-01
RMM:   5    -0.413179536853E+03    0.16749E-01   -0.84081E-03  4822   0.889E-02    0.354E-02
RMM:   6    -0.413179605641E+03   -0.68788E-04   -0.13103E-03  5833   0.341E-02    0.213E-02
RMM:   7    -0.413179605246E+03    0.39538E-06   -0.15224E-04  5571   0.119E-02    0.980E-03
RMM:   8    -0.413179598780E+03    0.64658E-05   -0.24918E-05  4489   0.513E-03    0.617E-03
RMM:   9    -0.413179597314E+03    0.14664E-05   -0.61796E-06  3137   0.289E-03    0.521E-03
RMM:  10    -0.413179594469E+03    0.28451E-05   -0.10787E-06  2510   0.179E-03    0.343E-03
RMM:  11    -0.413179589342E+03    0.51262E-05   -0.15350E-06  2531   0.197E-03    0.164E-03
RMM:  12    -0.413179585928E+03    0.34141E-05   -0.72008E-07  2406   0.141E-03    0.750E-04
RMM:  13    -0.413179585124E+03    0.80467E-06   -0.22298E-07  1885   0.851E-04
   27 T=    64. E= -.41286670E+03 F= -.41317959E+03 E0= -.41315789E+03  EK= 0.31289E+00 SP= 0.00E+00 SK= 0.00E+00
       N       E                     dE             d eps       ncg     rms          rms(c)
RMM:   1    -0.413185129216E+03   -0.55433E-02   -0.11110E+01  4292   0.877E-01    0.906E-01
RMM:   2    -0.413183048506E+03    0.20807E-02   -0.14822E-01  4272   0.111E-01    0.659E-01
RMM:   3    -0.413180873478E+03    0.21750E-02   -0.81753E-03  4493   0.423E-02    0.153E-01
RMM:   4    -0.413190792259E+03   -0.99188E-02   -0.10487E-02  5145   0.871E-02    0.420E-01
RMM:   5    -0.413180743199E+03    0.10049E-01   -0.50148E-03  4824   0.687E-02    0.324E-02
RMM:   6    -0.413180771001E+03   -0.27802E-04   -0.80935E-04  5857   0.266E-02    0.195E-02
RMM:   7    -0.413180774578E+03   -0.35769E-05   -0.14650E-04  5519   0.119E-02    0.123E-02
RMM:   8    -0.413180762581E+03    0.11997E-04   -0.26422E-05  4570   0.578E-03    0.552E-03
RMM:   9    -0.413180761069E+03    0.15119E-05   -0.48702E-06  2980   0.284E-03    0.441E-03
RMM:  10    -0.413180758712E+03    0.23567E-05   -0.95977E-07  2492   0.175E-03    0.265E-03
RMM:  11    -0.413180755629E+03    0.30838E-05   -0.72686E-07  2469   0.142E-03    0.130E-03
RMM:  12    -0.413180752180E+03    0.34485E-05   -0.51410E-07  2265   0.114E-03    0.466E-04
RMM:  13    -0.413180751234E+03    0.94589E-06   -0.18592E-07  1610   0.775E-04
   28 T=    64. E= -.41286636E+03 F= -.41318075E+03 E0= -.41315910E+03  EK= 0.31440E+00 SP= 0.00E+00 SK= 0.00E+00
       N       E                     dE             d eps       ncg     rms          rms(c)
RMM:   1    -0.413176356348E+03    0.43958E-02   -0.11045E+01  4292   0.822E-01    0.930E-01
RMM:   2    -0.413184630837E+03   -0.82745E-02   -0.13570E-01  4276   0.107E-01    0.651E-01
RMM:   3    -0.413182854518E+03    0.17763E-02   -0.88312E-03  4449   0.444E-02    0.147E-01
RMM:   4    -0.413190303205E+03   -0.74487E-02   -0.78811E-03  5162   0.744E-02    0.363E-01
RMM:   5    -0.413182838512E+03    0.74647E-02   -0.38040E-03  4837   0.597E-02    0.333E-02
RMM:   6    -0.413182852106E+03   -0.13595E-04   -0.65275E-04  5826   0.242E-02    0.212E-02
RMM:   7    -0.413182844820E+03    0.72861E-05   -0.16822E-04  5393   0.128E-02    0.129E-02
RMM:   8    -0.413182830789E+03    0.14032E-04   -0.17077E-05  4171   0.522E-03    0.542E-03
RMM:   9    -0.413182826911E+03    0.38777E-05   -0.32886E-06  2795   0.243E-03    0.396E-03
RMM:  10    -0.413182821074E+03    0.58368E-05   -0.11503E-06  2483   0.179E-03    0.221E-03
RMM:  11    -0.413182814185E+03    0.68897E-05   -0.73718E-07  2445   0.146E-03    0.102E-03
RMM:  12    -0.413182808903E+03    0.52817E-05   -0.37854E-07  2177   0.106E-03    0.451E-04
RMM:  13    -0.413182806651E+03    0.22520E-05   -0.18376E-07  1604   0.770E-04    0.222E-04
RMM:  14    -0.413182803179E+03    0.34714E-05   -0.11744E-07  1284   0.687E-04    0.135E-04
RMM:  15    -0.413182798387E+03    0.47927E-05   -0.10744E-07  1384   0.689E-04    0.979E-05
RMM:  16    -0.413182796856E+03    0.15305E-05   -0.54220E-08   997   0.589E-04    0.692E-05
RMM:  17    -0.413182792094E+03    0.47621E-05   -0.82467E-08  1327   0.644E-04    0.427E-05
RMM:  18    -0.413182791218E+03    0.87596E-06   -0.31846E-08   836   0.531E-04
   29 T=    64. E= -.41286657E+03 F= -.41318279E+03 E0= -.41316119E+03  EK= 0.31622E+00 SP= 0.00E+00 SK= 0.00E+00
       N       E                     dE             d eps       ncg     rms          rms(c)
RMM:   1    -0.413177381270E+03    0.54108E-02   -0.10992E+01  4287   0.820E-01    0.908E-01
RMM:   2    -0.413186776603E+03   -0.93953E-02   -0.13649E-01  4270   0.111E-01    0.650E-01
RMM:   3    -0.413184743281E+03    0.20333E-02   -0.85537E-03  4449   0.464E-02    0.143E-01
RMM:   4    -0.413193131251E+03   -0.83880E-02   -0.88525E-03  5155   0.797E-02    0.386E-01
RMM:   5    -0.413184663232E+03    0.84680E-02   -0.42865E-03  4831   0.635E-02    0.329E-02
RMM:   6    -0.413184683368E+03   -0.20137E-04   -0.71100E-04  5827   0.252E-02    0.214E-02
RMM:   7    -0.413184681628E+03    0.17407E-05   -0.17128E-04  5420   0.128E-02    0.130E-02
RMM:   8    -0.413184668484E+03    0.13143E-04   -0.20257E-05  4327   0.549E-03    0.544E-03
RMM:   9    -0.413184666075E+03    0.24093E-05   -0.37357E-06  2861   0.254E-03    0.406E-03
RMM:  10    -0.413184662411E+03    0.36639E-05   -0.10759E-06  2485   0.175E-03    0.233E-03
RMM:  11    -0.413184657974E+03    0.44373E-05   -0.72518E-07  2452   0.143E-03    0.111E-03
RMM:  12    -0.413184654301E+03    0.36726E-05   -0.40686E-07  2210   0.107E-03    0.482E-04
RMM:  13    -0.413184652875E+03    0.14267E-05   -0.17633E-07  1583   0.760E-04    0.224E-04
RMM:  14    -0.413184650834E+03    0.20408E-05   -0.10648E-07  1191   0.670E-04    0.130E-04
RMM:  15    -0.413184647656E+03    0.31782E-05   -0.90572E-08  1194   0.663E-04    0.788E-05
RMM:  16    -0.413184646737E+03    0.91811E-06   -0.48690E-08   955   0.597E-04
   30 T=    65. E= -.41286654E+03 F= -.41318465E+03 E0= -.41316310E+03  EK= 0.31810E+00 SP= 0.00E+00 SK= 0.00E+00
       N       E                     dE             d eps       ncg     rms          rms(c)
RMM:   1    -0.413190005335E+03   -0.53577E-02   -0.11228E+01  4290   0.928E-01    0.908E-01
RMM:   2    -0.413189154729E+03    0.85061E-03   -0.15498E-01  4273   0.126E-01    0.666E-01
RMM:   3    -0.413186278363E+03    0.28764E-02   -0.82560E-03  4301   0.451E-02    0.155E-01
RMM:   4    -0.413188984943E+03   -0.27066E-02   -0.36807E-03  5112   0.511E-02    0.219E-01
RMM:   5    -0.413186293490E+03    0.26915E-02   -0.13397E-03  4812   0.363E-02    0.300E-02
RMM:   6    -0.413186295128E+03   -0.16376E-05   -0.29598E-04  5701   0.172E-02    0.209E-02
RMM:   7    -0.413186286836E+03    0.82913E-05   -0.13713E-04  5114   0.114E-02    0.108E-02
RMM:   8    -0.413186280578E+03    0.62580E-05   -0.90334E-06  3536   0.409E-03    0.473E-03
RMM:   9    -0.413186279493E+03    0.10855E-05   -0.13919E-06  2509   0.185E-03    0.291E-03
RMM:  10    -0.413186276345E+03    0.31479E-05   -0.10084E-06  2481   0.154E-03    0.139E-03
RMM:  11    -0.413186274530E+03    0.18154E-05   -0.41942E-07  2179   0.106E-03    0.672E-04
RMM:  12    -0.413186272351E+03    0.21788E-05   -0.25662E-07  1780   0.849E-04    0.259E-04
RMM:  13    -0.413186270819E+03    0.15318E-05   -0.13093E-07  1200   0.683E-04    0.170E-04
RMM:  14    -0.413186269011E+03    0.18081E-05   -0.97166E-08  1109   0.651E-04    0.123E-04
RMM:  15    -0.413186266526E+03    0.24850E-05   -0.95393E-08  1207   0.648E-04    0.646E-05
RMM:  16    -0.413186265594E+03    0.93206E-06   -0.45243E-08   877   0.573E-04
   31 T=    65. E= -.41286626E+03 F= -.41318627E+03 E0= -.41316477E+03  EK= 0.32000E+00 SP= 0.00E+00 SK= 0.00E+00
       N       E                     dE             d eps       ncg     rms          rms(c)
RMM:   1    -0.413182004355E+03    0.42622E-02   -0.11190E+01  4292   0.846E-01    0.935E-01
RMM:   2    -0.413190962055E+03   -0.89577E-02   -0.13964E-01  4281   0.122E-01    0.659E-01
RMM:   3    -0.413188920561E+03    0.20415E-02   -0.90699E-03  4265   0.512E-02    0.146E-01
RMM:   4    -0.413190542299E+03   -0.16217E-02   -0.24624E-03  5092   0.422E-02    0.171E-01
RMM:   5    -0.413188938004E+03    0.16043E-02   -0.81861E-04  4801   0.287E-02    0.321E-02
RMM:   6    -0.413188936413E+03    0.15905E-05   -0.25591E-04  5539   0.163E-02    0.234E-02
RMM:   7    -0.413188913494E+03    0.22920E-04   -0.13789E-04  4968   0.115E-02    0.112E-02
RMM:   8    -0.413188909043E+03    0.44511E-05   -0.95460E-06  3487   0.400E-03    0.465E-03
RMM:   9    -0.413188907030E+03    0.20130E-05   -0.14875E-06  2482   0.188E-03    0.269E-03
RMM:  10    -0.413188898971E+03    0.80588E-05   -0.84016E-07  2431   0.149E-03    0.121E-03
RMM:  11    -0.413188895119E+03    0.38515E-05   -0.35808E-07  2053   0.985E-04    0.506E-04
RMM:  12    -0.413188890354E+03    0.47652E-05   -0.22141E-07  1753   0.830E-04    0.230E-04
RMM:  13    -0.413188887363E+03    0.29909E-05   -0.11101E-07  1213   0.675E-04    0.137E-04
RMM:  14    -0.413188882516E+03    0.48470E-05   -0.93925E-08  1220   0.665E-04    0.100E-04
RMM:  15    -0.413188878534E+03    0.39825E-05   -0.76046E-08  1213   0.629E-04    0.792E-05
RMM:  16    -0.413188875941E+03    0.25926E-05   -0.49789E-08  1008   0.574E-04    0.528E-05
RMM:  17    -0.413188873730E+03    0.22113E-05   -0.36005E-08   873   0.548E-04    0.255E-05
RMM:  18    -0.413188873105E+03    0.62523E-06   -0.17866E-08   677   0.515E-04
   32 T=    66. E= -.41286662E+03 F= -.41318887E+03 E0= -.41316742E+03  EK= 0.32225E+00 SP= 0.00E+00 SK= 0.00E+00
       N       E                     dE             d eps       ncg     rms          rms(c)
RMM:   1    -0.413183742149E+03    0.51316E-02   -0.11159E+01  4286   0.860E-01    0.922E-01
RMM:   2    -0.413193155859E+03   -0.94137E-02   -0.14079E-01  4282   0.128E-01    0.656E-01
RMM:   3    -0.413190764529E+03    0.23913E-02   -0.87791E-03  4243   0.458E-02    0.147E-01
RMM:   4    -0.413191946366E+03   -0.11818E-02   -0.20316E-03  5089   0.387E-02    0.143E-01
RMM:   5    -0.413190842335E+03    0.11040E-02   -0.56362E-04  4765   0.243E-02    0.317E-02
RMM:   6    -0.413190836779E+03    0.55561E-05   -0.21325E-04  5506   0.151E-02    0.232E-02
RMM:   7    -0.413190818381E+03    0.18398E-04   -0.13587E-04  4914   0.110E-02    0.118E-02
RMM:   8    -0.413190813803E+03    0.45779E-05   -0.96418E-06  3493   0.401E-03    0.479E-03
RMM:   9    -0.413190812140E+03    0.16629E-05   -0.17295E-06  2446   0.184E-03    0.239E-03
RMM:  10    -0.413190805026E+03    0.71147E-05   -0.75850E-07  2337   0.141E-03    0.109E-03
RMM:  11    -0.413190801591E+03    0.34343E-05   -0.30100E-07  1928   0.921E-04    0.553E-04
RMM:  12    -0.413190796912E+03    0.46793E-05   -0.19225E-07  1574   0.790E-04    0.219E-04
RMM:  13    -0.413190793845E+03    0.30671E-05   -0.92705E-08   995   0.645E-04    0.130E-04
RMM:  14    -0.413190789829E+03    0.40162E-05   -0.71896E-08  1007   0.633E-04    0.105E-04
RMM:  15    -0.413190785106E+03    0.47224E-05   -0.76470E-08  1148   0.632E-04    0.627E-05
RMM:  16    -0.413190783237E+03    0.18690E-05   -0.36728E-08   774   0.545E-04    0.492E-05
RMM:  17    -0.413190781643E+03    0.15949E-05   -0.25155E-08   692   0.527E-04    0.230E-05
RMM:  18    -0.413190780838E+03    0.80467E-06   -0.15120E-08   579   0.507E-04
   33 T=    66. E= -.41286640E+03 F= -.41319078E+03 E0= -.41316938E+03  EK= 0.32438E+00 SP= 0.00E+00 SK= 0.00E+00
       N       E                     dE             d eps       ncg     rms          rms(c)
RMM:   1    -0.413203551741E+03   -0.12770E-01   -0.11437E+01  4296   0.979E-01    0.913E-01
RMM:   2    -0.413195860705E+03    0.76910E-02   -0.16604E-01  4280   0.136E-01    0.671E-01
RMM:   3    -0.413193308268E+03    0.25524E-02   -0.82015E-03  4370   0.501E-02    0.171E-01
RMM:   4    -0.413197973006E+03   -0.46647E-02   -0.56227E-03  5134   0.662E-02    0.288E-01
RMM:   5    -0.413193331451E+03    0.46416E-02   -0.22665E-03  4797   0.475E-02    0.322E-02
RMM:   6    -0.413193323522E+03    0.79285E-05   -0.43086E-04  5726   0.212E-02    0.227E-02
RMM:   7    -0.413193319264E+03    0.42582E-05   -0.15844E-04  5198   0.122E-02    0.115E-02
RMM:   8    -0.413193310956E+03    0.83080E-05   -0.14175E-05  4072   0.482E-03    0.510E-03
RMM:   9    -0.413193309723E+03    0.12328E-05   -0.21665E-06  2636   0.214E-03    0.306E-03
RMM:  10    -0.413193306855E+03    0.28678E-05   -0.92754E-07  2469   0.158E-03    0.159E-03
RMM:  11    -0.413193303816E+03    0.30393E-05   -0.54894E-07  2316   0.120E-03    0.755E-04
RMM:  12    -0.413193301282E+03    0.25342E-05   -0.29927E-07  1916   0.908E-04    0.344E-04
RMM:  13    -0.413193299658E+03    0.16236E-05   -0.14851E-07  1271   0.703E-04    0.177E-04
RMM:  14    -0.413193297943E+03    0.17154E-05   -0.97164E-08  1069   0.649E-04    0.122E-04
RMM:  15    -0.413193295159E+03    0.27837E-05   -0.87899E-08  1080   0.647E-04    0.606E-05
RMM:  16    -0.413193294261E+03    0.89842E-06   -0.47215E-08   915   0.596E-04
   34 T=    67. E= -.41286649E+03 F= -.41319329E+03 E0= -.41317194E+03  EK= 0.32680E+00 SP= 0.00E+00 SK= 0.00E+00
       N       E                     dE             d eps       ncg     rms          rms(c)
RMM:   1    -0.413189238357E+03    0.40568E-02   -0.11363E+01  4299   0.902E-01    0.939E-01
RMM:   2    -0.413198270097E+03   -0.90317E-02   -0.14568E-01  4262   0.131E-01    0.669E-01
RMM:   3    -0.413196029247E+03    0.22408E-02   -0.90028E-03  4379   0.505E-02    0.150E-01
RMM:   4    -0.413199882125E+03   -0.38529E-02   -0.45932E-03  5154   0.573E-02    0.264E-01
RMM:   5    -0.413196014343E+03    0.38678E-02   -0.19618E-03  4822   0.439E-02    0.337E-02
RMM:   6    -0.413196005299E+03    0.90443E-05   -0.41024E-04  5691   0.204E-02    0.245E-02
RMM:   7    -0.413195993033E+03    0.12266E-04   -0.16675E-04  5175   0.122E-02    0.121E-02
RMM:   8    -0.413195985081E+03    0.79518E-05   -0.13765E-05  3971   0.460E-03    0.526E-03
RMM:   9    -0.413195982765E+03    0.23155E-05   -0.20889E-06  2589   0.203E-03    0.297E-03
RMM:  10    -0.413195976532E+03    0.62331E-05   -0.89487E-07  2473   0.155E-03    0.147E-03
RMM:  11    -0.413195971562E+03    0.49699E-05   -0.45496E-07  2246   0.110E-03    0.776E-04
RMM:  12    -0.413195966826E+03    0.47364E-05   -0.26810E-07  1892   0.888E-04    0.302E-04
RMM:  13    -0.413195963986E+03    0.28405E-05   -0.13662E-07  1272   0.701E-04    0.168E-04
RMM:  14    -0.413195960479E+03    0.35065E-05   -0.88861E-08  1092   0.649E-04    0.133E-04
RMM:  15    -0.413195955521E+03    0.49584E-05   -0.84952E-08  1186   0.649E-04    0.668E-05
RMM:  16    -0.413195953812E+03    0.17087E-05   -0.47456E-08   954   0.586E-04    0.568E-05
RMM:  17    -0.413195950741E+03    0.30707E-05   -0.45700E-08  1048   0.593E-04    0.293E-05
RMM:  18    -0.413195949271E+03    0.14701E-05   -0.27923E-08   859   0.546E-04    0.171E-05
RMM:  19    -0.413195949007E+03    0.26418E-06   -0.12034E-08   636   0.512E-04
   35 T=    67. E= -.41286670E+03 F= -.41319595E+03 E0= -.41317464E+03  EK= 0.32924E+00 SP= 0.00E+00 SK= 0.00E+00
       N       E                     dE             d eps       ncg     rms          rms(c)
RMM:   1    -0.413199136507E+03   -0.31872E-02   -0.11440E+01  4298   0.989E-01    0.939E-01
RMM:   2    -0.413200037527E+03   -0.90102E-03   -0.14936E-01  4258   0.131E-01    0.663E-01
RMM:   3    -0.413198185527E+03    0.18520E-02   -0.91433E-03  4701   0.516E-02    0.170E-01
RMM:   4    -0.413224604566E+03   -0.26419E-01   -0.26689E-02  5164   0.137E-01    0.679E-01
RMM:   5    -0.413197916327E+03    0.26688E-01   -0.13543E-02  4803   0.113E-01    0.429E-02
RMM:   6    -0.413197948600E+03   -0.32273E-04   -0.21376E-03  5848   0.440E-02    0.266E-02
RMM:   7    -0.413197957598E+03   -0.89979E-05   -0.28043E-04  5720   0.155E-02    0.150E-02
RMM:   8    -0.413197946936E+03    0.10662E-04   -0.54204E-05  4989   0.758E-03    0.891E-03
RMM:   9    -0.413197942799E+03    0.41374E-05   -0.14651E-05  4218   0.443E-03    0.615E-03
RMM:  10    -0.413197936258E+03    0.65405E-05   -0.19667E-06  2580   0.227E-03    0.365E-03
RMM:  11    -0.413197931491E+03    0.47671E-05   -0.10954E-06  2496   0.170E-03    0.218E-03
RMM:  12    -0.413197921353E+03    0.10138E-04   -0.12800E-06  2497   0.188E-03    0.987E-04
RMM:  13    -0.413197917477E+03    0.38760E-05   -0.45049E-07  2290   0.121E-03    0.593E-04
RMM:  14    -0.413197916983E+03    0.49346E-06   -0.19127E-07  1738   0.799E-04
   36 T=    67. E= -.41286637E+03 F= -.41319792E+03 E0= -.41317665E+03  EK= 0.33154E+00 SP= 0.00E+00 SK= 0.00E+00
       N       E                     dE             d eps       ncg     rms          rms(c)
RMM:   1    -0.413199093701E+03   -0.11762E-02   -0.11470E+01  4305   0.101E+00    0.923E-01
RMM:   2    -0.413203814367E+03   -0.47207E-02   -0.15601E-01  4258   0.137E-01    0.674E-01
RMM:   3    -0.413201170438E+03    0.26439E-02   -0.88277E-03  4606   0.538E-02    0.163E-01
RMM:   4    -0.413220226364E+03   -0.19056E-01   -0.19380E-02  5159   0.118E-01    0.579E-01
RMM:   5    -0.413201005891E+03    0.19220E-01   -0.97295E-03  4807   0.961E-02    0.398E-02
RMM:   6    -0.413201013994E+03   -0.81030E-05   -0.15750E-03  5841   0.378E-02    0.256E-02
RMM:   7    -0.413201022455E+03   -0.84602E-05   -0.25680E-04  5632   0.148E-02    0.150E-02
RMM:   8    -0.413201010398E+03    0.12057E-04   -0.47500E-05  4973   0.742E-03    0.737E-03
RMM:   9    -0.413201007936E+03    0.24617E-05   -0.92337E-06  3564   0.373E-03    0.476E-03
RMM:  10    -0.413201003898E+03    0.40384E-05   -0.14030E-06  2539   0.195E-03    0.293E-03
RMM:  11    -0.413200999326E+03    0.45720E-05   -0.93541E-07  2494   0.156E-03    0.146E-03
RMM:  12    -0.413200993718E+03    0.56073E-05   -0.74779E-07  2410   0.137E-03    0.633E-04
RMM:  13    -0.413200991581E+03    0.21371E-05   -0.29156E-07  1980   0.933E-04    0.384E-04
RMM:  14    -0.413200990646E+03    0.93515E-06   -0.13954E-07  1350   0.704E-04
   37 T=    68. E= -.41286668E+03 F= -.41320099E+03 E0= -.41317977E+03  EK= 0.33431E+00 SP= 0.00E+00 SK= 0.00E+00
       N       E                     dE             d eps       ncg     rms          rms(c)
RMM:   1    -0.413201226928E+03   -0.23535E-03   -0.11589E+01  4307   0.102E+00    0.943E-01
RMM:   2    -0.413206407943E+03   -0.51810E-02   -0.15381E-01  4258   0.130E-01    0.679E-01
RMM:   3    -0.413203634075E+03    0.27739E-02   -0.92914E-03  4738   0.533E-02    0.171E-01
RMM:   4    -0.413234360399E+03   -0.30726E-01   -0.31174E-02  5154   0.148E-01    0.731E-01
RMM:   5    -0.413203279345E+03    0.31081E-01   -0.15830E-02  4806   0.122E-01    0.447E-02
RMM:   6    -0.413203327013E+03   -0.47668E-04   -0.24444E-03  5839   0.469E-02    0.274E-02
RMM:   7    -0.413203338117E+03   -0.11104E-04   -0.32246E-04  5758   0.163E-02    0.161E-02
RMM:   8    -0.413203327588E+03    0.10529E-04   -0.61237E-05  5047   0.804E-03    0.928E-03
RMM:   9    -0.413203323868E+03    0.37206E-05   -0.16152E-05  4293   0.462E-03    0.591E-03
RMM:  10    -0.413203318303E+03    0.55650E-05   -0.22739E-06  2609   0.229E-03    0.361E-03
RMM:  11    -0.413203314017E+03    0.42857E-05   -0.11511E-06  2499   0.172E-03    0.209E-03
RMM:  12    -0.413203305463E+03    0.85538E-05   -0.11835E-06  2488   0.180E-03    0.903E-04
RMM:  13    -0.413203301969E+03    0.34943E-05   -0.44573E-07  2284   0.119E-03    0.599E-04
RMM:  14    -0.413203301641E+03    0.32839E-06   -0.19546E-07  1729   0.798E-04
   38 T=    69. E= -.41286647E+03 F= -.41320330E+03 E0= -.41318212E+03  EK= 0.33684E+00 SP= 0.00E+00 SK= 0.00E+00
       N       E                     dE             d eps       ncg     rms          rms(c)
RMM:   1    -0.413213425738E+03   -0.10124E-01   -0.11717E+01  4304   0.110E+00    0.956E-01
RMM:   2    -0.413208418544E+03    0.50072E-02   -0.16240E-01  4258   0.127E-01    0.674E-01
RMM:   3    -0.413206472554E+03    0.19460E-02   -0.95078E-03  4941   0.530E-02    0.204E-01
RMM:   4    -0.413253835756E+03   -0.47363E-01   -0.49881E-02  5141   0.186E-01    0.902E-01
RMM:   5    -0.413205651312E+03    0.48184E-01   -0.24135E-02  4789   0.152E-01    0.531E-02
RMM:   6    -0.413205782313E+03   -0.13100E-03   -0.38087E-03  5832   0.580E-02    0.308E-02
RMM:   7    -0.413205795322E+03   -0.13009E-04   -0.41803E-04  5732   0.182E-02    0.169E-02
RMM:   8    -0.413205787362E+03    0.79594E-05   -0.55573E-05  4866   0.703E-03    0.890E-03
RMM:   9    -0.413205779217E+03    0.81459E-05   -0.16476E-05  4118   0.419E-03    0.608E-03
RMM:  10    -0.413205775169E+03    0.40480E-05   -0.42017E-06  2852   0.267E-03    0.392E-03
RMM:  11    -0.413205768382E+03    0.67864E-05   -0.14944E-06  2498   0.204E-03    0.226E-03
RMM:  12    -0.413205756568E+03    0.11814E-04   -0.12801E-06  2493   0.192E-03    0.794E-04
RMM:  13    -0.413205753019E+03    0.35494E-05   -0.45178E-07  2354   0.123E-03    0.628E-04
RMM:  14    -0.413205752717E+03    0.30148E-06   -0.20007E-07  1853   0.821E-04
   39 T=    69. E= -.41286642E+03 F= -.41320575E+03 E0= -.41318461E+03  EK= 0.33934E+00 SP= 0.00E+00 SK= 0.00E+00
       N       E                     dE             d eps       ncg     rms          rms(c)
RMM:   1    -0.413208625462E+03   -0.28724E-02   -0.11648E+01  4311   0.111E+00    0.934E-01
RMM:   2    -0.413211698077E+03   -0.30726E-02   -0.15863E-01  4262   0.131E-01    0.678E-01
RMM:   3    -0.413209503310E+03    0.21948E-02   -0.95946E-03  4980   0.559E-02    0.207E-01
RMM:   4    -0.413261008146E+03   -0.51505E-01   -0.55723E-02  5133   0.196E-01    0.941E-01
RMM:   5    -0.413208368950E+03    0.52639E-01   -0.26017E-02  4786   0.158E-01    0.546E-02
RMM:   6    -0.413208523624E+03   -0.15467E-03   -0.41358E-03  5817   0.603E-02    0.305E-02
RMM:   7    -0.413208539405E+03   -0.15781E-04   -0.44914E-04  5780   0.186E-02    0.175E-02
RMM:   8    -0.413208537564E+03    0.18409E-05   -0.74973E-05  5120   0.810E-03    0.106E-02
RMM:   9    -0.413208529624E+03    0.79396E-05   -0.25489E-05  4619   0.526E-03    0.678E-03
RMM:  10    -0.413208525186E+03    0.44379E-05   -0.47199E-06  2849   0.297E-03    0.393E-03
RMM:  11    -0.413208521028E+03    0.41585E-05   -0.18281E-06  2533   0.215E-03    0.234E-03
RMM:  12    -0.413208513298E+03    0.77300E-05   -0.12569E-06  2492   0.190E-03    0.727E-04
RMM:  13    -0.413208510096E+03    0.32023E-05   -0.51779E-07  2363   0.128E-03    0.564E-04
RMM:  14    -0.413208509005E+03    0.10911E-05   -0.22571E-07  1927   0.863E-04    0.357E-04
RMM:  15    -0.413208505768E+03    0.32366E-05   -0.12008E-07  1345   0.703E-04    0.139E-04
RMM:  16    -0.413208502750E+03    0.30180E-05   -0.81685E-08  1184   0.652E-04    0.124E-04
RMM:  17    -0.413208500917E+03    0.18332E-05   -0.51227E-08   983   0.603E-04    0.789E-05
RMM:  18    -0.413208496720E+03    0.41965E-05   -0.65209E-08  1276   0.642E-04    0.110E-04
RMM:  19    -0.413208495571E+03    0.11492E-05   -0.27743E-08   875   0.556E-04    0.811E-05
RMM:  20    -0.413208494506E+03    0.10652E-05   -0.21484E-08   841   0.545E-04    0.372E-05
RMM:  21    -0.413208494060E+03    0.44585E-06   -0.14529E-08   751   0.531E-04
   40 T=    70. E= -.41286663E+03 F= -.41320849E+03 E0= -.41318739E+03  EK= 0.34186E+00 SP= 0.00E+00 SK= 0.00E+00
       N       E                     dE             d eps       ncg     rms          rms(c)
RMM:   1    -0.413232323907E+03   -0.23829E-01   -0.11995E+01  4309   0.126E+00    0.944E-01
RMM:   2    -0.413213496113E+03    0.18828E-01   -0.18323E-01  4273   0.144E-01    0.691E-01
RMM:   3    -0.413212325839E+03    0.11703E-02   -0.10078E-02  5055   0.625E-02    0.270E-01
RMM:   4    -0.413267851503E+03   -0.55526E-01   -0.65428E-02  5125   0.213E-01    0.985E-01
RMM:   5    -0.413210116846E+03    0.57735E-01   -0.27814E-02  4775   0.166E-01    0.604E-02
RMM:   6    -0.413210280278E+03   -0.16343E-03   -0.44552E-03  5803   0.630E-02    0.314E-02
RMM:   7    -0.413210298594E+03   -0.18317E-04   -0.52700E-04  5880   0.201E-02    0.214E-02
RMM:   8    -0.413210298266E+03    0.32855E-06   -0.11483E-04  5281   0.104E-02    0.129E-02
RMM:   9    -0.413210286331E+03    0.11935E-04   -0.23958E-05  4537   0.570E-03    0.541E-03
RMM:  10    -0.413210282698E+03    0.36329E-05   -0.53878E-06  2903   0.288E-03    0.337E-03
RMM:  11    -0.413210279445E+03    0.32523E-05   -0.14289E-06  2502   0.195E-03    0.191E-03
RMM:  12    -0.413210274365E+03    0.50805E-05   -0.87175E-07  2475   0.158E-03    0.648E-04
RMM:  13    -0.413210271490E+03    0.28744E-05   -0.42687E-07  2262   0.112E-03    0.329E-04
RMM:  14    -0.413210269775E+03    0.17154E-05   -0.22272E-07  1781   0.832E-04    0.230E-04
RMM:  15    -0.413210266810E+03    0.29650E-05   -0.13620E-07  1301   0.707E-04    0.104E-04
RMM:  16    -0.413210264919E+03    0.18916E-05   -0.87437E-08  1119   0.655E-04    0.741E-05
RMM:  17    -0.413210262958E+03    0.19605E-05   -0.67405E-08  1099   0.636E-04    0.591E-05
RMM:  18    -0.413210260881E+03    0.20773E-05   -0.53565E-08  1063   0.621E-04    0.301E-05
RMM:  19    -0.413210259238E+03    0.16428E-05   -0.38315E-08   984   0.597E-04    0.275E-05
RMM:  20    -0.413210258805E+03    0.43298E-06   -0.20404E-08   779   0.564E-04
   41 T=    70. E= -.41286634E+03 F= -.41321026E+03 E0= -.41318919E+03  EK= 0.34392E+00 SP= 0.00E+00 SK= 0.00E+00
       N       E                     dE             d eps       ncg     rms          rms(c)
RMM:   1    -0.413214883998E+03   -0.46248E-02   -0.11831E+01  4310   0.122E+00    0.968E-01
RMM:   2    -0.413215104578E+03   -0.22058E-03   -0.16143E-01  4285   0.140E-01    0.682E-01
RMM:   3    -0.413216374111E+03   -0.12695E-02   -0.12549E-02  5094   0.747E-02    0.312E-01
RMM:   4    -0.413252139054E+03   -0.35765E-01   -0.52017E-02  5094   0.192E-01    0.823E-01
RMM:   5    -0.413212554663E+03    0.39584E-01   -0.17675E-02  4732   0.137E-01    0.570E-02
RMM:   6    -0.413212620416E+03   -0.65752E-04   -0.30341E-03  5755   0.521E-02    0.308E-02
RMM:   7    -0.413212628285E+03   -0.78691E-05   -0.41105E-04  5815   0.181E-02    0.207E-02
RMM:   8    -0.413212624986E+03    0.32985E-05   -0.10428E-04  5177   0.102E-02    0.115E-02
RMM:   9    -0.413212611252E+03    0.13734E-04   -0.19341E-05  4382   0.538E-03    0.454E-03
RMM:  10    -0.413212606067E+03    0.51854E-05   -0.39989E-06  2788   0.255E-03    0.284E-03
RMM:  11    -0.413212600138E+03    0.59294E-05   -0.11989E-06  2496   0.181E-03    0.153E-03
RMM:  12    -0.413212592492E+03    0.76454E-05   -0.66249E-07  2430   0.142E-03    0.574E-04
RMM:  13    -0.413212588381E+03    0.41111E-05   -0.32642E-07  2037   0.989E-04    0.275E-04
RMM:  14    -0.413212585395E+03    0.29859E-05   -0.17808E-07  1510   0.769E-04    0.166E-04
RMM:  15    -0.413212579416E+03    0.59788E-05   -0.13304E-07  1345   0.722E-04    0.124E-04
RMM:  16    -0.413212577309E+03    0.21077E-05   -0.83905E-08  1161   0.655E-04    0.821E-05
RMM:  17    -0.413212573512E+03    0.37964E-05   -0.76466E-08  1296   0.655E-04    0.639E-05
RMM:  18    -0.413212570901E+03    0.26113E-05   -0.54173E-08  1120   0.602E-04    0.346E-05
RMM:  19    -0.413212569409E+03    0.14917E-05   -0.34595E-08   939   0.561E-04    0.273E-05
RMM:  20    -0.413212569189E+03    0.22044E-06   -0.18510E-08   735   0.530E-04
   42 T=    70. E= -.41286652E+03 F= -.41321257E+03 E0= -.41319153E+03  EK= 0.34605E+00 SP= 0.00E+00 SK= 0.00E+00
       N       E                     dE             d eps       ncg     rms          rms(c)
RMM:   1    -0.413218401165E+03   -0.58318E-02   -0.11793E+01  4311   0.129E+00    0.945E-01
RMM:   2    -0.413216962848E+03    0.14383E-02   -0.16496E-01  4298   0.148E-01    0.682E-01
RMM:   3    -0.413219333491E+03   -0.23706E-02   -0.13229E-02  5093   0.822E-02    0.345E-01
RMM:   4    -0.413250625924E+03   -0.31292E-01   -0.50903E-02  5071   0.191E-01    0.789E-01
RMM:   5    -0.413214377183E+03    0.36249E-01   -0.15685E-02  4711   0.132E-01    0.563E-02
RMM:   6    -0.413214419550E+03   -0.42367E-04   -0.27316E-03  5731   0.495E-02    0.299E-02
RMM:   7    -0.413214424161E+03   -0.46107E-05   -0.37093E-04  5778   0.175E-02    0.204E-02
RMM:   8    -0.413214420430E+03    0.37309E-05   -0.97971E-05  5163   0.996E-03    0.107E-02
RMM:   9    -0.413214408788E+03    0.11642E-04   -0.18567E-05  4336   0.531E-03    0.415E-03
RMM:  10    -0.413214405196E+03    0.35916E-05   -0.36035E-06  2751   0.245E-03    0.256E-03
RMM:  11    -0.413214400485E+03    0.47113E-05   -0.12077E-06  2493   0.179E-03    0.138E-03
RMM:  12    -0.413214395298E+03    0.51872E-05   -0.61283E-07  2424   0.135E-03    0.568E-04
RMM:  13    -0.413214392326E+03    0.29715E-05   -0.30191E-07  1897   0.937E-04    0.256E-04
RMM:  14    -0.413214389640E+03    0.26867E-05   -0.17342E-07  1431   0.753E-04    0.145E-04
RMM:  15    -0.413214385221E+03    0.44183E-05   -0.13468E-07  1306   0.712E-04    0.107E-04
RMM:  16    -0.413214383554E+03    0.16677E-05   -0.83576E-08  1117   0.648E-04    0.792E-05
RMM:  17    -0.413214380031E+03    0.35229E-05   -0.79245E-08  1273   0.656E-04    0.588E-05
RMM:  18    -0.413214377965E+03    0.20663E-05   -0.54142E-08  1111   0.601E-04    0.408E-05
RMM:  19    -0.413214377086E+03    0.87841E-06   -0.28819E-08   818   0.551E-04
   43 T=    71. E= -.41286659E+03 F= -.41321438E+03 E0= -.41319336E+03  EK= 0.34779E+00 SP= 0.00E+00 SK= 0.00E+00
       N       E                     dE             d eps       ncg     rms          rms(c)
RMM:   1    -0.413241660185E+03   -0.27282E-01   -0.12118E+01  4312   0.144E+00    0.945E-01
RMM:   2    -0.413218235220E+03    0.23425E-01   -0.19557E-01  4296   0.170E-01    0.699E-01
RMM:   3    -0.413221333163E+03   -0.30979E-02   -0.13559E-02  5085   0.895E-02    0.392E-01
RMM:   4    -0.413252090219E+03   -0.30757E-01   -0.53631E-02  5067   0.197E-01    0.799E-01
RMM:   5    -0.413215270769E+03    0.36819E-01   -0.16051E-02  4709   0.135E-01    0.597E-02
RMM:   6    -0.413215297479E+03   -0.26710E-04   -0.27526E-03  5700   0.500E-02    0.303E-02
RMM:   7    -0.413215302959E+03   -0.54804E-05   -0.38123E-04  5853   0.176E-02    0.213E-02
RMM:   8    -0.413215298666E+03    0.42934E-05   -0.96549E-05  5174   0.990E-03    0.108E-02
RMM:   9    -0.413215288337E+03    0.10329E-04   -0.21006E-05  4407   0.557E-03    0.415E-03
RMM:  10    -0.413215285808E+03    0.25287E-05   -0.39274E-06  2767   0.246E-03    0.244E-03
RMM:  11    -0.413215282104E+03    0.37036E-05   -0.15710E-06  2527   0.192E-03    0.142E-03
RMM:  12    -0.413215278846E+03    0.32577E-05   -0.61205E-07  2452   0.138E-03    0.648E-04
RMM:  13    -0.413215276489E+03    0.23571E-05   -0.30919E-07  1774   0.924E-04    0.282E-04
RMM:  14    -0.413215274073E+03    0.24168E-05   -0.19421E-07  1436   0.773E-04    0.150E-04
RMM:  15    -0.413215271186E+03    0.28868E-05   -0.14440E-07  1322   0.714E-04    0.923E-05
RMM:  16    -0.413215269318E+03    0.18674E-05   -0.97262E-08  1190   0.660E-04    0.687E-05
RMM:  17    -0.413215267050E+03    0.22688E-05   -0.78268E-08  1202   0.638E-04    0.510E-05
RMM:  18    -0.413215264959E+03    0.20907E-05   -0.57682E-08  1063   0.598E-04    0.356E-05
RMM:  19    -0.413215264192E+03    0.76710E-06   -0.32738E-08   858   0.557E-04
   44 T=    71. E= -.41286637E+03 F= -.41321526E+03 E0= -.41319427E+03  EK= 0.34889E+00 SP= 0.00E+00 SK= 0.00E+00
       N       E                     dE             d eps       ncg     rms          rms(c)
RMM:   1    -0.413226467234E+03   -0.11202E-01   -0.11952E+01  4310   0.146E+00    0.973E-01
RMM:   2    -0.413218621957E+03    0.78453E-02   -0.16954E-01  4327   0.172E-01    0.690E-01
RMM:   3    -0.413227410292E+03   -0.87883E-02   -0.19188E-02  5127   0.111E-01    0.481E-01
RMM:   4    -0.413236463989E+03   -0.90537E-02   -0.41607E-02  5038   0.177E-01    0.599E-01
RMM:   5    -0.413216431098E+03    0.20033E-01   -0.75515E-03  4615   0.102E-01    0.526E-02
RMM:   6    -0.413216401898E+03    0.29200E-04   -0.15022E-03  5519   0.373E-02    0.284E-02
RMM:   7    -0.413216399076E+03    0.28214E-05   -0.22775E-04  5630   0.147E-02    0.193E-02
RMM:   8    -0.413216391017E+03    0.80595E-05   -0.97248E-05  5085   0.101E-02    0.937E-03
RMM:   9    -0.413216377304E+03    0.13713E-04   -0.15031E-05  4228   0.521E-03    0.379E-03
RMM:  10    -0.413216373533E+03    0.37705E-05   -0.24812E-06  2670   0.217E-03    0.218E-03
RMM:  11    -0.413216366611E+03    0.69216E-05   -0.11568E-06  2483   0.174E-03    0.123E-03
RMM:  12    -0.413216360844E+03    0.57676E-05   -0.51431E-07  2408   0.127E-03    0.611E-04
RMM:  13    -0.413216357057E+03    0.37864E-05   -0.23602E-07  1745   0.850E-04    0.292E-04
RMM:  14    -0.413216353300E+03    0.37579E-05   -0.13243E-07  1277   0.690E-04    0.151E-04
RMM:  15    -0.413216348206E+03    0.50933E-05   -0.10601E-07  1215   0.674E-04    0.116E-04
RMM:  16    -0.413216345425E+03    0.27816E-05   -0.71332E-08  1128   0.623E-04    0.108E-04
RMM:  17    -0.413216342088E+03    0.33362E-05   -0.56519E-08  1087   0.601E-04    0.569E-05
RMM:  18    -0.413216338387E+03    0.37011E-05   -0.55084E-08  1174   0.603E-04    0.526E-05
RMM:  19    -0.413216337843E+03    0.54419E-06   -0.21308E-08   759   0.520E-04
   45 T=    71. E= -.41286669E+03 F= -.41321634E+03 E0= -.41319537E+03  EK= 0.34965E+00 SP= 0.00E+00 SK= 0.00E+00
       N       E                     dE             d eps       ncg     rms          rms(c)
RMM:   1    -0.413253172968E+03   -0.36835E-01   -0.12100E+01  4310   0.165E+00    0.955E-01
RMM:   2    -0.413218196871E+03    0.34976E-01   -0.17745E-01  4347   0.186E-01    0.686E-01
RMM:   3    -0.413229546030E+03   -0.11349E-01   -0.21146E-02  5128   0.121E-01    0.532E-01
RMM:   4    -0.413232612343E+03   -0.30663E-02   -0.40420E-02  5020   0.176E-01    0.553E-01
RMM:   5    -0.413215943588E+03    0.16669E-01   -0.62149E-03  4575   0.963E-02    0.523E-02
RMM:   6    -0.413215891258E+03    0.52330E-04   -0.11759E-03  5332   0.340E-02    0.275E-02
RMM:   7    -0.413215887154E+03    0.41038E-05   -0.18388E-04  5614   0.133E-02    0.180E-02
RMM:   8    -0.413215881804E+03    0.53506E-05   -0.10646E-04  5119   0.104E-02    0.100E-02
RMM:   9    -0.413215867265E+03    0.14539E-04   -0.16781E-05  4341   0.549E-03    0.387E-03
RMM:  10    -0.413215864305E+03    0.29602E-05   -0.27174E-06  2699   0.220E-03    0.221E-03
RMM:  11    -0.413215858124E+03    0.61807E-05   -0.12494E-06  2485   0.180E-03    0.123E-03
RMM:  12    -0.413215853596E+03    0.45283E-05   -0.53066E-07  2407   0.129E-03    0.668E-04
RMM:  13    -0.413215849976E+03    0.36198E-05   -0.24228E-07  1730   0.872E-04    0.329E-04
RMM:  14    -0.413215846468E+03    0.35075E-05   -0.12967E-07  1299   0.694E-04    0.167E-04
RMM:  15    -0.413215842341E+03    0.41278E-05   -0.95468E-08  1145   0.654E-04    0.112E-04
RMM:  16    -0.413215839945E+03    0.23955E-05   -0.60208E-08  1001   0.608E-04    0.102E-04
RMM:  17    -0.413215836921E+03    0.30242E-05   -0.53732E-08  1055   0.602E-04    0.585E-05
RMM:  18    -0.413215833775E+03    0.31459E-05   -0.49412E-08  1082   0.591E-04    0.463E-05
RMM:  19    -0.413215833210E+03    0.56453E-06   -0.17584E-08   680   0.513E-04
   46 T=    71. E= -.41286653E+03 F= -.41321583E+03 E0= -.41319488E+03  EK= 0.34930E+00 SP= 0.00E+00 SK= 0.00E+00
       N       E                     dE             d eps       ncg     rms          rms(c)
RMM:   1    -0.413235306401E+03   -0.19473E-01   -0.11929E+01  4310   0.166E+00    0.942E-01
RMM:   2    -0.413217376941E+03    0.17929E-01   -0.18788E-01  4356   0.199E-01    0.699E-01
RMM:   3    -0.413229165694E+03   -0.11789E-01   -0.21593E-02  5131   0.126E-01    0.554E-01
RMM:   4    -0.413232440299E+03   -0.32746E-02   -0.43216E-02  5014   0.182E-01    0.572E-01
RMM:   5    -0.413214484887E+03    0.17955E-01   -0.68454E-03  4577   0.101E-01    0.546E-02
RMM:   6    -0.413214419995E+03    0.64893E-04   -0.12509E-03  5323   0.353E-02    0.280E-02
RMM:   7    -0.413214415912E+03    0.40828E-05   -0.19408E-04  5666   0.136E-02    0.191E-02
RMM:   8    -0.413214410405E+03    0.55067E-05   -0.10988E-04  5160   0.106E-02    0.104E-02
RMM:   9    -0.413214396557E+03    0.13848E-04   -0.18694E-05  4389   0.574E-03    0.398E-03
RMM:  10    -0.413214394464E+03    0.20926E-05   -0.29981E-06  2719   0.228E-03    0.227E-03
RMM:  11    -0.413214390241E+03    0.42234E-05   -0.14076E-06  2502   0.188E-03    0.132E-03
RMM:  12    -0.413214387164E+03    0.30769E-05   -0.57334E-07  2424   0.135E-03    0.704E-04
RMM:  13    -0.413214384409E+03    0.27545E-05   -0.27752E-07  1784   0.917E-04    0.339E-04
RMM:  14    -0.413214381875E+03    0.25348E-05   -0.15308E-07  1367   0.727E-04    0.177E-04
RMM:  15    -0.413214379020E+03    0.28545E-05   -0.11195E-07  1177   0.672E-04    0.107E-04
RMM:  16    -0.413214377035E+03    0.19847E-05   -0.75419E-08  1065   0.625E-04    0.954E-05
RMM:  17    -0.413214375176E+03    0.18597E-05   -0.56806E-08  1010   0.596E-04    0.549E-05
RMM:  18    -0.413214372697E+03    0.24783E-05   -0.55605E-08  1068   0.598E-04    0.375E-05
RMM:  19    -0.413214372212E+03    0.48499E-06   -0.20931E-08   694   0.526E-04
   47 T=    71. E= -.41286646E+03 F= -.41321437E+03 E0= -.41319343E+03  EK= 0.34791E+00 SP= 0.00E+00 SK= 0.00E+00
       N       E                     dE             d eps       ncg     rms          rms(c)
RMM:   1    -0.413253731194E+03   -0.39358E-01   -0.12045E+01  4306   0.183E+00    0.964E-01
RMM:   2    -0.413214279884E+03    0.39451E-01   -0.19468E-01  4409   0.206E-01    0.694E-01
RMM:   3    -0.413233818670E+03   -0.19539E-01   -0.28239E-02  5144   0.147E-01    0.665E-01
RMM:   4    -0.413222591600E+03    0.11227E-01   -0.39558E-02  4971   0.178E-01    0.462E-01
RMM:   5    -0.413211964420E+03    0.10627E-01   -0.47670E-03  4523   0.905E-02    0.568E-02
RMM:   6    -0.413211833553E+03    0.13087E-03   -0.57001E-04  4822   0.289E-02    0.288E-02
RMM:   7    -0.413211829233E+03    0.43204E-05   -0.19872E-04  5917   0.142E-02    0.172E-02
RMM:   8    -0.413211815599E+03    0.13634E-04   -0.96855E-05  5159   0.107E-02    0.111E-02
RMM:   9    -0.413211804521E+03    0.11077E-04   -0.15503E-05  4239   0.520E-03    0.472E-03
RMM:  10    -0.413211800592E+03    0.39294E-05   -0.26211E-06  2633   0.253E-03    0.232E-03
RMM:  11    -0.413211795094E+03    0.54981E-05   -0.19531E-06  2530   0.217E-03    0.162E-03
RMM:  12    -0.413211790988E+03    0.41062E-05   -0.67888E-07  2392   0.150E-03    0.905E-04
RMM:  13    -0.413211786974E+03    0.40138E-05   -0.31635E-07  1972   0.988E-04    0.509E-04
RMM:  14    -0.413211781412E+03    0.55615E-05   -0.22228E-07  1902   0.845E-04    0.408E-04
RMM:  15    -0.413211777715E+03    0.36968E-05   -0.10653E-07  1103   0.611E-04    0.173E-04
RMM:  16    -0.413211775232E+03    0.24836E-05   -0.69919E-08   986   0.578E-04    0.944E-05
RMM:  17    -0.413211772296E+03    0.29357E-05   -0.65921E-08  1052   0.585E-04    0.612E-05
RMM:  18    -0.413211770274E+03    0.20218E-05   -0.41727E-08   889   0.559E-04    0.607E-05
RMM:  19    -0.413211769125E+03    0.11498E-05   -0.25537E-08   779   0.537E-04    0.400E-05
RMM:  20    -0.413211768087E+03    0.10373E-05   -0.22907E-08   780   0.532E-04    0.214E-05
RMM:  21    -0.413211767692E+03    0.39513E-06   -0.14178E-08   654   0.505E-04
   48 T=    70. E= -.41286668E+03 F= -.41321177E+03 E0= -.41319083E+03  EK= 0.34509E+00 SP= 0.00E+00 SK= 0.00E+00
       N       E                     dE             d eps       ncg     rms          rms(c)
RMM:   1    -0.413250649088E+03   -0.38881E-01   -0.11817E+01  4305   0.194E+00    0.953E-01
RMM:   2    -0.413208660564E+03    0.41989E-01   -0.19004E-01  4455   0.216E-01    0.683E-01
RMM:   3    -0.413235425655E+03   -0.26765E-01   -0.34492E-02  5154   0.164E-01    0.752E-01
RMM:   4    -0.413213580621E+03    0.21845E-01   -0.38942E-02  4941   0.180E-01    0.393E-01
RMM:   5    -0.413206527751E+03    0.70529E-02   -0.46046E-03  4686   0.899E-02    0.658E-02
RMM:   6    -0.413206311798E+03    0.21595E-03   -0.46900E-04  4665   0.302E-02    0.322E-02
RMM:   7    -0.413206310575E+03    0.12229E-05   -0.20961E-04  5753   0.155E-02    0.228E-02
RMM:   8    -0.413206282826E+03    0.27750E-04   -0.71900E-05  4969   0.954E-03    0.897E-03
RMM:   9    -0.413206273711E+03    0.91150E-05   -0.14390E-05  4015   0.474E-03    0.419E-03
RMM:  10    -0.413206268894E+03    0.48170E-05   -0.21550E-06  2599   0.226E-03    0.247E-03
RMM:  11    -0.413206262086E+03    0.68074E-05   -0.91353E-07  2487   0.160E-03    0.150E-03
RMM:  12    -0.413206258399E+03    0.36868E-05   -0.35424E-07  2288   0.106E-03    0.742E-04
RMM:  13    -0.413206252700E+03    0.56997E-05   -0.31446E-07  1913   0.917E-04    0.387E-04
RMM:  14    -0.413206248303E+03    0.43969E-05   -0.18444E-07  1456   0.750E-04    0.300E-04
RMM:  15    -0.413206243805E+03    0.44975E-05   -0.13388E-07  1170   0.673E-04    0.130E-04
RMM:  16    -0.413206241344E+03    0.24610E-05   -0.86835E-08  1125   0.631E-04    0.950E-05
RMM:  17    -0.413206238064E+03    0.32807E-05   -0.79919E-08  1234   0.631E-04    0.712E-05
RMM:  18    -0.413206236999E+03    0.10646E-05   -0.42064E-08   938   0.552E-04    0.646E-05
RMM:  19    -0.413206235502E+03    0.14974E-05   -0.37991E-08   959   0.548E-04    0.256E-05
RMM:  20    -0.413206234927E+03    0.57472E-06   -0.23700E-08   808   0.516E-04
   49 T=    69. E= -.41286630E+03 F= -.41320623E+03 E0= -.41318530E+03  EK= 0.33993E+00 SP= 0.00E+00 SK= 0.00E+00
       N       E                     dE             d eps       ncg     rms          rms(c)
RMM:   1    -0.413223649624E+03   -0.17414E-01   -0.11384E+01  4305   0.195E+00    0.922E-01
RMM:   2    -0.413202211858E+03    0.21438E-01   -0.18709E-01  4480   0.224E-01    0.686E-01
RMM:   3    -0.413228965807E+03   -0.26754E-01   -0.34484E-02  5158   0.166E-01    0.760E-01
RMM:   4    -0.413206914959E+03    0.22051E-01   -0.40089E-02  4939   0.183E-01    0.397E-01
RMM:   5    -0.413199532919E+03    0.73820E-02   -0.50340E-03  4735   0.936E-02    0.695E-02
RMM:   6    -0.413199281296E+03    0.25162E-03   -0.50501E-04  4656   0.316E-02    0.327E-02
RMM:   7    -0.413199278848E+03    0.24473E-05   -0.21142E-04  5756   0.156E-02    0.227E-02
RMM:   8    -0.413199252935E+03    0.25913E-04   -0.71724E-05  5018   0.931E-03    0.940E-03
RMM:   9    -0.413199245143E+03    0.77919E-05   -0.15125E-05  4078   0.480E-03    0.415E-03
RMM:  10    -0.413199241278E+03    0.38652E-05   -0.23152E-06  2625   0.229E-03    0.253E-03
RMM:  11    -0.413199236338E+03    0.49401E-05   -0.85274E-07  2483   0.155E-03    0.146E-03
RMM:  12    -0.413199233614E+03    0.27239E-05   -0.35570E-07  2253   0.104E-03    0.733E-04
[...]
RMM:   6    -0.413160161160E+03   -0.30087E-04   -0.24975E-03  5695   0.475E-02    0.258E-02
RMM:   7    -0.413160192480E+03   -0.31320E-04   -0.34247E-04  5950   0.155E-02    0.154E-02
RMM:   8    -0.413160202623E+03   -0.10143E-04   -0.58292E-05  5222   0.777E-03    0.809E-03
RMM:   9    -0.413160205632E+03   -0.30086E-05   -0.89078E-06  3319   0.348E-03    0.391E-03
RMM:  10    -0.413160210898E+03   -0.52659E-05   -0.28291E-06  2610   0.225E-03    0.264E-03
RMM:  11    -0.413160215160E+03   -0.42620E-05   -0.15053E-06  2515   0.177E-03    0.130E-03
RMM:  12    -0.413160217992E+03   -0.28323E-05   -0.11462E-06  2470   0.144E-03    0.521E-04
RMM:  13    -0.413160218860E+03   -0.86791E-06   -0.49319E-07  2058   0.102E-03
  138 T=    60. E= -.41286653E+03 F= -.41316022E+03 E0= -.41313951E+03  EK= 0.29369E+00 SP= 0.00E+00 SK= 0.00E+00
       N       E                     dE             d eps       ncg     rms          rms(c)
RMM:   1    -0.413154956180E+03    0.52618E-02   -0.91276E+00  4265   0.800E-01    0.802E-01
RMM:   2    -0.413162637429E+03   -0.76812E-02   -0.10517E-01  4299   0.919E-02    0.576E-01
RMM:   3    -0.413161135640E+03    0.15018E-02   -0.76292E-03  4915   0.405E-02    0.122E-01
RMM:   4    -0.413183537515E+03   -0.22402E-01   -0.23395E-02  5148   0.127E-01    0.626E-01
RMM:   5    -0.413160875726E+03    0.22662E-01   -0.11273E-02  4814   0.104E-01    0.444E-02
RMM:   6    -0.413160893400E+03   -0.17674E-04   -0.18809E-03  5704   0.414E-02    0.243E-02
RMM:   7    -0.413160926617E+03   -0.33217E-04   -0.26557E-04  5861   0.139E-02    0.136E-02
RMM:   8    -0.413160942144E+03   -0.15527E-04   -0.48066E-05  5076   0.710E-03    0.724E-03
RMM:   9    -0.413160948014E+03   -0.58700E-05   -0.67988E-06  3140   0.314E-03    0.365E-03
RMM:  10    -0.413160957795E+03   -0.97812E-05   -0.24191E-06  2572   0.215E-03    0.243E-03
RMM:  11    -0.413160966341E+03   -0.85458E-05   -0.14968E-06  2518   0.171E-03    0.115E-03
RMM:  12    -0.413160972323E+03   -0.59816E-05   -0.11086E-06  2452   0.137E-03    0.529E-04
RMM:  13    -0.413160974827E+03   -0.25042E-05   -0.54808E-07  1981   0.996E-04    0.368E-04
RMM:  14    -0.413160976238E+03   -0.14112E-05   -0.36130E-07  1627   0.850E-04    0.201E-04
RMM:  15    -0.413160977386E+03   -0.11475E-05   -0.43813E-07  1919   0.885E-04    0.180E-04
RMM:  16    -0.413160977755E+03   -0.36940E-06   -0.27047E-07  1510   0.732E-04
  139 T=    60. E= -.41286675E+03 F= -.41316098E+03 E0= -.41314028E+03  EK= 0.29423E+00 SP= 0.00E+00 SK= 0.00E+00
       N       E                     dE             d eps       ncg     rms          rms(c)
RMM:   1    -0.413155413562E+03    0.55638E-02   -0.92160E+00  4265   0.804E-01    0.808E-01
RMM:   2    -0.413163213682E+03   -0.78001E-02   -0.10666E-01  4295   0.930E-02    0.585E-01
RMM:   3    -0.413161567071E+03    0.16466E-02   -0.78648E-03  4901   0.397E-02    0.115E-01
RMM:   4    -0.413181767747E+03   -0.20201E-01   -0.21096E-02  5147   0.121E-01    0.595E-01
RMM:   5    -0.413161341710E+03    0.20426E-01   -0.10195E-02  4817   0.991E-02    0.431E-02
RMM:   6    -0.413161354779E+03   -0.13069E-04   -0.17091E-03  5688   0.394E-02    0.237E-02
RMM:   7    -0.413161390532E+03   -0.35753E-04   -0.24642E-04  5823   0.133E-02    0.130E-02
RMM:   8    -0.413161408285E+03   -0.17752E-04   -0.44907E-05  5024   0.692E-03    0.698E-03
RMM:   9    -0.413161415040E+03   -0.67554E-05   -0.61637E-06  3068   0.302E-03    0.352E-03
RMM:  10    -0.413161426020E+03   -0.10980E-04   -0.23223E-06  2566   0.213E-03    0.234E-03
RMM:  11    -0.413161435840E+03   -0.98201E-05   -0.14617E-06  2516   0.169E-03    0.111E-03
RMM:  12    -0.413161442637E+03   -0.67971E-05   -0.10258E-06  2448   0.134E-03    0.517E-04
RMM:  13    -0.413161445685E+03   -0.30479E-05   -0.52440E-07  1924   0.965E-04    0.350E-04
RMM:  14    -0.413161447520E+03   -0.18355E-05   -0.36350E-07  1563   0.842E-04    0.191E-04
RMM:  15    -0.413161448965E+03   -0.14446E-05   -0.39577E-07  1859   0.855E-04    0.164E-04
RMM:  16    -0.413161449535E+03   -0.57026E-06   -0.26534E-07  1525   0.737E-04
  140 T=    60. E= -.41286634E+03 F= -.41316145E+03 E0= -.41314076E+03  EK= 0.29511E+00 SP= 0.00E+00 SK= 0.00E+00
       N       E                     dE             d eps       ncg     rms          rms(c)
RMM:   1    -0.413155576443E+03    0.58725E-02   -0.92512E+00  4264   0.808E-01    0.830E-01
RMM:   2    -0.413162537518E+03   -0.69611E-02   -0.10449E-01  4299   0.915E-02    0.577E-01
RMM:   3    -0.413161225648E+03    0.13119E-02   -0.78282E-03  4822   0.376E-02    0.120E-01
RMM:   4    -0.413173785340E+03   -0.12560E-01   -0.13068E-02  5165   0.960E-02    0.471E-01
RMM:   5    -0.413161138708E+03    0.12647E-01   -0.64143E-03  4831   0.787E-02    0.405E-02
RMM:   6    -0.413161137429E+03    0.12788E-05   -0.11375E-03  5679   0.328E-02    0.251E-02
RMM:   7    -0.413161158862E+03   -0.21433E-04   -0.19538E-04  5713   0.122E-02    0.120E-02
RMM:   8    -0.413161166022E+03   -0.71602E-05   -0.36966E-05  4923   0.652E-03    0.649E-03
RMM:   9    -0.413161168175E+03   -0.21534E-05   -0.38757E-06  2829   0.255E-03    0.347E-03
RMM:  10    -0.413161173441E+03   -0.52652E-05   -0.19107E-06  2541   0.197E-03    0.212E-03
RMM:  11    -0.413161176789E+03   -0.33479E-05   -0.11974E-06  2496   0.154E-03    0.971E-04
RMM:  12    -0.413161178317E+03   -0.15284E-05   -0.81457E-07  2340   0.122E-03    0.493E-04
RMM:  13    -0.413161178658E+03   -0.34048E-06   -0.52746E-07  1979   0.960E-04
  141 T=    60. E= -.41286660E+03 F= -.41316118E+03 E0= -.41314050E+03  EK= 0.29458E+00 SP= 0.00E+00 SK= 0.00E+00
       N       E                     dE             d eps       ncg     rms          rms(c)
RMM:   1    -0.413154968838E+03    0.62095E-02   -0.92015E+00  4264   0.810E-01    0.809E-01
RMM:   2    -0.413162417949E+03   -0.74491E-02   -0.10470E-01  4301   0.917E-02    0.572E-01
RMM:   3    -0.413161004568E+03    0.14134E-02   -0.73359E-03  4671   0.350E-02    0.109E-01
RMM:   4    -0.413162891439E+03   -0.18869E-02   -0.25303E-03  5181   0.427E-02    0.184E-01
RMM:   5    -0.413161022139E+03    0.18693E-02   -0.10170E-03  4844   0.321E-02    0.340E-02
RMM:   6    -0.413161014504E+03    0.76352E-05   -0.27165E-04  5414   0.174E-02    0.230E-02
RMM:   7    -0.413161042510E+03   -0.28006E-04   -0.11516E-04  5346   0.928E-03    0.114E-02
RMM:   8    -0.413161044777E+03   -0.22671E-05   -0.18659E-05  4439   0.522E-03    0.582E-03
RMM:   9    -0.413161047199E+03   -0.24221E-05   -0.22277E-06  2566   0.198E-03    0.271E-03
RMM:  10    -0.413161055264E+03   -0.80654E-05   -0.15939E-06  2511   0.170E-03    0.127E-03
RMM:  11    -0.413161061209E+03   -0.59450E-05   -0.12584E-06  2444   0.143E-03    0.628E-04
RMM:  12    -0.413161063686E+03   -0.24766E-05   -0.58788E-07  2038   0.102E-03    0.398E-04
RMM:  13    -0.413161065068E+03   -0.13818E-05   -0.46891E-07  1824   0.894E-04    0.269E-04
RMM:  14    -0.413161065693E+03   -0.62476E-06   -0.48838E-07  1735   0.870E-04
  142 T=    60. E= -.41286644E+03 F= -.41316107E+03 E0= -.41314040E+03  EK= 0.29462E+00 SP= 0.00E+00 SK= 0.00E+00
       N       E                     dE             d eps       ncg     rms          rms(c)
RMM:   1    -0.413155584519E+03    0.54805E-02   -0.93204E+00  4264   0.816E-01    0.805E-01
RMM:   2    -0.413163680427E+03   -0.80959E-02   -0.10752E-01  4301   0.935E-02    0.584E-01
RMM:   3    -0.413161931957E+03    0.17485E-02   -0.73837E-03  4617   0.358E-02    0.980E-02
RMM:   4    -0.413162150462E+03   -0.21851E-03   -0.89584E-04  5134   0.246E-02    0.651E-02
RMM:   5    -0.413161978409E+03    0.17205E-03   -0.19124E-04  4925   0.144E-02    0.368E-02
RMM:   6    -0.413161952269E+03    0.26140E-04   -0.13593E-04  5149   0.123E-02    0.212E-02
RMM:   7    -0.413161994155E+03   -0.41886E-04   -0.10439E-04  5182   0.848E-03    0.124E-02
RMM:   8    -0.413161995537E+03   -0.13823E-05   -0.11366E-05  3872   0.449E-03    0.653E-03
RMM:   9    -0.413161997621E+03   -0.20831E-05   -0.25988E-06  2501   0.211E-03    0.295E-03
RMM:  10    -0.413162007278E+03   -0.96572E-05   -0.16729E-06  2486   0.181E-03    0.159E-03
RMM:  11    -0.413162020155E+03   -0.12877E-04   -0.19929E-06  2460   0.169E-03    0.701E-04
RMM:  12    -0.413162023906E+03   -0.37504E-05   -0.63548E-07  2101   0.110E-03    0.489E-04
RMM:  13    -0.413162026765E+03   -0.28591E-05   -0.40399E-07  1830   0.881E-04    0.459E-04
RMM:  14    -0.413162030201E+03   -0.34361E-05   -0.68942E-07  1963   0.943E-04    0.192E-04
RMM:  15    -0.413162030702E+03   -0.50094E-06   -0.14914E-07  1120   0.578E-04
  143 T=    60. E= -.41286636E+03 F= -.41316203E+03 E0= -.41314138E+03  EK= 0.29567E+00 SP= 0.00E+00 SK= 0.00E+00
       N       E                     dE             d eps       ncg     rms          rms(c)
RMM:   1    -0.413155899214E+03    0.61310E-02   -0.93991E+00  4264   0.823E-01    0.827E-01
RMM:   2    -0.413163328108E+03   -0.74289E-02   -0.10577E-01  4299   0.940E-02    0.577E-01
RMM:   3    -0.413162093647E+03    0.12345E-02   -0.73137E-03  4665   0.358E-02    0.114E-01
RMM:   4    -0.413163018363E+03   -0.92472E-03   -0.15862E-03  5195   0.346E-02    0.130E-01
RMM:   5    -0.413162126895E+03    0.89147E-03   -0.52431E-04  4860   0.236E-02    0.344E-02
RMM:   6    -0.413162111107E+03    0.15788E-04   -0.20725E-04  5285   0.152E-02    0.225E-02
RMM:   7    -0.413162131072E+03   -0.19966E-04   -0.10102E-04  5237   0.860E-03    0.112E-02
RMM:   8    -0.413162131337E+03   -0.26467E-06   -0.13231E-05  4063   0.460E-03    0.573E-03
RMM:   9    -0.413162133523E+03   -0.21862E-05   -0.23497E-06  2535   0.206E-03    0.247E-03
RMM:  10    -0.413162139116E+03   -0.55927E-05   -0.16432E-06  2510   0.179E-03    0.121E-03
RMM:  11    -0.413162143608E+03   -0.44924E-05   -0.13404E-06  2434   0.151E-03    0.634E-04
RMM:  12    -0.413162144999E+03   -0.13908E-05   -0.46205E-07  1995   0.988E-04    0.381E-04
RMM:  13    -0.413162145941E+03   -0.94261E-06   -0.40866E-07  1833   0.868E-04
  144 T=    60. E= -.41286681E+03 F= -.41316215E+03 E0= -.41314150E+03  EK= 0.29534E+00 SP= 0.00E+00 SK= 0.00E+00
       N       E                     dE             d eps       ncg     rms          rms(c)
RMM:   1    -0.413154654886E+03    0.74901E-02   -0.93977E+00  4264   0.825E-01    0.817E-01
RMM:   2    -0.413162145562E+03   -0.74907E-02   -0.10571E-01  4298   0.932E-02    0.570E-01
RMM:   3    -0.413161252992E+03    0.89257E-03   -0.69717E-03  4664   0.369E-02    0.118E-01
RMM:   4    -0.413164532428E+03   -0.32794E-02   -0.38141E-03  5194   0.531E-02    0.243E-01
RMM:   5    -0.413161266234E+03    0.32662E-02   -0.17005E-03  4836   0.411E-02    0.343E-02
RMM:   6    -0.413161249962E+03    0.16272E-04   -0.38100E-04  5520   0.199E-02    0.220E-02
RMM:   7    -0.413161269421E+03   -0.19459E-04   -0.10564E-04  5320   0.900E-03    0.952E-03
RMM:   8    -0.413161272913E+03   -0.34926E-05   -0.18543E-05  4442   0.494E-03    0.513E-03
RMM:   9    -0.413161275566E+03   -0.26524E-05   -0.16925E-06  2564   0.196E-03    0.257E-03
RMM:  10    -0.413161281771E+03   -0.62057E-05   -0.14771E-06  2519   0.167E-03    0.126E-03
RMM:  11    -0.413161286110E+03   -0.43388E-05   -0.11115E-06  2428   0.136E-03    0.621E-04
RMM:  12    -0.413161287852E+03   -0.17418E-05   -0.49790E-07  2022   0.980E-04    0.351E-04
RMM:  13    -0.413161289004E+03   -0.11521E-05   -0.37150E-07  1580   0.836E-04    0.227E-04
RMM:  14    -0.413161289723E+03   -0.71895E-06   -0.43630E-07  1811   0.862E-04
  145 T=    60. E= -.41286645E+03 F= -.41316129E+03 E0= -.41314065E+03  EK= 0.29484E+00 SP= 0.00E+00 SK= 0.00E+00
       N       E                     dE             d eps       ncg     rms          rms(c)
RMM:   1    -0.413155634907E+03    0.56541E-02   -0.94950E+00  4264   0.830E-01    0.802E-01
RMM:   2    -0.413164193284E+03   -0.85584E-02   -0.10914E-01  4294   0.949E-02    0.579E-01
RMM:   3    -0.413162925999E+03    0.12673E-02   -0.67443E-03  4815   0.387E-02    0.117E-01
RMM:   4    -0.413175935481E+03   -0.13009E-01   -0.13413E-02  5159   0.975E-02    0.479E-01
RMM:   5    -0.413162790498E+03    0.13145E-01   -0.66089E-03  4831   0.793E-02    0.383E-02
RMM:   6    -0.413162796171E+03   -0.56731E-05   -0.11441E-03  5726   0.318E-02    0.199E-02
RMM:   7    -0.413162828874E+03   -0.32703E-04   -0.15819E-04  5559   0.107E-02    0.985E-03
RMM:   8    -0.413162845565E+03   -0.16691E-04   -0.28148E-05  4665   0.551E-03    0.572E-03
RMM:   9    -0.413162852193E+03   -0.66281E-05   -0.39661E-06  2812   0.261E-03    0.283E-03
RMM:  10    -0.413162863425E+03   -0.11231E-04   -0.20499E-06  2550   0.201E-03    0.181E-03
RMM:  11    -0.413162873740E+03   -0.10315E-04   -0.13318E-06  2500   0.154E-03    0.817E-04
RMM:  12    -0.413162879417E+03   -0.56770E-05   -0.68816E-07  2222   0.112E-03    0.418E-04
RMM:  13    -0.413162883310E+03   -0.38928E-05   -0.44134E-07  1764   0.894E-04    0.269E-04
RMM:  14    -0.413162885946E+03   -0.26362E-05   -0.31680E-07  1578   0.800E-04    0.156E-04
RMM:  15    -0.413162887860E+03   -0.19140E-05   -0.26566E-07  1524   0.746E-04    0.876E-05
RMM:  16    -0.413162889085E+03   -0.12248E-05   -0.18798E-07  1316   0.687E-04    0.570E-05
RMM:  17    -0.413162889138E+03   -0.53467E-07   -0.69645E-08   946   0.565E-04
  146 T=    60. E= -.41286672E+03 F= -.41316289E+03 E0= -.41314226E+03  EK= 0.29617E+00 SP= 0.00E+00 SK= 0.00E+00
       N       E                     dE             d eps       ncg     rms          rms(c)
RMM:   1    -0.413155905611E+03    0.69835E-02   -0.96185E+00  4264   0.838E-01    0.822E-01
RMM:   2    -0.413164041134E+03   -0.81355E-02   -0.10866E-01  4294   0.945E-02    0.578E-01
RMM:   3    -0.413163281207E+03    0.75993E-03   -0.67227E-03  4901   0.406E-02    0.134E-01
RMM:   4    -0.413184520702E+03   -0.21239E-01   -0.21969E-02  5159   0.124E-01    0.609E-01
RMM:   5    -0.413163009522E+03    0.21511E-01   -0.10789E-02  4829   0.101E-01    0.447E-02
RMM:   6    -0.413163031355E+03   -0.21833E-04   -0.18038E-03  5698   0.398E-02    0.200E-02
RMM:   7    -0.413163060522E+03   -0.29167E-04   -0.22867E-04  5749   0.125E-02    0.114E-02
RMM:   8    -0.413163072685E+03   -0.12162E-04   -0.33857E-05  4772   0.584E-03    0.617E-03
RMM:   9    -0.413163078045E+03   -0.53601E-05   -0.59108E-06  3009   0.292E-03    0.299E-03
RMM:  10    -0.413163085802E+03   -0.77574E-05   -0.21760E-06  2554   0.203E-03    0.198E-03
RMM:  11    -0.413163092995E+03   -0.71929E-05   -0.13357E-06  2510   0.158E-03    0.973E-04
RMM:  12    -0.413163097510E+03   -0.45156E-05   -0.79872E-07  2305   0.119E-03    0.401E-04
RMM:  13    -0.413163099667E+03   -0.21569E-05   -0.38258E-07  1787   0.893E-04    0.275E-04
RMM:  14    -0.413163101460E+03   -0.17922E-05   -0.29101E-07  1485   0.805E-04    0.148E-04
RMM:  15    -0.413163102821E+03   -0.13612E-05   -0.26262E-07  1593   0.776E-04    0.880E-05
RMM:  16    -0.413163103592E+03   -0.77079E-06   -0.16985E-07  1393   0.695E-04
  147 T=    60. E= -.41286678E+03 F= -.41316310E+03 E0= -.41314248E+03  EK= 0.29632E+00 SP= 0.00E+00 SK= 0.00E+00
       N       E                     dE             d eps       ncg     rms          rms(c)
RMM:   1    -0.413154594574E+03    0.85082E-02   -0.96623E+00  4264   0.841E-01    0.827E-01
RMM:   2    -0.413162338236E+03   -0.77437E-02   -0.10805E-01  4299   0.940E-02    0.569E-01
RMM:   3    -0.413162220775E+03    0.11746E-03   -0.67791E-03  4984   0.411E-02    0.149E-01
RMM:   4    -0.413189843613E+03   -0.27623E-01   -0.28960E-02  5143   0.142E-01    0.693E-01
RMM:   5    -0.413161774049E+03    0.28070E-01   -0.13893E-02  4817   0.116E-01    0.501E-02
RMM:   6    -0.413161818259E+03   -0.44209E-04   -0.23007E-03  5680   0.454E-02    0.203E-02
RMM:   7    -0.413161847395E+03   -0.29136E-04   -0.29759E-04  5889   0.140E-02    0.125E-02
RMM:   8    -0.413161855407E+03   -0.80117E-05   -0.39870E-05  4939   0.623E-03    0.662E-03
RMM:   9    -0.413161859034E+03   -0.36279E-05   -0.72895E-06  3101   0.307E-03    0.319E-03
RMM:  10    -0.413161864019E+03   -0.49843E-05   -0.22990E-06  2556   0.204E-03    0.209E-03
RMM:  11    -0.413161869032E+03   -0.50133E-05   -0.13580E-06  2503   0.158E-03    0.111E-03
RMM:  12    -0.413161872262E+03   -0.32303E-05   -0.91835E-07  2417   0.125E-03    0.407E-04
RMM:  13    -0.413161873377E+03   -0.11149E-05   -0.35245E-07  1800   0.886E-04    0.282E-04
RMM:  14    -0.413161874627E+03   -0.12494E-05   -0.32487E-07  1553   0.833E-04    0.166E-04
RMM:  15    -0.413161875417E+03   -0.79003E-06   -0.25911E-07  1637   0.784E-04
  148 T=    60. E= -.41286647E+03 F= -.41316188E+03 E0= -.41314125E+03  EK= 0.29541E+00 SP= 0.00E+00 SK= 0.00E+00
       N       E                     dE             d eps       ncg     rms          rms(c)
RMM:   1    -0.413155247773E+03    0.66269E-02   -0.96805E+00  4264   0.844E-01    0.802E-01
RMM:   2    -0.413164264049E+03   -0.90163E-02   -0.11098E-01  4302   0.949E-02    0.574E-01
RMM:   3    -0.413163839155E+03    0.42489E-03   -0.63558E-03  5030   0.435E-02    0.157E-01
RMM:   4    -0.413196732445E+03   -0.32893E-01   -0.35451E-02  5145   0.156E-01    0.755E-01
RMM:   5    -0.413163160330E+03    0.33572E-01   -0.16486E-02  4814   0.126E-01    0.524E-02
RMM:   6    -0.413163216462E+03   -0.56132E-04   -0.26849E-03  5673   0.493E-02    0.169E-02
RMM:   7    -0.413163259990E+03   -0.43528E-04   -0.33824E-04  5962   0.148E-02    0.120E-02
RMM:   8    -0.413163275686E+03   -0.15696E-04   -0.42632E-05  4956   0.623E-03    0.662E-03
RMM:   9    -0.413163285998E+03   -0.10312E-04   -0.79213E-06  3087   0.311E-03    0.324E-03
RMM:  10    -0.413163295512E+03   -0.95135E-05   -0.23377E-06  2556   0.202E-03    0.205E-03
RMM:  11    -0.413163305978E+03   -0.10466E-04   -0.14034E-06  2511   0.157E-03    0.119E-03
RMM:  12    -0.413163314347E+03   -0.83690E-05   -0.97657E-07  2407   0.125E-03    0.430E-04
RMM:  13    -0.413163317294E+03   -0.29469E-05   -0.36070E-07  1795   0.889E-04    0.283E-04
RMM:  14    -0.413163321602E+03   -0.43082E-05   -0.40856E-07  1653   0.876E-04    0.197E-04
RMM:  15    -0.413163324452E+03   -0.28501E-05   -0.31042E-07  1714   0.812E-04    0.132E-04
RMM:  16    -0.413163325292E+03   -0.83990E-06   -0.12672E-07  1252   0.647E-04
  149 T=    60. E= -.41286689E+03 F= -.41316333E+03 E0= -.41314271E+03  EK= 0.29644E+00 SP= 0.00E+00 SK= 0.00E+00
       N       E                     dE             d eps       ncg     rms          rms(c)
RMM:   1    -0.413155369738E+03    0.79547E-02   -0.98121E+00  4264   0.853E-01    0.815E-01
RMM:   2    -0.413164417879E+03   -0.90481E-02   -0.11191E-01  4303   0.954E-02    0.580E-01
RMM:   3    -0.413164084720E+03    0.33316E-03   -0.63937E-03  5048   0.442E-02    0.164E-01
RMM:   4    -0.413198430930E+03   -0.34346E-01   -0.37472E-02  5141   0.161E-01    0.772E-01
RMM:   5    -0.413163326463E+03    0.35104E-01   -0.17168E-02  4814   0.129E-01    0.540E-02
RMM:   6    -0.413163381800E+03   -0.55337E-04   -0.27980E-03  5665   0.504E-02    0.158E-02
RMM:   7    -0.413163425247E+03   -0.43447E-04   -0.35575E-04  5992   0.151E-02    0.119E-02
RMM:   8    -0.413163438722E+03   -0.13475E-04   -0.41566E-05  4830   0.605E-03    0.668E-03
RMM:   9    -0.413163449703E+03   -0.10981E-04   -0.75517E-06  3017   0.308E-03    0.330E-03
RMM:  10    -0.413163458645E+03   -0.89421E-05   -0.22439E-06  2548   0.198E-03    0.198E-03
RMM:  11    -0.413163468475E+03   -0.98301E-05   -0.13723E-06  2509   0.155E-03    0.116E-03
RMM:  12    -0.413163476341E+03   -0.78659E-05   -0.93094E-07  2358   0.123E-03    0.438E-04
RMM:  13    -0.413163479329E+03   -0.29878E-05   -0.37041E-07  1840   0.899E-04    0.280E-04
RMM:  14    -0.413163483782E+03   -0.44533E-05   -0.45279E-07  1780   0.902E-04    0.210E-04
RMM:  15    -0.413163486551E+03   -0.27688E-05   -0.31030E-07  1664   0.802E-04    0.140E-04
RMM:  16    -0.413163487365E+03   -0.81424E-06   -0.12566E-07  1208   0.645E-04
  150 T=    60. E= -.41286655E+03 F= -.41316349E+03 E0= -.41314287E+03  EK= 0.29694E+00 SP= 0.00E+00 SK= 0.00E+00
