       N       E                     dE             d eps       ncg     rms          rms(c)
RMM:   1     0.220147983826E+04    0.22015E+04   -0.52438E+04  2132   0.654E+02
RMM:   2     0.705674906099E+03   -0.14958E+04   -0.16259E+04  2132   0.177E+02
RMM:   3     0.137699856073E+03   -0.56798E+03   -0.65693E+03  2132   0.117E+02
RMM:   4    -0.159348749890E+03   -0.29705E+03   -0.27846E+03  2132   0.936E+01
RMM:   5    -0.287586640719E+03   -0.12824E+03   -0.11448E+03  2132   0.595E+01
RMM:   6    -0.349852089811E+03   -0.62265E+02   -0.55108E+02  2132   0.423E+01
RMM:   7    -0.382719824128E+03   -0.32868E+02   -0.30370E+02  2132   0.293E+01
RMM:   8    -0.404130713718E+03   -0.21411E+02   -0.18445E+02  2132   0.233E+01
RMM:   9    -0.436021115647E+03   -0.31890E+02   -0.30826E+02  6109   0.173E+01
RMM:  10    -0.441303726063E+03   -0.52826E+01   -0.62988E+01  6392   0.539E+00
RMM:  11    -0.442514675776E+03   -0.12109E+01   -0.11116E+01  6217   0.173E+00
RMM:  12    -0.442891530043E+03   -0.37685E+00   -0.27636E+00  6368   0.602E-01    0.134E+02
RMM:  13    -0.425634344451E+03    0.17257E+02   -0.81412E+01  4673   0.120E+01    0.712E+01
RMM:  14    -0.499432850146E+03   -0.73799E+02   -0.54223E+02  5420   0.233E+01    0.306E+01
RMM:  15    -0.414584706967E+03    0.84848E+02   -0.19704E+02  5069   0.163E+01    0.626E+00
RMM:  16    -0.414054002758E+03    0.53070E+00   -0.39332E+01  6080   0.605E+00    0.429E+00
RMM:  17    -0.413217801422E+03    0.83620E+00   -0.23368E+00  5345   0.182E+00    0.245E+00
RMM:  18    -0.413166270782E+03    0.51531E-01   -0.87658E-01  5960   0.962E-01    0.159E+00
RMM:  19    -0.413166646663E+03   -0.37588E-03   -0.30715E-01  5727   0.583E-01    0.842E-01
RMM:  20    -0.413177689685E+03   -0.11043E-01   -0.16805E-01  5356   0.451E-01    0.464E-01
RMM:  21    -0.413166540342E+03    0.11149E-01   -0.30516E-02  5031   0.203E-01    0.226E-01
RMM:  22    -0.413165491816E+03    0.10485E-02   -0.12112E-02  6116   0.855E-02    0.145E-01
RMM:  23    -0.413163978880E+03    0.15129E-02   -0.55398E-03  5752   0.686E-02    0.791E-02
RMM:  24    -0.413162798478E+03    0.11804E-02   -0.18521E-03  5569   0.407E-02    0.318E-02
RMM:  25    -0.413162727034E+03    0.71444E-04   -0.81763E-04  5897   0.224E-02    0.261E-02
RMM:  26    -0.413163003932E+03   -0.27690E-03   -0.43673E-04  5839   0.211E-02    0.277E-02
RMM:  27    -0.413163446984E+03   -0.44305E-03   -0.19232E-04  4566   0.190E-02    0.124E-02
RMM:  28    -0.413163969389E+03   -0.52240E-03   -0.17569E-04  5124   0.194E-02    0.855E-03
RMM:  29    -0.413164271209E+03   -0.30182E-03   -0.84419E-05  4276   0.123E-02    0.391E-03
RMM:  30    -0.413164480738E+03   -0.20953E-03   -0.65102E-05  3977   0.944E-03    0.224E-03
RMM:  31    -0.413164580005E+03   -0.99267E-04   -0.42797E-05  3118   0.578E-03    0.189E-03
RMM:  32    -0.413164606157E+03   -0.26151E-04   -0.17981E-05  2914   0.280E-03    0.999E-04
RMM:  33    -0.413164615267E+03   -0.91108E-05   -0.76997E-06  2737   0.177E-03    0.457E-04
RMM:  34    -0.413164618664E+03   -0.33964E-05   -0.37420E-06  2638   0.152E-03    0.892E-04
RMM:  35    -0.413164618345E+03    0.31906E-06   -0.21039E-06  1780   0.959E-04
    1 T=    61. E= -.41286681E+03 F= -.41316462E+03 E0= -.41314212E+03  EK= 0.29781E+00 SP= 0.00E+00 SK= 0.00E+00
       N       E                     dE             d eps       ncg     rms          rms(c)
RMM:   1    -0.413154642254E+03    0.99764E-02   -0.11171E+01  3977   0.701E-01    0.886E-01
RMM:   2    -0.413165656103E+03   -0.11014E-01   -0.13796E-01  3857   0.101E-01    0.641E-01
RMM:   3    -0.413164171715E+03    0.14844E-02   -0.63114E-03  4667   0.348E-02    0.153E-01
RMM:   4    -0.413179402537E+03   -0.15231E-01   -0.15876E-02  5219   0.105E-01    0.517E-01
RMM:   5    -0.413163948068E+03    0.15454E-01   -0.76596E-03  4855   0.863E-02    0.263E-02
RMM:   6    -0.413164045282E+03   -0.97214E-04   -0.12319E-03  5842   0.338E-02    0.147E-02
RMM:   7    -0.413164058320E+03   -0.13038E-04   -0.15504E-04  5665   0.105E-02    0.109E-02
RMM:   8    -0.413164065094E+03   -0.67733E-05   -0.19239E-05  3808   0.419E-03    0.622E-03
RMM:   9    -0.413164072081E+03   -0.69871E-05   -0.37967E-06  2738   0.241E-03    0.399E-03
RMM:  10    -0.413164079871E+03   -0.77903E-05   -0.16223E-06  2542   0.178E-03    0.215E-03
RMM:  11    -0.413164087408E+03   -0.75365E-05   -0.12378E-06  2528   0.151E-03    0.952E-04
RMM:  12    -0.413164091184E+03   -0.37765E-05   -0.64190E-07  2291   0.111E-03    0.361E-04
RMM:  13    -0.413164092964E+03   -0.17796E-05   -0.36279E-07  1684   0.819E-04    0.210E-04
RMM:  14    -0.413164095380E+03   -0.24161E-05   -0.30197E-07  1413   0.751E-04    0.138E-04
RMM:  15    -0.413164097009E+03   -0.16297E-05   -0.22580E-07  1262   0.687E-04    0.780E-05
RMM:  16    -0.413164097691E+03   -0.68158E-06   -0.16589E-07  1141   0.633E-04
    2 T=    61. E= -.41286638E+03 F= -.41316410E+03 E0= -.41314160E+03  EK= 0.29772E+00 SP= 0.00E+00 SK= 0.00E+00
       N       E                     dE             d eps       ncg     rms          rms(c)
RMM:   1    -0.413155857412E+03    0.82396E-02   -0.11207E+01  4193   0.704E-01    0.911E-01
RMM:   2    -0.413165670057E+03   -0.98126E-02   -0.13516E-01  3886   0.964E-02    0.633E-01
RMM:   3    -0.413165109614E+03    0.56044E-03   -0.68311E-03  4862   0.391E-02    0.170E-01
RMM:   4    -0.413194855691E+03   -0.29746E-01   -0.30199E-02  5180   0.145E-01    0.718E-01
RMM:   5    -0.413164685556E+03    0.30170E-01   -0.14667E-02  4830   0.120E-01    0.371E-02
RMM:   6    -0.413164868309E+03   -0.18275E-03   -0.23363E-03  5792   0.473E-02    0.187E-02
RMM:   7    -0.413164880286E+03   -0.11978E-04   -0.28214E-04  5893   0.139E-02    0.138E-02
RMM:   8    -0.413164880729E+03   -0.44245E-06   -0.36415E-05  4426   0.529E-03    0.856E-03
RMM:   9    -0.413164879834E+03    0.89531E-06   -0.57677E-06  2966   0.273E-03
    3 T=    61. E= -.41286688E+03 F= -.41316488E+03 E0= -.41314238E+03  EK= 0.29800E+00 SP= 0.00E+00 SK= 0.00E+00
       N       E                     dE             d eps       ncg     rms          rms(c)
RMM:   1    -0.413155308693E+03    0.95720E-02   -0.11120E+01  4226   0.705E-01    0.894E-01
RMM:   2    -0.413165861521E+03   -0.10553E-01   -0.13403E-01  4181   0.991E-02    0.627E-01
RMM:   3    -0.413168157749E+03   -0.22962E-02   -0.92025E-03  5168   0.662E-02    0.297E-01
RMM:   4    -0.413194116639E+03   -0.25959E-01   -0.40536E-02  5136   0.170E-01    0.715E-01
RMM:   5    -0.413164472079E+03    0.29645E-01   -0.12452E-02  4740   0.119E-01    0.535E-02
RMM:   6    -0.413164525182E+03   -0.53102E-04   -0.21135E-03  5578   0.459E-02    0.164E-02
RMM:   7    -0.413164548648E+03   -0.23466E-04   -0.29928E-04  6040   0.149E-02    0.119E-02
RMM:   8    -0.413164551513E+03   -0.28649E-05   -0.38293E-05  4726   0.558E-03    0.736E-03
RMM:   9    -0.413164553284E+03   -0.17707E-05   -0.70559E-06  3112   0.361E-03    0.360E-03
RMM:  10    -0.413164555205E+03   -0.19218E-05   -0.18611E-06  2552   0.216E-03    0.217E-03
RMM:  11    -0.413164557434E+03   -0.22289E-05   -0.10309E-06  2541   0.157E-03    0.104E-03
RMM:  12    -0.413164558602E+03   -0.11676E-05   -0.49024E-07  2182   0.107E-03    0.463E-04
RMM:  13    -0.413164559835E+03   -0.12328E-05   -0.38861E-07  1773   0.890E-04    0.219E-04
RMM:  14    -0.413164560438E+03   -0.60350E-06   -0.22322E-07  1366   0.734E-04
    4 T=    61. E= -.41286656E+03 F= -.41316456E+03 E0= -.41314207E+03  EK= 0.29800E+00 SP= 0.00E+00 SK= 0.00E+00
       N       E                     dE             d eps       ncg     rms          rms(c)
RMM:   1    -0.413155118132E+03    0.94417E-02   -0.11160E+01  4237   0.710E-01    0.884E-01
RMM:   2    -0.413166108783E+03   -0.10991E-01   -0.13811E-01  4013   0.968E-02    0.639E-01
RMM:   3    -0.413165007166E+03    0.11016E-02   -0.63993E-03  4937   0.365E-02    0.165E-01
RMM:   4    -0.413196515699E+03   -0.31509E-01   -0.32321E-02  5165   0.150E-01    0.740E-01
RMM:   5    -0.413164439059E+03    0.32077E-01   -0.15558E-02  4815   0.124E-01    0.368E-02
RMM:   6    -0.413164635655E+03   -0.19660E-03   -0.25017E-03  5779   0.484E-02    0.168E-02
RMM:   7    -0.413164654945E+03   -0.19290E-04   -0.29528E-04  5884   0.141E-02    0.132E-02
RMM:   8    -0.413164659909E+03   -0.49642E-05   -0.36798E-05  4401   0.529E-03    0.829E-03
RMM:   9    -0.413164664262E+03   -0.43532E-05   -0.58343E-06  2949   0.274E-03    0.563E-03
RMM:  10    -0.413164671003E+03   -0.67412E-05   -0.21816E-06  2566   0.213E-03    0.281E-03
RMM:  11    -0.413164676944E+03   -0.59402E-05   -0.14757E-06  2544   0.178E-03    0.138E-03
RMM:  12    -0.413164680456E+03   -0.35127E-05   -0.74535E-07  2440   0.134E-03    0.482E-04
RMM:  13    -0.413164681900E+03   -0.14436E-05   -0.33848E-07  1997   0.936E-04    0.292E-04
RMM:  14    -0.413164683548E+03   -0.16481E-05   -0.23878E-07  1548   0.789E-04    0.177E-04
RMM:  15    -0.413164685154E+03   -0.16060E-05   -0.21627E-07  1484   0.741E-04    0.129E-04
RMM:  16    -0.413164685481E+03   -0.32686E-06   -0.96766E-08  1098   0.630E-04
    5 T=    61. E= -.41286654E+03 F= -.41316469E+03 E0= -.41314221E+03  EK= 0.29815E+00 SP= 0.00E+00 SK= 0.00E+00
       N       E                     dE             d eps       ncg     rms          rms(c)
RMM:   1    -0.413156127752E+03    0.85574E-02   -0.11214E+01  4248   0.716E-01    0.907E-01
RMM:   2    -0.413166358862E+03   -0.10231E-01   -0.13506E-01  3933   0.960E-02    0.635E-01
RMM:   3    -0.413165500603E+03    0.85826E-03   -0.66227E-03  4843   0.369E-02    0.168E-01
RMM:   4    -0.413193726162E+03   -0.28226E-01   -0.28617E-02  5160   0.141E-01    0.700E-01
RMM:   5    -0.413165095814E+03    0.28630E-01   -0.13973E-02  4818   0.117E-01    0.358E-02
RMM:   6    -0.413165273593E+03   -0.17778E-03   -0.22385E-03  5787   0.457E-02    0.182E-02
RMM:   7    -0.413165285690E+03   -0.12097E-04   -0.26489E-04  5851   0.134E-02    0.135E-02
RMM:   8    -0.413165286692E+03   -0.10022E-05   -0.33764E-05  4372   0.519E-03    0.838E-03
RMM:   9    -0.413165286337E+03    0.35527E-06   -0.56606E-06  2926   0.275E-03
    6 T=    61. E= -.41286682E+03 F= -.41316529E+03 E0= -.41314282E+03  EK= 0.29847E+00 SP= 0.00E+00 SK= 0.00E+00
       N       E                     dE             d eps       ncg     rms          rms(c)
RMM:   1    -0.413158664274E+03    0.66224E-02   -0.11182E+01  4272   0.740E-01    0.902E-01
RMM:   2    -0.413165624141E+03   -0.69599E-02   -0.13501E-01  4237   0.100E-01    0.628E-01
RMM:   3    -0.413168323328E+03   -0.26992E-02   -0.93838E-03  5153   0.653E-02    0.295E-01
RMM:   4    -0.413194209595E+03   -0.25886E-01   -0.40222E-02  5122   0.169E-01    0.714E-01
RMM:   5    -0.413164752076E+03    0.29458E-01   -0.12467E-02  4743   0.119E-01    0.531E-02
RMM:   6    -0.413164804805E+03   -0.52729E-04   -0.20904E-03  5587   0.456E-02    0.167E-02
RMM:   7    -0.413164825056E+03   -0.20251E-04   -0.29662E-04  6037   0.149E-02    0.121E-02
RMM:   8    -0.413164826356E+03   -0.12993E-05   -0.38020E-05  4708   0.557E-03    0.738E-03
RMM:   9    -0.413164825346E+03    0.10102E-05   -0.69420E-06  3066   0.361E-03    0.356E-03
RMM:  10    -0.413164825500E+03   -0.15418E-06   -0.18892E-06  2551   0.215E-03
    7 T=    61. E= -.41286635E+03 F= -.41316483E+03 E0= -.41314238E+03  EK= 0.29847E+00 SP= 0.00E+00 SK= 0.00E+00
       N       E                     dE             d eps       ncg     rms          rms(c)
RMM:   1    -0.413156013931E+03    0.88114E-02   -0.11153E+01  4277   0.728E-01    0.883E-01
RMM:   2    -0.413166902316E+03   -0.10888E-01   -0.13730E-01  4045   0.960E-02    0.637E-01
RMM:   3    -0.413166123889E+03    0.77843E-03   -0.65564E-03  5000   0.404E-02    0.178E-01
RMM:   4    -0.413206167787E+03   -0.40044E-01   -0.41944E-02  5154   0.170E-01    0.831E-01
RMM:   5    -0.413165367276E+03    0.40801E-01   -0.19754E-02  4809   0.139E-01    0.432E-02
RMM:   6    -0.413165588817E+03   -0.22154E-03   -0.31462E-03  5768   0.545E-02    0.169E-02
RMM:   7    -0.413165616288E+03   -0.27471E-04   -0.38133E-04  5944   0.156E-02    0.138E-02
RMM:   8    -0.413165620905E+03   -0.46165E-05   -0.43758E-05  4442   0.560E-03    0.848E-03
RMM:   9    -0.413165624522E+03   -0.36175E-05   -0.70495E-06  3010   0.284E-03    0.567E-03
RMM:  10    -0.413165629905E+03   -0.53826E-05   -0.25460E-06  2578   0.225E-03    0.278E-03
RMM:  11    -0.413165634279E+03   -0.43738E-05   -0.14811E-06  2542   0.178E-03    0.133E-03
RMM:  12    -0.413165636873E+03   -0.25939E-05   -0.80466E-07  2446   0.136E-03    0.434E-04
RMM:  13    -0.413165638215E+03   -0.13421E-05   -0.40272E-07  2033   0.969E-04    0.285E-04
RMM:  14    -0.413165639438E+03   -0.12228E-05   -0.31115E-07  1640   0.828E-04    0.193E-04
RMM:  15    -0.413165640127E+03   -0.68900E-06   -0.20920E-07  1383   0.735E-04
    8 T=    61. E= -.41286686E+03 F= -.41316564E+03 E0= -.41314321E+03  EK= 0.29878E+00 SP= 0.00E+00 SK= 0.00E+00
       N       E                     dE             d eps       ncg     rms          rms(c)
RMM:   1    -0.413156381566E+03    0.92579E-02   -0.11216E+01  4283   0.728E-01    0.901E-01
RMM:   2    -0.413166839098E+03   -0.10458E-01   -0.13646E-01  4150   0.101E-01    0.638E-01
RMM:   3    -0.413165956358E+03    0.88274E-03   -0.65805E-03  4830   0.391E-02    0.167E-01
RMM:   4    -0.413195156525E+03   -0.29200E-01   -0.29755E-02  5159   0.143E-01    0.713E-01
RMM:   5    -0.413165436659E+03    0.29720E-01   -0.14579E-02  4813   0.119E-01    0.355E-02
RMM:   6    -0.413165620558E+03   -0.18390E-03   -0.23093E-03  5790   0.464E-02    0.177E-02
RMM:   7    -0.413165632986E+03   -0.12428E-04   -0.27215E-04  5858   0.136E-02    0.134E-02
RMM:   8    -0.413165633882E+03   -0.89620E-06   -0.34422E-05  4384   0.523E-03    0.846E-03
RMM:   9    -0.413165633695E+03    0.18707E-06   -0.56950E-06  2937   0.278E-03
    9 T=    61. E= -.41286664E+03 F= -.41316563E+03 E0= -.41314323E+03  EK= 0.29900E+00 SP= 0.00E+00 SK= 0.00E+00
       N       E                     dE             d eps       ncg     rms          rms(c)
RMM:   1    -0.413156949338E+03    0.86845E-02   -0.11203E+01  4293   0.733E-01    0.909E-01
RMM:   2    -0.413166471424E+03   -0.95221E-02   -0.13451E-01  4278   0.977E-02    0.629E-01
RMM:   3    -0.413169609454E+03   -0.31380E-02   -0.98196E-03  5145   0.682E-02    0.307E-01
RMM:   4    -0.413193049115E+03   -0.23440E-01   -0.38746E-02  5110   0.166E-01    0.689E-01
RMM:   5    -0.413165764528E+03    0.27285E-01   -0.11377E-02  4730   0.114E-01    0.524E-02
RMM:   6    -0.413165806769E+03   -0.42241E-04   -0.19318E-03  5563   0.436E-02    0.173E-02
RMM:   7    -0.413165824378E+03   -0.17609E-04   -0.27594E-04  6040   0.145E-02    0.122E-02
RMM:   8    -0.413165824269E+03    0.10851E-06   -0.35432E-05  4687   0.548E-03    0.735E-03
RMM:   9    -0.413165820387E+03    0.38827E-05   -0.70371E-06  3068   0.364E-03    0.359E-03
RMM:  10    -0.413165819189E+03    0.11979E-05   -0.18063E-06  2549   0.212E-03    0.212E-03
RMM:  11    -0.413165817878E+03    0.13108E-05   -0.10011E-06  2530   0.156E-03    0.101E-03
RMM:  12    -0.413165816983E+03    0.89533E-06   -0.47479E-07  2171   0.107E-03
   10 T=    61. E= -.41286650E+03 F= -.41316582E+03 E0= -.41314343E+03  EK= 0.29932E+00 SP= 0.00E+00 SK= 0.00E+00
       N       E                     dE             d eps       ncg     rms          rms(c)
RMM:   1    -0.413156968960E+03    0.88489E-02   -0.11156E+01  4293   0.736E-01    0.885E-01
RMM:   2    -0.413167948454E+03   -0.10979E-01   -0.13641E-01  4167   0.954E-02    0.634E-01
RMM:   3    -0.413166881389E+03    0.10671E-02   -0.62992E-03  4890   0.398E-02    0.168E-01
RMM:   4    -0.413198219486E+03   -0.31338E-01   -0.32069E-02  5151   0.149E-01    0.738E-01
RMM:   5    -0.413166297138E+03    0.31922E-01   -0.15729E-02  4819   0.123E-01    0.360E-02
RMM:   6    -0.413166488183E+03   -0.19105E-03   -0.24203E-03  5783   0.480E-02    0.176E-02
RMM:   7    -0.413166502985E+03   -0.14802E-04   -0.28758E-04  5873   0.141E-02    0.135E-02
RMM:   8    -0.413166505238E+03   -0.22531E-05   -0.37266E-05  4468   0.540E-03    0.868E-03
RMM:   9    -0.413166505786E+03   -0.54757E-06   -0.61314E-06  2980   0.283E-03
   11 T=    61. E= -.41286671E+03 F= -.41316651E+03 E0= -.41314415E+03  EK= 0.29980E+00 SP= 0.00E+00 SK= 0.00E+00
       N       E                     dE             d eps       ncg     rms          rms(c)
RMM:   1    -0.413156928643E+03    0.95766E-02   -0.11236E+01  4295   0.743E-01    0.896E-01
RMM:   2    -0.413167590531E+03   -0.10662E-01   -0.13819E-01  4293   0.995E-02    0.641E-01
RMM:   3    -0.413170368135E+03   -0.27776E-02   -0.95952E-03  5141   0.690E-02    0.309E-01
RMM:   4    -0.413197496636E+03   -0.27129E-01   -0.43496E-02  5109   0.175E-01    0.733E-01
RMM:   5    -0.413166273079E+03    0.31224E-01   -0.13104E-02  4727   0.122E-01    0.531E-02
RMM:   6    -0.413166338077E+03   -0.64998E-04   -0.22201E-03  5594   0.465E-02    0.152E-02
RMM:   7    -0.413166361860E+03   -0.23783E-04   -0.30045E-04  6037   0.150E-02    0.116E-02
RMM:   8    -0.413166365134E+03   -0.32743E-05   -0.38427E-05  4716   0.557E-03    0.713E-03
RMM:   9    -0.413166367139E+03   -0.20049E-05   -0.71369E-06  3073   0.364E-03    0.370E-03
RMM:  10    -0.413166368901E+03   -0.17619E-05   -0.20374E-06  2552   0.218E-03    0.219E-03
RMM:  11    -0.413166370601E+03   -0.17003E-05   -0.11807E-06  2545   0.160E-03    0.104E-03
RMM:  12    -0.413166371285E+03   -0.68443E-06   -0.51330E-07  2248   0.109E-03
   12 T=    61. E= -.41286627E+03 F= -.41316637E+03 E0= -.41314404E+03  EK= 0.30010E+00 SP= 0.00E+00 SK= 0.00E+00
       N       E                     dE             d eps       ncg     rms          rms(c)
RMM:   1    -0.413158030277E+03    0.83403E-02   -0.11263E+01  4298   0.747E-01    0.915E-01
RMM:   2    -0.413167824860E+03   -0.97946E-02   -0.13492E-01  4207   0.944E-02    0.632E-01
RMM:   3    -0.413167434700E+03    0.39016E-03   -0.69061E-03  4949   0.385E-02    0.176E-01
RMM:   4    -0.413201286875E+03   -0.33852E-01   -0.34742E-02  5149   0.155E-01    0.765E-01
RMM:   5    -0.413166887382E+03    0.34399E-01   -0.16841E-02  4805   0.128E-01    0.396E-02
RMM:   6    -0.413167088434E+03   -0.20105E-03   -0.26960E-03  5778   0.500E-02    0.198E-02
RMM:   7    -0.413167099010E+03   -0.10576E-04   -0.31811E-04  5884   0.147E-02    0.147E-02
RMM:   8    -0.413167096726E+03    0.22847E-05   -0.41144E-05  4572   0.564E-03    0.941E-03
RMM:   9    -0.413167091834E+03    0.48920E-05   -0.67353E-06  3033   0.288E-03    0.637E-03
RMM:  10    -0.413167087368E+03    0.44661E-05   -0.21790E-06  2558   0.216E-03    0.321E-03
RMM:  11    -0.413167084032E+03    0.33357E-05   -0.16222E-06  2542   0.191E-03    0.156E-03
RMM:  12    -0.413167081418E+03    0.26139E-05   -0.83030E-07  2454   0.144E-03    0.508E-04
RMM:  13    -0.413167080566E+03    0.85212E-06   -0.34510E-07  2123   0.977E-04
   13 T=    61. E= -.41286641E+03 F= -.41316708E+03 E0= -.41314478E+03  EK= 0.30067E+00 SP= 0.00E+00 SK= 0.00E+00
       N       E                     dE             d eps       ncg     rms          rms(c)
RMM:   1    -0.413158018166E+03    0.90633E-02   -0.11179E+01  4294   0.747E-01    0.889E-01
RMM:   2    -0.413168722784E+03   -0.10705E-01   -0.13691E-01  4219   0.961E-02    0.633E-01
RMM:   3    -0.413167900072E+03    0.82271E-03   -0.63659E-03  4848   0.375E-02    0.167E-01
RMM:   4    -0.413196320578E+03   -0.28421E-01   -0.29035E-02  5143   0.142E-01    0.703E-01
RMM:   5    -0.413167400954E+03    0.28920E-01   -0.14224E-02  4809   0.117E-01    0.347E-02
RMM:   6    -0.413167575195E+03   -0.17424E-03   -0.22483E-03  5794   0.454E-02    0.175E-02
RMM:   7    -0.413167586661E+03   -0.11466E-04   -0.26069E-04  5834   0.135E-02    0.131E-02
RMM:   8    -0.413167586726E+03   -0.65196E-07   -0.34255E-05  4402   0.523E-03    0.841E-03
RMM:   9    -0.413167584859E+03    0.18673E-05   -0.56925E-06  2947   0.280E-03    0.575E-03
RMM:  10    -0.413167584345E+03    0.51381E-06   -0.19945E-06  2550   0.210E-03
   14 T=    61. E= -.41286647E+03 F= -.41316758E+03 E0= -.41314532E+03  EK= 0.30112E+00 SP= 0.00E+00 SK= 0.00E+00
       N       E                     dE             d eps       ncg     rms          rms(c)
RMM:   1    -0.413158073319E+03    0.95115E-02   -0.11267E+01  4303   0.757E-01    0.892E-01
RMM:   2    -0.413169461266E+03   -0.11388E-01   -0.13927E-01  4291   0.990E-02    0.644E-01
RMM:   3    -0.413171178192E+03   -0.17169E-02   -0.89829E-03  5120   0.652E-02    0.290E-01
RMM:   4    -0.413203174535E+03   -0.31996E-01   -0.46663E-02  5111   0.181E-01    0.778E-01
RMM:   5    -0.413167693480E+03    0.35481E-01   -0.15301E-02  4736   0.129E-01    0.510E-02
RMM:   6    -0.413167795531E+03   -0.10205E-03   -0.24839E-03  5627   0.494E-02    0.145E-02
RMM:   7    -0.413167821185E+03   -0.25654E-04   -0.32140E-04  6007   0.150E-02    0.116E-02
RMM:   8    -0.413167824522E+03   -0.33365E-05   -0.40285E-05  4680   0.559E-03    0.697E-03
RMM:   9    -0.413167826052E+03   -0.15300E-05   -0.62599E-06  2896   0.319E-03    0.338E-03
RMM:  10    -0.413167827784E+03   -0.17327E-05   -0.22199E-06  2556   0.210E-03    0.198E-03
RMM:  11    -0.413167829018E+03   -0.12336E-05   -0.10427E-06  2534   0.148E-03    0.891E-04
RMM:  12    -0.413167829612E+03   -0.59410E-06   -0.50957E-07  1988   0.105E-03
   15 T=    61. E= -.41286642E+03 F= -.41316783E+03 E0= -.41314560E+03  EK= 0.30141E+00 SP= 0.00E+00 SK= 0.00E+00
       N       E                     dE             d eps       ncg     rms          rms(c)
RMM:   1    -0.413159961041E+03    0.78680E-02   -0.11310E+01  4303   0.769E-01    0.916E-01
RMM:   2    -0.413169593710E+03   -0.96327E-02   -0.13625E-01  4242   0.101E-01    0.635E-01
RMM:   3    -0.413169041460E+03    0.55225E-03   -0.68802E-03  4914   0.390E-02    0.176E-01
RMM:   4    -0.413202448375E+03   -0.33407E-01   -0.34330E-02  5148   0.154E-01    0.760E-01
RMM:   5    -0.413168476023E+03    0.33972E-01   -0.16637E-02  4804   0.127E-01    0.389E-02
RMM:   6    -0.413168672212E+03   -0.19619E-03   -0.26701E-03  5803   0.496E-02    0.195E-02
RMM:   7    -0.413168680081E+03   -0.78689E-05   -0.30800E-04  5893   0.146E-02    0.145E-02
RMM:   8    -0.413168677059E+03    0.30214E-05   -0.40512E-05  4565   0.562E-03    0.943E-03
RMM:   9    -0.413168671511E+03    0.55483E-05   -0.66289E-06  3024   0.289E-03    0.642E-03
RMM:  10    -0.413168666249E+03    0.52625E-05   -0.21521E-06  2552   0.218E-03    0.326E-03
RMM:  11    -0.413168662113E+03    0.41354E-05   -0.16449E-06  2537   0.192E-03    0.159E-03
RMM:  12    -0.413168658919E+03    0.31943E-05   -0.79992E-07  2454   0.144E-03    0.520E-04
RMM:  13    -0.413168657812E+03    0.11066E-05   -0.34105E-07  2123   0.976E-04    0.324E-04
RMM:  14    -0.413168656344E+03    0.14685E-05   -0.20156E-07  1600   0.779E-04    0.181E-04
RMM:  15    -0.413168653746E+03    0.25978E-05   -0.20811E-07  1556   0.759E-04    0.149E-04
RMM:  16    -0.413168653168E+03    0.57798E-06   -0.78499E-08  1059   0.618E-04
   16 T=    61. E= -.41286665E+03 F= -.41316865E+03 E0= -.41314646E+03  EK= 0.30201E+00 SP= 0.00E+00 SK= 0.00E+00
       N       E                     dE             d eps       ncg     rms          rms(c)
RMM:   1    -0.413159745510E+03    0.89082E-02   -0.11221E+01  4293   0.759E-01    0.895E-01
RMM:   2    -0.413170270878E+03   -0.10525E-01   -0.13705E-01  4251   0.985E-02    0.632E-01
RMM:   3    -0.413169506566E+03    0.76431E-03   -0.65219E-03  4902   0.411E-02    0.176E-01
RMM:   4    -0.413205020316E+03   -0.35514E-01   -0.36643E-02  5141   0.158E-01    0.783E-01
RMM:   5    -0.413168946196E+03    0.36074E-01   -0.17713E-02  4802   0.131E-01    0.392E-02
RMM:   6    -0.413169148273E+03   -0.20208E-03   -0.27792E-03  5776   0.509E-02    0.188E-02
RMM:   7    -0.413169159622E+03   -0.11350E-04   -0.32585E-04  5888   0.149E-02    0.143E-02
RMM:   8    -0.413169157937E+03    0.16854E-05   -0.41263E-05  4521   0.561E-03    0.918E-03
RMM:   9    -0.413169153933E+03    0.40041E-05   -0.67613E-06  3015   0.287E-03    0.626E-03
RMM:  10    -0.413169150551E+03    0.33819E-05   -0.22150E-06  2552   0.220E-03    0.312E-03
RMM:  11    -0.413169148116E+03    0.24346E-05   -0.15756E-06  2535   0.189E-03    0.152E-03
RMM:  12    -0.413169146273E+03    0.18429E-05   -0.76124E-07  2444   0.141E-03    0.512E-04
RMM:  13    -0.413169145590E+03    0.68334E-06   -0.33525E-07  2116   0.971E-04
   17 T=    62. E= -.41286655E+03 F= -.41316915E+03 E0= -.41314699E+03  EK= 0.30259E+00 SP= 0.00E+00 SK= 0.00E+00
       N       E                     dE             d eps       ncg     rms          rms(c)
RMM:   1    -0.413159931813E+03    0.92145E-02   -0.11305E+01  4297   0.768E-01    0.890E-01
RMM:   2    -0.413171388334E+03   -0.11457E-01   -0.13968E-01  4260   0.101E-01    0.644E-01
RMM:   3    -0.413170048765E+03    0.13396E-02   -0.63486E-03  4871   0.390E-02    0.169E-01
RMM:   4    -0.413202374885E+03   -0.32326E-01   -0.33336E-02  5147   0.152E-01    0.748E-01
RMM:   5    -0.413169453238E+03    0.32922E-01   -0.16180E-02  4801   0.125E-01    0.367E-02
RMM:   6    -0.413169643372E+03   -0.19013E-03   -0.25610E-03  5787   0.488E-02    0.175E-02
RMM:   7    -0.413169657224E+03   -0.13852E-04   -0.29621E-04  5867   0.143E-02    0.135E-02
RMM:   8    -0.413169658163E+03   -0.93877E-06   -0.38502E-05  4494   0.546E-03    0.874E-03
RMM:   9    -0.413169657114E+03    0.10487E-05   -0.63619E-06  2996   0.286E-03    0.596E-03
RMM:  10    -0.413169657619E+03   -0.50483E-06   -0.22124E-06  2563   0.217E-03
   18 T=    62. E= -.41286638E+03 F= -.41316966E+03 E0= -.41314754E+03  EK= 0.30328E+00 SP= 0.00E+00 SK= 0.00E+00
       N       E                     dE             d eps       ncg     rms          rms(c)
RMM:   1    -0.413161637387E+03    0.80197E-02   -0.11364E+01  4306   0.772E-01    0.915E-01
RMM:   2    -0.413171748416E+03   -0.10111E-01   -0.13817E-01  4300   0.101E-01    0.639E-01
RMM:   3    -0.413174597108E+03   -0.28487E-02   -0.96679E-03  5133   0.672E-02    0.307E-01
RMM:   4    -0.413200430183E+03   -0.25833E-01   -0.41674E-02  5089   0.171E-01    0.717E-01
RMM:   5    -0.413170680736E+03    0.29749E-01   -0.12473E-02  4714   0.119E-01    0.497E-02
RMM:   6    -0.413170747837E+03   -0.67101E-04   -0.20997E-03  5598   0.449E-02    0.164E-02
RMM:   7    -0.413170762684E+03   -0.14847E-04   -0.27407E-04  6004   0.142E-02    0.119E-02
RMM:   8    -0.413170760523E+03    0.21612E-05   -0.34712E-05  4554   0.537E-03    0.701E-03
RMM:   9    -0.413170752793E+03    0.77301E-05   -0.59356E-06  2853   0.327E-03    0.324E-03
RMM:  10    -0.413170749172E+03    0.36202E-05   -0.18828E-06  2540   0.201E-03    0.185E-03
RMM:  11    -0.413170745391E+03    0.37816E-05   -0.86879E-07  2513   0.144E-03    0.881E-04
RMM:  12    -0.413170742963E+03    0.24280E-05   -0.44496E-07  1952   0.103E-03    0.432E-04
RMM:  13    -0.413170740169E+03    0.27934E-05   -0.33213E-07  1873   0.905E-04    0.229E-04
RMM:  14    -0.413170738505E+03    0.16644E-05   -0.18962E-07  1420   0.730E-04    0.130E-04
RMM:  15    -0.413170735575E+03    0.29305E-05   -0.20898E-07  1604   0.751E-04    0.107E-04
RMM:  16    -0.413170734019E+03    0.15556E-05   -0.11721E-07  1237   0.638E-04    0.843E-05
RMM:  17    -0.413170731842E+03    0.21769E-05   -0.10789E-07  1256   0.637E-04    0.434E-05
RMM:  18    -0.413170730237E+03    0.16049E-05   -0.68092E-08  1029   0.575E-04    0.245E-05
RMM:  19    -0.413170729851E+03    0.38647E-06   -0.33305E-08   812   0.529E-04
   19 T=    62. E= -.41286656E+03 F= -.41317073E+03 E0= -.41314865E+03  EK= 0.30417E+00 SP= 0.00E+00 SK= 0.00E+00
       N       E                     dE             d eps       ncg     rms          rms(c)
RMM:   1    -0.413162030365E+03    0.86999E-02   -0.11313E+01  4299   0.782E-01    0.905E-01
RMM:   2    -0.413172359246E+03   -0.10329E-01   -0.13722E-01  4251   0.990E-02    0.633E-01
RMM:   3    -0.413171833121E+03    0.52613E-03   -0.66927E-03  4965   0.411E-02    0.186E-01
RMM:   4    -0.413211427088E+03   -0.39594E-01   -0.41671E-02  5141   0.169E-01    0.826E-01
RMM:   5    -0.413171107526E+03    0.40320E-01   -0.19800E-02  4794   0.139E-01    0.425E-02
RMM:   6    -0.413171316544E+03   -0.20902E-03   -0.31234E-03  5753   0.542E-02    0.196E-02
RMM:   7    -0.413171330641E+03   -0.14096E-04   -0.36989E-04  5879   0.158E-02    0.150E-02
RMM:   8    -0.413171327826E+03    0.28145E-05   -0.47090E-05  4693   0.594E-03    0.961E-03
RMM:   9    -0.413171322049E+03    0.57778E-05   -0.74919E-06  3071   0.297E-03    0.648E-03
RMM:  10    -0.413171316420E+03    0.56282E-05   -0.23777E-06  2554   0.227E-03    0.319E-03
RMM:  11    -0.413171312375E+03    0.40449E-05   -0.15655E-06  2527   0.191E-03    0.156E-03
RMM:  12    -0.413171309402E+03    0.29735E-05   -0.79040E-07  2457   0.145E-03    0.502E-04
RMM:  13    -0.413171308365E+03    0.10365E-05   -0.34219E-07  2139   0.994E-04    0.324E-04
RMM:  14    -0.413171307123E+03    0.12428E-05   -0.18960E-07  1644   0.778E-04    0.184E-04
RMM:  15    -0.413171304701E+03    0.24213E-05   -0.17643E-07  1552   0.748E-04    0.133E-04
RMM:  16    -0.413171304226E+03    0.47583E-06   -0.70301E-08  1040   0.614E-04
   20 T=    62. E= -.41286639E+03 F= -.41317130E+03 E0= -.41314927E+03  EK= 0.30492E+00 SP= 0.00E+00 SK= 0.00E+00
       N       E                     dE             d eps       ncg     rms          rms(c)
RMM:   1    -0.413162502550E+03    0.88022E-02   -0.11357E+01  4296   0.783E-01    0.891E-01
RMM:   2    -0.413173623501E+03   -0.11121E-01   -0.14141E-01  4267   0.103E-01    0.644E-01
RMM:   3    -0.413172527330E+03    0.10962E-02   -0.64633E-03  4910   0.407E-02    0.175E-01
RMM:   4    -0.413209157508E+03   -0.36630E-01   -0.38081E-02  5139   0.162E-01    0.795E-01
RMM:   5    -0.413171822277E+03    0.37335E-01   -0.18412E-02  4798   0.133E-01    0.390E-02
RMM:   6    -0.413172024039E+03   -0.20176E-03   -0.29141E-03  5793   0.523E-02    0.181E-02
RMM:   7    -0.413172040262E+03   -0.16223E-04   -0.33657E-04  5886   0.152E-02    0.141E-02
RMM:   8    -0.413172040554E+03   -0.29229E-06   -0.44124E-05  4609   0.576E-03    0.923E-03
RMM:   9    -0.413172038244E+03    0.23103E-05   -0.70950E-06  3044   0.296E-03    0.636E-03
RMM:  10    -0.413172037171E+03    0.10726E-05   -0.23662E-06  2561   0.228E-03    0.321E-03
RMM:  11    -0.413172036552E+03    0.61965E-06   -0.17256E-06  2542   0.196E-03
   21 T=    62. E= -.41286629E+03 F= -.41317204E+03 E0= -.41315005E+03  EK= 0.30575E+00 SP= 0.00E+00 SK= 0.00E+00
       N       E                     dE             d eps       ncg     rms          rms(c)
RMM:   1    -0.413163905113E+03    0.81321E-02   -0.11436E+01  4298   0.792E-01    0.913E-01
RMM:   2    -0.413174418165E+03   -0.10513E-01   -0.14012E-01  4293   0.100E-01    0.643E-01
RMM:   3    -0.413174500088E+03   -0.81923E-04   -0.73021E-03  5030   0.495E-02    0.214E-01
RMM:   4    -0.413219749526E+03   -0.45249E-01   -0.50976E-02  5130   0.187E-01    0.886E-01
RMM:   5    -0.413173135402E+03    0.46614E-01   -0.22250E-02  4783   0.149E-01    0.471E-02
RMM:   6    -0.413173347102E+03   -0.21170E-03   -0.35043E-03  5744   0.583E-02    0.190E-02
RMM:   7    -0.413173366082E+03   -0.18980E-04   -0.42362E-04  5966   0.169E-02    0.153E-02
RMM:   8    -0.413173363787E+03    0.22952E-05   -0.53163E-05  4816   0.621E-03    0.975E-03
RMM:   9    -0.413173357677E+03    0.61100E-05   -0.79192E-06  3078   0.303E-03    0.609E-03
RMM:  10    -0.413173352047E+03    0.56294E-05   -0.26770E-06  2574   0.236E-03    0.289E-03
RMM:  11    -0.413173347865E+03    0.41823E-05   -0.14309E-06  2515   0.183E-03    0.138E-03
RMM:  12    -0.413173344565E+03    0.32998E-05   -0.74606E-07  2454   0.139E-03    0.454E-04
RMM:  13    -0.413173342863E+03    0.17018E-05   -0.33886E-07  2101   0.974E-04    0.299E-04
RMM:  14    -0.413173340521E+03    0.23429E-05   -0.21981E-07  1652   0.799E-04    0.193E-04
RMM:  15    -0.413173338204E+03    0.23163E-05   -0.15402E-07  1437   0.719E-04    0.113E-04
RMM:  16    -0.413173337259E+03    0.94478E-06   -0.84429E-08  1148   0.631E-04
   22 T=    62. E= -.41286671E+03 F= -.41317334E+03 E0= -.41315139E+03  EK= 0.30663E+00 SP= 0.00E+00 SK= 0.00E+00
       N       E                     dE             d eps       ncg     rms          rms(c)
RMM:   1    -0.413164769136E+03    0.85691E-02   -0.11421E+01  4299   0.791E-01    0.915E-01
RMM:   2    -0.413175007724E+03   -0.10239E-01   -0.13856E-01  4281   0.106E-01    0.636E-01
RMM:   3    -0.413174489481E+03    0.51824E-03   -0.68397E-03  4887   0.443E-02    0.184E-01
RMM:   4    -0.413212068680E+03   -0.37579E-01   -0.39018E-02  5139   0.164E-01    0.805E-01
RMM:   5    -0.413173779433E+03    0.38289E-01   -0.18807E-02  4798   0.136E-01    0.410E-02
RMM:   6    -0.413173985196E+03   -0.20576E-03   -0.30374E-03  5782   0.533E-02    0.202E-02
RMM:   7    -0.413173995743E+03   -0.10547E-04   -0.34552E-04  5882   0.155E-02    0.151E-02
RMM:   8    -0.413173991644E+03    0.40994E-05   -0.45825E-05  4682   0.596E-03    0.994E-03
RMM:   9    -0.413173984053E+03    0.75907E-05   -0.74070E-06  3076   0.308E-03    0.676E-03
RMM:  10    -0.413173976257E+03    0.77964E-05   -0.23894E-06  2559   0.237E-03    0.342E-03
RMM:  11    -0.413173969865E+03    0.63921E-05   -0.16854E-06  2527   0.201E-03    0.169E-03
RMM:  12    -0.413173965280E+03    0.45845E-05   -0.82222E-07  2462   0.150E-03    0.550E-04
RMM:  13    -0.413173963742E+03    0.15386E-05   -0.35461E-07  2147   0.101E-03    0.353E-04
RMM:  14    -0.413173961967E+03    0.17749E-05   -0.19213E-07  1666   0.785E-04    0.203E-04
RMM:  15    -0.413173957937E+03    0.40298E-05   -0.19158E-07  1719   0.777E-04    0.187E-04
RMM:  16    -0.413173957282E+03    0.65495E-06   -0.71768E-08  1048   0.603E-04
   23 T=    63. E= -.41286649E+03 F= -.41317396E+03 E0= -.41315206E+03  EK= 0.30747E+00 SP= 0.00E+00 SK= 0.00E+00
       N       E                     dE             d eps       ncg     rms          rms(c)
RMM:   1    -0.413165684472E+03    0.82735E-02   -0.11419E+01  4295   0.794E-01    0.893E-01
RMM:   2    -0.413177206824E+03   -0.11522E-01   -0.14221E-01  4279   0.105E-01    0.644E-01
RMM:   3    -0.413175858208E+03    0.13486E-02   -0.63181E-03  4820   0.409E-02    0.171E-01
RMM:   4    -0.413205545507E+03   -0.29687E-01   -0.30360E-02  5152   0.145E-01    0.717E-01
RMM:   5    -0.413175399320E+03    0.30146E-01   -0.14986E-02  4803   0.120E-01    0.347E-02
RMM:   6    -0.413175566574E+03   -0.16725E-03   -0.23782E-03  5784   0.469E-02    0.175E-02
RMM:   7    -0.413175577808E+03   -0.11234E-04   -0.26002E-04  5817   0.136E-02    0.128E-02
RMM:   8    -0.413175576884E+03    0.92407E-06   -0.36760E-05  4550   0.540E-03    0.890E-03
RMM:   9    -0.413175572617E+03    0.42674E-05   -0.64684E-06  3059   0.294E-03    0.608E-03
RMM:  10    -0.413175569817E+03    0.27997E-05   -0.19736E-06  2551   0.214E-03    0.319E-03
RMM:  11    -0.413175567570E+03    0.22464E-05   -0.15882E-06  2535   0.192E-03    0.159E-03
RMM:  12    -0.413175565836E+03    0.17343E-05   -0.71987E-07  2431   0.139E-03    0.562E-04
RMM:  13    -0.413175565276E+03    0.56065E-06   -0.30170E-07  2060   0.938E-04
   24 T=    63. E= -.41286679E+03 F= -.41317557E+03 E0= -.41315372E+03  EK= 0.30878E+00 SP= 0.00E+00 SK= 0.00E+00
       N       E                     dE             d eps       ncg     rms          rms(c)
RMM:   1    -0.413166990728E+03    0.85751E-02   -0.11535E+01  4294   0.805E-01    0.910E-01
RMM:   2    -0.413178119005E+03   -0.11128E-01   -0.14191E-01  4273   0.107E-01    0.648E-01
RMM:   3    -0.413176835594E+03    0.12834E-02   -0.64952E-03  4786   0.429E-02    0.173E-01
RMM:   4    -0.413206527251E+03   -0.29692E-01   -0.30149E-02  5152   0.145E-01    0.717E-01
RMM:   5    -0.413176413344E+03    0.30114E-01   -0.14909E-02  4807   0.120E-01    0.349E-02
RMM:   6    -0.413176578040E+03   -0.16470E-03   -0.23790E-03  5805   0.467E-02    0.180E-02
RMM:   7    -0.413176587655E+03   -0.96152E-05   -0.25324E-04  5793   0.135E-02    0.128E-02
RMM:   8    -0.413176585373E+03    0.22824E-05   -0.36759E-05  4575   0.543E-03    0.909E-03
RMM:   9    -0.413176579343E+03    0.60293E-05   -0.66821E-06  3099   0.302E-03    0.616E-03
RMM:  10    -0.413176574614E+03    0.47292E-05   -0.19935E-06  2555   0.220E-03    0.324E-03
RMM:  11    -0.413176570331E+03    0.42828E-05   -0.16079E-06  2530   0.195E-03    0.160E-03
RMM:  12    -0.413176567360E+03    0.29712E-05   -0.71185E-07  2430   0.140E-03    0.542E-04
RMM:  13    -0.413176566410E+03    0.95025E-06   -0.29938E-07  2065   0.935E-04
   25 T=    63. E= -.41286666E+03 F= -.41317657E+03 E0= -.41315477E+03  EK= 0.30991E+00 SP= 0.00E+00 SK= 0.00E+00
       N       E                     dE             d eps       ncg     rms          rms(c)
RMM:   1    -0.413168237929E+03    0.83294E-02   -0.11560E+01  4295   0.811E-01    0.924E-01
RMM:   2    -0.413178424722E+03   -0.10187E-01   -0.14106E-01  4274   0.110E-01    0.640E-01
RMM:   3    -0.413177809463E+03    0.61526E-03   -0.67581E-03  4704   0.415E-02    0.174E-01
RMM:   4    -0.413201862523E+03   -0.24053E-01   -0.24313E-02  5151   0.130E-01    0.647E-01
RMM:   5    -0.413177464207E+03    0.24398E-01   -0.12189E-02  4811   0.108E-01    0.329E-02
RMM:   6    -0.413177587464E+03   -0.12326E-03   -0.19063E-03  5811   0.416E-02    0.178E-02
RMM:   7    -0.413177590946E+03   -0.34827E-05   -0.19049E-04  5603   0.120E-02    0.113E-02
RMM:   8    -0.413177585069E+03    0.58770E-05   -0.27069E-05  4192   0.475E-03    0.813E-03
RMM:   9    -0.413177577083E+03    0.79868E-05   -0.62396E-06  3078   0.293E-03    0.557E-03
RMM:  10    -0.413177569899E+03    0.71836E-05   -0.16627E-06  2531   0.210E-03    0.311E-03
RMM:  11    -0.413177561169E+03    0.87301E-05   -0.15339E-06  2531   0.192E-03    0.150E-03
RMM:  12    -0.413177555658E+03    0.55108E-05   -0.61895E-07  2415   0.136E-03    0.537E-04
RMM:  13    -0.413177553984E+03    0.16744E-05   -0.25558E-07  1994   0.894E-04    0.336E-04
RMM:  14    -0.413177551413E+03    0.25704E-05   -0.14147E-07  1490   0.728E-04    0.179E-04
RMM:  15    -0.413177546289E+03    0.51246E-05   -0.16611E-07  1756   0.760E-04    0.257E-04
RMM:  16    -0.413177545496E+03    0.79299E-06   -0.49718E-08   928   0.568E-04
   26 T=    63. E= -.41286635E+03 F= -.41317755E+03 E0= -.41315580E+03  EK= 0.31120E+00 SP= 0.00E+00 SK= 0.00E+00
       N       E                     dE             d eps       ncg     rms          rms(c)
RMM:   1    -0.413169518009E+03    0.80283E-02   -0.11535E+01  4292   0.813E-01    0.900E-01
RMM:   2    -0.413180782005E+03   -0.11264E-01   -0.14273E-01  4273   0.105E-01    0.644E-01
RMM:   3    -0.413179745849E+03    0.10362E-02   -0.63755E-03  4657   0.406E-02    0.169E-01
RMM:   4    -0.413198479684E+03   -0.18734E-01   -0.18936E-02  5160   0.115E-01    0.572E-01
RMM:   5    -0.413179521956E+03    0.18958E-01   -0.94721E-03  4815   0.948E-02    0.282E-02
RMM:   6    -0.413179614577E+03   -0.92621E-04   -0.14758E-03  5836   0.362E-02    0.155E-02
RMM:   7    -0.413179619201E+03   -0.46241E-05   -0.14126E-04  5453   0.105E-02    0.961E-03
RMM:   8    -0.413179614574E+03    0.46267E-05   -0.17215E-05  3592   0.390E-03    0.637E-03
RMM:   9    -0.413179609248E+03    0.53261E-05   -0.33574E-06  2651   0.238E-03    0.360E-03
RMM:  10    -0.413179607686E+03    0.15619E-05   -0.12990E-06  2517   0.173E-03    0.257E-03
RMM:  11    -0.413179603276E+03    0.44101E-05   -0.10012E-06  2497   0.167E-03    0.123E-03
RMM:  12    -0.413179601032E+03    0.22444E-05   -0.46533E-07  2302   0.116E-03    0.479E-04
RMM:  13    -0.413179600086E+03    0.94572E-06   -0.20729E-07  1675   0.810E-04
   27 T=    64. E= -.41286669E+03 F= -.41317960E+03 E0= -.41315790E+03  EK= 0.31291E+00 SP= 0.00E+00 SK= 0.00E+00
       N       E                     dE             d eps       ncg     rms          rms(c)
RMM:   1    -0.413173146721E+03    0.64543E-02   -0.11695E+01  4289   0.841E-01    0.909E-01
RMM:   2    -0.413181872342E+03   -0.87256E-02   -0.14677E-01  4272   0.108E-01    0.655E-01
RMM:   3    -0.413180701920E+03    0.11704E-02   -0.64780E-03  4499   0.412E-02    0.166E-01
RMM:   4    -0.413190817153E+03   -0.10115E-01   -0.10614E-02  5153   0.885E-02    0.425E-01
RMM:   5    -0.413180463978E+03    0.10353E-01   -0.50947E-03  4820   0.697E-02    0.224E-02
RMM:   6    -0.413180501257E+03   -0.37279E-04   -0.80677E-04  5851   0.265E-02    0.137E-02
RMM:   7    -0.413180503646E+03   -0.23891E-05   -0.86711E-05  5355   0.867E-03    0.924E-03
RMM:   8    -0.413180497805E+03    0.58412E-05   -0.13703E-05  3776   0.395E-03    0.547E-03
RMM:   9    -0.413180494643E+03    0.31619E-05   -0.28642E-06  2681   0.243E-03    0.363E-03
RMM:  10    -0.413180491249E+03    0.33944E-05   -0.88252E-07  2497   0.157E-03    0.208E-03
RMM:  11    -0.413180487561E+03    0.36883E-05   -0.77201E-07  2476   0.138E-03    0.998E-04
RMM:  12    -0.413180484587E+03    0.29735E-05   -0.41842E-07  2197   0.104E-03    0.359E-04
RMM:  13    -0.413180483696E+03    0.89073E-06   -0.16182E-07  1426   0.728E-04
   28 T=    64. E= -.41286619E+03 F= -.41318048E+03 E0= -.41315884E+03  EK= 0.31429E+00 SP= 0.00E+00 SK= 0.00E+00
       N       E                     dE             d eps       ncg     rms          rms(c)
RMM:   1    -0.413173382446E+03    0.71021E-02   -0.11743E+01  4287   0.840E-01    0.933E-01
RMM:   2    -0.413183594317E+03   -0.10212E-01   -0.14391E-01  4272   0.113E-01    0.647E-01
RMM:   3    -0.413182788655E+03    0.80566E-03   -0.68346E-03  4352   0.408E-02    0.170E-01
RMM:   4    -0.413186604205E+03   -0.38155E-02   -0.43334E-03  5160   0.561E-02    0.259E-01
RMM:   5    -0.413182831896E+03    0.37723E-02   -0.18540E-03  4826   0.423E-02    0.213E-02
RMM:   6    -0.413182831613E+03    0.28260E-06   -0.31277E-04  5764   0.175E-02    0.152E-02
RMM:   7    -0.413182822064E+03    0.95495E-05   -0.52804E-05  5042   0.740E-03    0.698E-03
RMM:   8    -0.413182812390E+03    0.96739E-05   -0.60169E-06  2951   0.312E-03    0.319E-03
RMM:   9    -0.413182807323E+03    0.50672E-05   -0.11413E-06  2519   0.175E-03    0.211E-03
RMM:  10    -0.413182800271E+03    0.70519E-05   -0.65075E-07  2416   0.129E-03    0.114E-03
RMM:  11    -0.413182794152E+03    0.61185E-05   -0.40929E-07  2121   0.102E-03    0.433E-04
RMM:  12    -0.413182789698E+03    0.44540E-05   -0.21842E-07  1601   0.809E-04    0.187E-04
RMM:  13    -0.413182786288E+03    0.34100E-05   -0.13579E-07  1340   0.704E-04    0.106E-04
RMM:  14    -0.413182781612E+03    0.46762E-05   -0.12158E-07  1440   0.698E-04    0.944E-05
RMM:  15    -0.413182777970E+03    0.36418E-05   -0.91148E-08  1310   0.637E-04    0.900E-05
RMM:  16    -0.413182775880E+03    0.20900E-05   -0.55341E-08  1017   0.568E-04    0.361E-05
RMM:  17    -0.413182774176E+03    0.17046E-05   -0.43486E-08   961   0.552E-04    0.238E-05
RMM:  18    -0.413182773805E+03    0.37038E-06   -0.20529E-08   732   0.509E-04
   29 T=    64. E= -.41286670E+03 F= -.41318277E+03 E0= -.41316118E+03  EK= 0.31607E+00 SP= 0.00E+00 SK= 0.00E+00
       N       E                     dE             d eps       ncg     rms          rms(c)
RMM:   1    -0.413174615326E+03    0.81588E-02   -0.11699E+01  4287   0.844E-01    0.910E-01
RMM:   2    -0.413185688016E+03   -0.11073E-01   -0.14642E-01  4269   0.110E-01    0.646E-01
RMM:   3    -0.413184571842E+03    0.11162E-02   -0.64772E-03  4456   0.431E-02    0.171E-01
RMM:   4    -0.413192896525E+03   -0.83247E-02   -0.88371E-03  5146   0.815E-02    0.386E-01
RMM:   5    -0.413184411103E+03    0.84854E-02   -0.42174E-03  4825   0.632E-02    0.221E-02
RMM:   6    -0.413184432694E+03   -0.21591E-04   -0.65812E-04  5833   0.241E-02    0.145E-02
RMM:   7    -0.413184430943E+03    0.17514E-05   -0.81936E-05  5337   0.863E-03    0.931E-03
RMM:   8    -0.413184423188E+03    0.77543E-05   -0.10630E-05  3387   0.381E-03    0.466E-03
RMM:   9    -0.413184418527E+03    0.46612E-05   -0.22942E-06  2621   0.226E-03    0.298E-03
RMM:  10    -0.413184413887E+03    0.46404E-05   -0.81668E-07  2493   0.148E-03    0.171E-03
RMM:  11    -0.413184409252E+03    0.46348E-05   -0.56625E-07  2382   0.121E-03    0.735E-04
RMM:  12    -0.413184405805E+03    0.34470E-05   -0.30507E-07  1969   0.925E-04    0.259E-04
RMM:  13    -0.413184404245E+03    0.15593E-05   -0.14366E-07  1327   0.712E-04    0.154E-04
RMM:  14    -0.413184401628E+03    0.26175E-05   -0.10914E-07  1261   0.681E-04    0.985E-05
RMM:  15    -0.413184399071E+03    0.25569E-05   -0.84332E-08  1217   0.651E-04    0.747E-05
RMM:  16    -0.413184397902E+03    0.11695E-05   -0.48352E-08   969   0.588E-04    0.529E-05
RMM:  17    -0.413184394990E+03    0.29118E-05   -0.67006E-08  1256   0.622E-04    0.396E-05
RMM:  18    -0.413184394356E+03    0.63406E-06   -0.25565E-08   781   0.522E-04
   30 T=    65. E= -.41286667E+03 F= -.41318439E+03 E0= -.41316285E+03  EK= 0.31772E+00 SP= 0.00E+00 SK= 0.00E+00
       N       E                     dE             d eps       ncg     rms          rms(c)
RMM:   1    -0.413176970992E+03    0.74240E-02   -0.11836E+01  4289   0.883E-01    0.911E-01
RMM:   2    -0.413188225061E+03   -0.11254E-01   -0.15145E-01  4272   0.120E-01    0.660E-01
RMM:   3    -0.413186227809E+03    0.19973E-02   -0.63178E-03  4409   0.405E-02    0.168E-01
RMM:   4    -0.413191219845E+03   -0.49920E-02   -0.56406E-03  5144   0.643E-02    0.297E-01
RMM:   5    -0.413186214419E+03    0.50054E-02   -0.24906E-03  4819   0.485E-02    0.192E-02
RMM:   6    -0.413186221130E+03   -0.67108E-05   -0.38950E-04  5782   0.190E-02    0.134E-02
RMM:   7    -0.413186219435E+03    0.16952E-05   -0.56464E-05  5071   0.744E-03    0.744E-03
RMM:   8    -0.413186214040E+03    0.53945E-05   -0.76628E-06  3100   0.340E-03    0.344E-03
RMM:   9    -0.413186211809E+03    0.22311E-05   -0.14893E-06  2555   0.191E-03    0.215E-03
RMM:  10    -0.413186209038E+03    0.27712E-05   -0.64590E-07  2370   0.126E-03    0.125E-03
RMM:  11    -0.413186206166E+03    0.28725E-05   -0.44948E-07  2176   0.104E-03    0.472E-04
RMM:  12    -0.413186204098E+03    0.20677E-05   -0.24087E-07  1650   0.822E-04    0.194E-04
RMM:  13    -0.413186202671E+03    0.14267E-05   -0.13359E-07  1222   0.694E-04    0.121E-04
RMM:  14    -0.413186200850E+03    0.18213E-05   -0.10773E-07  1271   0.674E-04    0.683E-05
RMM:  15    -0.413186198991E+03    0.18584E-05   -0.84633E-08  1206   0.637E-04    0.670E-05
RMM:  16    -0.413186197997E+03    0.99488E-06   -0.46694E-08   941   0.571E-04
   31 T=    65. E= -.41286671E+03 F= -.41318620E+03 E0= -.41316470E+03  EK= 0.31949E+00 SP= 0.00E+00 SK= 0.00E+00
       N       E                     dE             d eps       ncg     rms          rms(c)
RMM:   1    -0.413186498770E+03   -0.29978E-03   -0.12012E+01  4294   0.918E-01    0.938E-01
RMM:   2    -0.413189911323E+03   -0.34126E-02   -0.15276E-01  4267   0.118E-01    0.655E-01
RMM:   3    -0.413188987702E+03    0.92362E-03   -0.69103E-03  4294   0.497E-02    0.177E-01
RMM:   4    -0.413191691202E+03   -0.27035E-02   -0.34141E-03  5115   0.523E-02    0.218E-01
RMM:   5    -0.413189015320E+03    0.26759E-02   -0.12813E-03  4795   0.357E-02    0.209E-02
RMM:   6    -0.413189008225E+03    0.70946E-05   -0.23196E-04  5715   0.154E-02    0.151E-02
RMM:   7    -0.413188995364E+03    0.12861E-04   -0.41563E-05  4771   0.683E-03    0.586E-03
RMM:   8    -0.413188986182E+03    0.91818E-05   -0.55114E-06  2963   0.312E-03    0.295E-03
RMM:   9    -0.413188982119E+03    0.40629E-05   -0.88425E-07  2492   0.169E-03    0.180E-03
RMM:  10    -0.413188974973E+03    0.71464E-05   -0.54634E-07  2328   0.118E-03    0.938E-04
RMM:  11    -0.413188969776E+03    0.51972E-05   -0.30231E-07  1865   0.906E-04    0.381E-04
RMM:  12    -0.413188964966E+03    0.48100E-05   -0.19224E-07  1613   0.781E-04    0.168E-04
RMM:  13    -0.413188961407E+03    0.35581E-05   -0.11594E-07  1263   0.677E-04    0.995E-05
RMM:  14    -0.413188957961E+03    0.34464E-05   -0.88977E-08  1252   0.645E-04    0.678E-05
RMM:  15    -0.413188952987E+03    0.49745E-05   -0.88823E-08  1324   0.652E-04    0.627E-05
RMM:  16    -0.413188951323E+03    0.16639E-05   -0.43232E-08   931   0.562E-04    0.429E-05
RMM:  17    -0.413188949731E+03    0.15913E-05   -0.35660E-08   914   0.548E-04    0.199E-05
RMM:  18    -0.413188949331E+03    0.40017E-06   -0.19139E-08   709   0.505E-04
   32 T=    66. E= -.41286716E+03 F= -.41318895E+03 E0= -.41316750E+03  EK= 0.32179E+00 SP= 0.00E+00 SK= 0.00E+00
       N       E                     dE             d eps       ncg     rms          rms(c)
RMM:   1    -0.413186272392E+03    0.26773E-02   -0.11967E+01  4292   0.930E-01    0.924E-01
RMM:   2    -0.413192273525E+03   -0.60011E-02   -0.15464E-01  4273   0.131E-01    0.651E-01
RMM:   3    -0.413190878895E+03    0.13946E-02   -0.63926E-03  4236   0.389E-02    0.179E-01
RMM:   4    -0.413192063448E+03   -0.11846E-02   -0.21440E-03  5090   0.396E-02    0.147E-01
RMM:   5    -0.413190851625E+03    0.12118E-02   -0.58377E-04  4775   0.244E-02    0.193E-02
RMM:   6    -0.413190842253E+03    0.93722E-05   -0.13034E-04  5544   0.118E-02    0.141E-02
RMM:   7    -0.413190829602E+03    0.12651E-04   -0.27425E-05  4371   0.579E-03    0.462E-03
RMM:   8    -0.413190821925E+03    0.76772E-05   -0.42512E-06  2824   0.286E-03    0.262E-03
RMM:   9    -0.413190818873E+03    0.30522E-05   -0.67283E-07  2453   0.156E-03    0.155E-03
RMM:  10    -0.413190812480E+03    0.63924E-05   -0.45585E-07  2227   0.108E-03    0.771E-04
RMM:  11    -0.413190807439E+03    0.50415E-05   -0.24674E-07  1679   0.819E-04    0.291E-04
RMM:  12    -0.413190803538E+03    0.39011E-05   -0.14979E-07  1477   0.725E-04    0.162E-04
RMM:  13    -0.413190799475E+03    0.40628E-05   -0.99509E-08  1206   0.659E-04    0.855E-05
RMM:  14    -0.413190795675E+03    0.37996E-05   -0.78067E-08  1188   0.632E-04    0.697E-05
RMM:  15    -0.413190792795E+03    0.28802E-05   -0.50429E-08   990   0.580E-04    0.443E-05
RMM:  16    -0.413190789457E+03    0.33379E-05   -0.53371E-08  1123   0.592E-04    0.437E-05
RMM:  17    -0.413190789153E+03    0.30377E-06   -0.18278E-08   667   0.502E-04
   33 T=    66. E= -.41286682E+03 F= -.41319079E+03 E0= -.41316939E+03  EK= 0.32396E+00 SP= 0.00E+00 SK= 0.00E+00
       N       E                     dE             d eps       ncg     rms          rms(c)
RMM:   1    -0.413185430473E+03    0.53590E-02   -0.12070E+01  4291   0.922E-01    0.916E-01
RMM:   2    -0.413194954408E+03   -0.95239E-02   -0.15713E-01  4263   0.126E-01    0.665E-01
RMM:   3    -0.413193313449E+03    0.16410E-02   -0.63405E-03  4389   0.442E-02    0.176E-01
RMM:   4    -0.413198322670E+03   -0.50092E-02   -0.56656E-03  5151   0.667E-02    0.299E-01
RMM:   5    -0.413193314404E+03    0.50083E-02   -0.24304E-03  4797   0.489E-02    0.206E-02
RMM:   6    -0.413193303409E+03    0.10994E-04   -0.39455E-04  5739   0.202E-02    0.138E-02
RMM:   7    -0.413193302033E+03    0.13769E-05   -0.57220E-05  5051   0.778E-03    0.743E-03
RMM:   8    -0.413193296688E+03    0.53441E-05   -0.90668E-06  3309   0.365E-03    0.360E-03
RMM:   9    -0.413193294104E+03    0.25847E-05   -0.15956E-06  2561   0.202E-03    0.205E-03
RMM:  10    -0.413193290935E+03    0.31692E-05   -0.65522E-07  2377   0.129E-03    0.116E-03
RMM:  11    -0.413193287515E+03    0.34199E-05   -0.44922E-07  2207   0.106E-03    0.491E-04
RMM:  12    -0.413193284739E+03    0.27755E-05   -0.26218E-07  1717   0.840E-04    0.201E-04
RMM:  13    -0.413193283192E+03    0.15476E-05   -0.13321E-07  1196   0.689E-04    0.126E-04
RMM:  14    -0.413193281456E+03    0.17357E-05   -0.10003E-07  1142   0.656E-04    0.671E-05
RMM:  15    -0.413193279149E+03    0.23072E-05   -0.86758E-08  1171   0.650E-04    0.576E-05
RMM:  16    -0.413193278554E+03    0.59415E-06   -0.42207E-08   846   0.580E-04
   34 T=    66. E= -.41286692E+03 F= -.41319328E+03 E0= -.41317193E+03  EK= 0.32636E+00 SP= 0.00E+00 SK= 0.00E+00
       N       E                     dE             d eps       ncg     rms          rms(c)
RMM:   1    -0.413187472374E+03    0.58068E-02   -0.12188E+01  4299   0.955E-01    0.942E-01
RMM:   2    -0.413197195225E+03   -0.97229E-02   -0.15868E-01  4258   0.135E-01    0.664E-01
RMM:   3    -0.413196035326E+03    0.11599E-02   -0.66493E-03  4521   0.441E-02    0.184E-01
RMM:   4    -0.413206159267E+03   -0.10124E-01   -0.10642E-02  5165   0.881E-02    0.428E-01
RMM:   5    -0.413195815690E+03    0.10344E-01   -0.52609E-03  4816   0.706E-02    0.255E-02
RMM:   6    -0.413195806694E+03    0.89961E-05   -0.83088E-04  5794   0.279E-02    0.156E-02
RMM:   7    -0.413195804903E+03    0.17913E-05   -0.10974E-04  5428   0.949E-03    0.978E-03
RMM:   8    -0.413195796312E+03    0.85907E-05   -0.14259E-05  3708   0.408E-03    0.510E-03
RMM:   9    -0.413195790020E+03    0.62920E-05   -0.27287E-06  2668   0.237E-03    0.292E-03
RMM:  10    -0.413195783245E+03    0.67754E-05   -0.91909E-07  2496   0.154E-03    0.160E-03
RMM:  11    -0.413195776393E+03    0.68517E-05   -0.60947E-07  2408   0.124E-03    0.743E-04
RMM:  12    -0.413195770494E+03    0.58994E-05   -0.34689E-07  2121   0.975E-04    0.268E-04
RMM:  13    -0.413195768233E+03    0.22602E-05   -0.15661E-07  1393   0.728E-04    0.176E-04
RMM:  14    -0.413195764629E+03    0.36047E-05   -0.10550E-07  1157   0.673E-04    0.107E-04
RMM:  15    -0.413195760417E+03    0.42114E-05   -0.91998E-08  1284   0.671E-04    0.757E-05
RMM:  16    -0.413195759002E+03    0.14151E-05   -0.50708E-08   961   0.598E-04    0.599E-05
RMM:  17    -0.413195754677E+03    0.43257E-05   -0.67999E-08  1305   0.637E-04    0.487E-05
RMM:  18    -0.413195753378E+03    0.12990E-05   -0.28545E-08   843   0.541E-04    0.214E-05
RMM:  19    -0.413195753147E+03    0.23063E-06   -0.16889E-08   695   0.516E-04
   35 T=    67. E= -.41286685E+03 F= -.41319575E+03 E0= -.41317445E+03  EK= 0.32891E+00 SP= 0.00E+00 SK= 0.00E+00
       N       E                     dE             d eps       ncg     rms          rms(c)
RMM:   1    -0.413189264062E+03    0.64893E-02   -0.12216E+01  4298   0.963E-01    0.941E-01
RMM:   2    -0.413199119054E+03   -0.98550E-02   -0.15700E-01  4256   0.121E-01    0.658E-01
RMM:   3    -0.413198297358E+03    0.82170E-03   -0.69135E-03  4839   0.455E-02    0.196E-01
RMM:   4    -0.413230973308E+03   -0.32676E-01   -0.33077E-02  5151   0.152E-01    0.753E-01
RMM:   5    -0.413197896717E+03    0.33077E-01   -0.16634E-02  4799   0.125E-01    0.383E-02
RMM:   6    -0.413197964636E+03   -0.67919E-04   -0.26346E-03  5863   0.476E-02    0.192E-02
RMM:   7    -0.413197975821E+03   -0.11185E-04   -0.26726E-04  5754   0.139E-02    0.132E-02
RMM:   8    -0.413197968684E+03    0.71371E-05   -0.34994E-05  4473   0.535E-03    0.895E-03
RMM:   9    -0.413197962825E+03    0.58584E-05   -0.97172E-06  3513   0.354E-03    0.601E-03
RMM:  10    -0.413197953102E+03    0.97236E-05   -0.23224E-06  2554   0.253E-03    0.283E-03
RMM:  11    -0.413197945829E+03    0.72730E-05   -0.15302E-06  2509   0.194E-03    0.160E-03
RMM:  12    -0.413197938140E+03    0.76884E-05   -0.74811E-07  2453   0.153E-03    0.597E-04
RMM:  13    -0.413197935546E+03    0.25947E-05   -0.30851E-07  2169   0.998E-04    0.415E-04
RMM:  14    -0.413197933643E+03    0.19026E-05   -0.13700E-07  1477   0.731E-04    0.244E-04
RMM:  15    -0.413197926997E+03    0.66460E-05   -0.14796E-07  1862   0.766E-04    0.314E-04
RMM:  16    -0.413197926221E+03    0.77637E-06   -0.44944E-08   929   0.563E-04
   36 T=    67. E= -.41286666E+03 F= -.41319793E+03 E0= -.41317666E+03  EK= 0.33126E+00 SP= 0.00E+00 SK= 0.00E+00
       N       E                     dE             d eps       ncg     rms          rms(c)
RMM:   1    -0.413191136970E+03    0.67900E-02   -0.12283E+01  4299   0.992E-01    0.924E-01
RMM:   2    -0.413202679914E+03   -0.11543E-01   -0.16374E-01  4256   0.136E-01    0.670E-01
RMM:   3    -0.413201483611E+03    0.11963E-02   -0.67461E-03  4846   0.530E-02    0.206E-01
RMM:   4    -0.413245667253E+03   -0.44184E-01   -0.45378E-02  5155   0.178E-01    0.872E-01
RMM:   5    -0.413200750523E+03    0.44917E-01   -0.22677E-02  4798   0.146E-01    0.421E-02
RMM:   6    -0.413200871261E+03   -0.12074E-03   -0.34484E-03  5860   0.550E-02    0.201E-02
RMM:   7    -0.413200887027E+03   -0.15767E-04   -0.34153E-04  5741   0.156E-02    0.135E-02
RMM:   8    -0.413200883482E+03    0.35452E-05   -0.39346E-05  4115   0.521E-03    0.902E-03
RMM:   9    -0.413200875860E+03    0.76220E-05   -0.89120E-06  3273   0.346E-03    0.472E-03
RMM:  10    -0.413200873100E+03    0.27604E-05   -0.30116E-06  2642   0.244E-03    0.285E-03
RMM:  11    -0.413200867672E+03    0.54278E-05   -0.13496E-06  2496   0.194E-03    0.152E-03
RMM:  12    -0.413200863191E+03    0.44813E-05   -0.68810E-07  2441   0.140E-03    0.560E-04
RMM:  13    -0.413200861376E+03    0.18142E-05   -0.30696E-07  2143   0.973E-04    0.332E-04
RMM:  14    -0.413200859484E+03    0.18928E-05   -0.15353E-07  1537   0.748E-04    0.198E-04
RMM:  15    -0.413200855498E+03    0.39858E-05   -0.13005E-07  1518   0.721E-04    0.157E-04
RMM:  16    -0.413200854517E+03    0.98103E-06   -0.54405E-08   995   0.601E-04
   37 T=    68. E= -.41286685E+03 F= -.41320085E+03 E0= -.41317964E+03  EK= 0.33400E+00 SP= 0.00E+00 SK= 0.00E+00
       N       E                     dE             d eps       ncg     rms          rms(c)
RMM:   1    -0.413200688641E+03    0.16686E-03   -0.12515E+01  4305   0.106E+00    0.947E-01
RMM:   2    -0.413205636288E+03   -0.49476E-02   -0.16205E-01  4254   0.130E-01    0.673E-01
RMM:   3    -0.413204147724E+03    0.14886E-02   -0.69370E-03  4763   0.510E-02    0.198E-01
RMM:   4    -0.413238347051E+03   -0.34199E-01   -0.34541E-02  5155   0.155E-01    0.770E-01
RMM:   5    -0.413203688272E+03    0.34659E-01   -0.17639E-02  4811   0.128E-01    0.376E-02
RMM:   6    -0.413203758781E+03   -0.70509E-04   -0.26391E-03  5851   0.482E-02    0.191E-02
RMM:   7    -0.413203771238E+03   -0.12457E-04   -0.27151E-04  5779   0.141E-02    0.132E-02
RMM:   8    -0.413203765023E+03    0.62153E-05   -0.36596E-05  4532   0.543E-03    0.894E-03
RMM:   9    -0.413203760329E+03    0.46944E-05   -0.96013E-06  3481   0.347E-03    0.592E-03
RMM:  10    -0.413203752190E+03    0.81390E-05   -0.23154E-06  2548   0.244E-03    0.278E-03
RMM:  11    -0.413203746257E+03    0.59330E-05   -0.15033E-06  2514   0.191E-03    0.154E-03
RMM:  12    -0.413203740191E+03    0.60657E-05   -0.72228E-07  2446   0.148E-03    0.580E-04
RMM:  13    -0.413203737973E+03    0.22174E-05   -0.30791E-07  2165   0.991E-04    0.397E-04
RMM:  14    -0.413203736182E+03    0.17915E-05   -0.14222E-07  1498   0.735E-04    0.229E-04
RMM:  15    -0.413203730347E+03    0.58345E-05   -0.14522E-07  1746   0.757E-04    0.264E-04
RMM:  16    -0.413203729607E+03    0.74084E-06   -0.47667E-08   935   0.577E-04
   38 T=    69. E= -.41286718E+03 F= -.41320373E+03 E0= -.41318255E+03  EK= 0.33655E+00 SP= 0.00E+00 SK= 0.00E+00
       N       E                     dE             d eps       ncg     rms          rms(c)
RMM:   1    -0.413201034305E+03    0.26960E-02   -0.12545E+01  4305   0.108E+00    0.958E-01
RMM:   2    -0.413207072116E+03   -0.60378E-02   -0.16656E-01  4260   0.126E-01    0.667E-01
RMM:   3    -0.413206448897E+03    0.62322E-03   -0.74057E-03  4951   0.541E-02    0.226E-01
RMM:   4    -0.413256554888E+03   -0.50106E-01   -0.52964E-02  5139   0.191E-01    0.929E-01
RMM:   5    -0.413205398756E+03    0.51156E-01   -0.25511E-02  4797   0.156E-01    0.471E-02
RMM:   6    -0.413205554269E+03   -0.15551E-03   -0.39706E-03  5841   0.587E-02    0.220E-02
RMM:   7    -0.413205572513E+03   -0.18244E-04   -0.40126E-04  5809   0.168E-02    0.149E-02
RMM:   8    -0.413205568732E+03    0.37810E-05   -0.53119E-05  4647   0.606E-03    0.107E-02
RMM:   9    -0.413205559029E+03    0.97027E-05   -0.12874E-05  3839   0.383E-03    0.682E-03
RMM:  10    -0.413205548960E+03    0.10068E-04   -0.36738E-06  2672   0.288E-03    0.320E-03
RMM:  11    -0.413205541541E+03    0.74196E-05   -0.17165E-06  2520   0.209E-03    0.188E-03
RMM:  12    -0.413205532886E+03    0.86546E-05   -0.85486E-07  2465   0.162E-03    0.656E-04
RMM:  13    -0.413205528785E+03    0.41009E-05   -0.36132E-07  2279   0.108E-03    0.424E-04
RMM:  14    -0.413205525727E+03    0.30580E-05   -0.17093E-07  1704   0.784E-04    0.273E-04
RMM:  15    -0.413205517527E+03    0.82007E-05   -0.15065E-07  1801   0.765E-04    0.258E-04
RMM:  16    -0.413205516757E+03    0.76994E-06   -0.54307E-08  1003   0.576E-04
   39 T=    69. E= -.41286676E+03 F= -.41320552E+03 E0= -.41318438E+03  EK= 0.33875E+00 SP= 0.00E+00 SK= 0.00E+00
       N       E                     dE             d eps       ncg     rms          rms(c)
RMM:   1    -0.413202529095E+03    0.29884E-02   -0.12554E+01  4306   0.112E+00    0.935E-01
RMM:   2    -0.413210630240E+03   -0.81011E-02   -0.16834E-01  4261   0.134E-01    0.673E-01
RMM:   3    -0.413209769632E+03    0.86061E-03   -0.71087E-03  4985   0.534E-02    0.233E-01
RMM:   4    -0.413263691162E+03   -0.53922E-01   -0.58061E-02  5132   0.200E-01    0.962E-01
RMM:   5    -0.413208514412E+03    0.55177E-01   -0.27172E-02  4786   0.162E-01    0.493E-02
RMM:   6    -0.413208708222E+03   -0.19381E-03   -0.44451E-03  5829   0.609E-02    0.216E-02
RMM:   7    -0.413208731881E+03   -0.23659E-04   -0.44149E-04  5860   0.175E-02    0.152E-02
RMM:   8    -0.413208731519E+03    0.36174E-06   -0.61441E-05  4867   0.652E-03    0.114E-02
RMM:   9    -0.413208723491E+03    0.80286E-05   -0.12914E-05  3778   0.387E-03    0.699E-03
RMM:  10    -0.413208716412E+03    0.70781E-05   -0.38488E-06  2672   0.292E-03    0.325E-03
RMM:  11    -0.413208711512E+03    0.49006E-05   -0.17942E-06  2520   0.213E-03    0.192E-03
RMM:  12    -0.413208705925E+03    0.55867E-05   -0.91719E-07  2470   0.166E-03    0.691E-04
RMM:  13    -0.413208703384E+03    0.25406E-05   -0.38911E-07  2283   0.111E-03    0.445E-04
RMM:  14    -0.413208701245E+03    0.21396E-05   -0.19499E-07  1796   0.809E-04    0.277E-04
RMM:  15    -0.413208695514E+03    0.57309E-05   -0.17390E-07  1787   0.777E-04    0.268E-04
RMM:  16    -0.413208694999E+03    0.51470E-06   -0.62310E-08  1040   0.588E-04
   40 T=    69. E= -.41286736E+03 F= -.41320869E+03 E0= -.41318759E+03  EK= 0.34134E+00 SP= 0.00E+00 SK= 0.00E+00
       N       E                     dE             d eps       ncg     rms          rms(c)
RMM:   1    -0.413205116434E+03    0.35791E-02   -0.12725E+01  4305   0.118E+00    0.948E-01
RMM:   2    -0.413211865450E+03   -0.67490E-02   -0.17402E-01  4267   0.139E-01    0.683E-01
RMM:   3    -0.413211581281E+03    0.28417E-03   -0.76445E-03  5045   0.568E-02    0.257E-01
RMM:   4    -0.413267315019E+03   -0.55734E-01   -0.62852E-02  5127   0.208E-01    0.982E-01
RMM:   5    -0.413209820808E+03    0.57494E-01   -0.27881E-02  4773   0.165E-01    0.523E-02
RMM:   6    -0.413210015932E+03   -0.19512E-03   -0.45457E-03  5825   0.621E-02    0.213E-02
RMM:   7    -0.413210041092E+03   -0.25160E-04   -0.46843E-04  5925   0.181E-02    0.160E-02
RMM:   8    -0.413210041187E+03   -0.95602E-07   -0.68622E-05  5047   0.699E-03    0.117E-02
RMM:   9    -0.413210032401E+03    0.87863E-05   -0.11331E-05  3556   0.384E-03    0.644E-03
RMM:  10    -0.413210025238E+03    0.71627E-05   -0.40299E-06  2681   0.294E-03    0.295E-03
RMM:  11    -0.413210020177E+03    0.50618E-05   -0.16718E-06  2518   0.206E-03    0.157E-03
RMM:  12    -0.413210015062E+03    0.51141E-05   -0.81238E-07  2458   0.154E-03    0.622E-04
RMM:  13    -0.413210012497E+03    0.25657E-05   -0.35590E-07  2224   0.105E-03    0.403E-04
RMM:  14    -0.413210009386E+03    0.31104E-05   -0.19641E-07  1719   0.805E-04    0.259E-04
RMM:  15    -0.413210004973E+03    0.44131E-05   -0.14275E-07  1501   0.724E-04    0.167E-04
RMM:  16    -0.413210003716E+03    0.12572E-05   -0.68003E-08  1049   0.611E-04    0.837E-05
RMM:  17    -0.413210001511E+03    0.22053E-05   -0.55874E-08  1041   0.608E-04    0.475E-05
RMM:  18    -0.413209997961E+03    0.35500E-05   -0.66782E-08  1249   0.635E-04    0.528E-05
RMM:  19    -0.413209997527E+03    0.43407E-06   -0.23785E-08   803   0.557E-04
   41 T=    70. E= -.41286681E+03 F= -.41321000E+03 E0= -.41318893E+03  EK= 0.34319E+00 SP= 0.00E+00 SK= 0.00E+00
       N       E                     dE             d eps       ncg     rms          rms(c)
RMM:   1    -0.413213733216E+03   -0.37353E-02   -0.12853E+01  4308   0.126E+00    0.972E-01
RMM:   2    -0.413213503583E+03    0.22963E-03   -0.17730E-01  4294   0.146E-01    0.676E-01
RMM:   3    -0.413216341076E+03   -0.28375E-02   -0.10100E-02  5124   0.735E-02    0.335E-01
RMM:   4    -0.413249901013E+03   -0.33560E-01   -0.49719E-02  5092   0.187E-01    0.807E-01
RMM:   5    -0.413212453474E+03    0.37448E-01   -0.16820E-02  4727   0.135E-01    0.497E-02
RMM:   6    -0.413212505308E+03   -0.51835E-04   -0.27413E-03  5760   0.495E-02    0.193E-02
RMM:   7    -0.413212517026E+03   -0.11718E-04   -0.31782E-04  5892   0.156E-02    0.148E-02
RMM:   8    -0.413212514080E+03    0.29464E-05   -0.50694E-05  4907   0.633E-03    0.952E-03
RMM:   9    -0.413212501839E+03    0.12242E-04   -0.86747E-06  3258   0.391E-03    0.432E-03
RMM:  10    -0.413212493171E+03    0.86675E-05   -0.26859E-06  2579   0.245E-03    0.223E-03
RMM:  11    -0.413212485895E+03    0.72760E-05   -0.10100E-06  2502   0.161E-03    0.100E-03
RMM:  12    -0.413212480338E+03    0.55568E-05   -0.42254E-07  2304   0.112E-03    0.489E-04
RMM:  13    -0.413212475042E+03    0.52960E-05   -0.25061E-07  1647   0.852E-04    0.242E-04
RMM:  14    -0.413212471456E+03    0.35861E-05   -0.15631E-07  1355   0.734E-04    0.149E-04
RMM:  15    -0.413212465842E+03    0.56138E-05   -0.12909E-07  1375   0.715E-04    0.810E-05
RMM:  16    -0.413212461803E+03    0.40389E-05   -0.10000E-07  1403   0.669E-04    0.549E-05
RMM:  17    -0.413212457983E+03    0.38207E-05   -0.73956E-08  1257   0.618E-04    0.426E-05
RMM:  18    -0.413212456248E+03    0.17352E-05   -0.46771E-08   998   0.562E-04    0.275E-05
RMM:  19    -0.413212455728E+03    0.51986E-06   -0.28876E-08   817   0.531E-04
   42 T=    70. E= -.41286728E+03 F= -.41321246E+03 E0= -.41319142E+03  EK= 0.34518E+00 SP= 0.00E+00 SK= 0.00E+00
       N       E                     dE             d eps       ncg     rms          rms(c)
RMM:   1    -0.413214952742E+03   -0.24965E-02   -0.12818E+01  4310   0.133E+00    0.946E-01
RMM:   2    -0.413215369616E+03   -0.41687E-03   -0.17569E-01  4300   0.154E-01    0.676E-01
RMM:   3    -0.413219344648E+03   -0.39750E-02   -0.10981E-02  5106   0.827E-02    0.370E-01
RMM:   4    -0.413247049632E+03   -0.27705E-01   -0.47496E-02  5062   0.184E-01    0.759E-01
RMM:   5    -0.413214216256E+03    0.32833E-01   -0.14340E-02  4709   0.127E-01    0.482E-02
RMM:   6    -0.413214238639E+03   -0.22383E-04   -0.23674E-03  5731   0.463E-02    0.182E-02
RMM:   7    -0.413214247050E+03   -0.84110E-05   -0.27287E-04  5883   0.148E-02    0.142E-02
RMM:   8    -0.413214244351E+03    0.26998E-05   -0.44701E-05  4831   0.607E-03    0.882E-03
RMM:   9    -0.413214234312E+03    0.10039E-04   -0.85712E-06  3269   0.399E-03    0.412E-03
RMM:  10    -0.413214228124E+03    0.61882E-05   -0.24616E-06  2565   0.239E-03    0.224E-03
RMM:  11    -0.413214222973E+03    0.51512E-05   -0.10393E-06  2509   0.159E-03    0.103E-03
RMM:  12    -0.413214219140E+03    0.38326E-05   -0.44095E-07  2309   0.112E-03    0.501E-04
RMM:  13    -0.413214214935E+03    0.42047E-05   -0.29285E-07  1684   0.874E-04    0.256E-04
RMM:  14    -0.413214212645E+03    0.22907E-05   -0.17209E-07  1325   0.735E-04    0.148E-04
RMM:  15    -0.413214208834E+03    0.38110E-05   -0.14043E-07  1297   0.708E-04    0.758E-05
RMM:  16    -0.413214205574E+03    0.32599E-05   -0.10807E-07  1261   0.673E-04    0.512E-05
RMM:  17    -0.413214202750E+03    0.28239E-05   -0.84064E-08  1268   0.640E-04    0.461E-05
RMM:  18    -0.413214200725E+03    0.20246E-05   -0.57535E-08  1074   0.581E-04    0.366E-05
RMM:  19    -0.413214200070E+03    0.65497E-06   -0.34339E-08   833   0.533E-04
   43 T=    71. E= -.41286730E+03 F= -.41321420E+03 E0= -.41319319E+03  EK= 0.34690E+00 SP= 0.00E+00 SK= 0.00E+00
       N       E                     dE             d eps       ncg     rms          rms(c)
RMM:   1    -0.413239675287E+03   -0.25475E-01   -0.13183E+01  4311   0.151E+00    0.949E-01
RMM:   2    -0.413216352450E+03    0.23323E-01   -0.19960E-01  4306   0.175E-01    0.693E-01
RMM:   3    -0.413221786677E+03   -0.54342E-02   -0.12321E-02  5107   0.927E-02    0.421E-01
RMM:   4    -0.413245704017E+03   -0.23917E-01   -0.48177E-02  5057   0.186E-01    0.740E-01
RMM:   5    -0.413214899258E+03    0.30805E-01   -0.13220E-02  4684   0.126E-01    0.506E-02
RMM:   6    -0.413214902343E+03   -0.30851E-05   -0.22631E-03  5677   0.452E-02    0.187E-02
RMM:   7    -0.413214910241E+03   -0.78982E-05   -0.26642E-04  5907   0.148E-02    0.146E-02
RMM:   8    -0.413214907395E+03    0.28464E-05   -0.42293E-05  4807   0.601E-03    0.897E-03
RMM:   9    -0.413214898445E+03    0.89497E-05   -0.97780E-06  3419   0.435E-03    0.435E-03
RMM:  10    -0.413214893378E+03    0.50666E-05   -0.26479E-06  2592   0.250E-03    0.251E-03
RMM:  11    -0.413214889364E+03    0.40146E-05   -0.12667E-06  2522   0.175E-03    0.112E-03
RMM:  12    -0.413214886543E+03    0.28209E-05   -0.53194E-07  2422   0.123E-03    0.590E-04
RMM:  13    -0.413214882987E+03    0.35553E-05   -0.37439E-07  1811   0.962E-04    0.341E-04
RMM:  14    -0.413214881114E+03    0.18736E-05   -0.20681E-07  1413   0.785E-04    0.188E-04
RMM:  15    -0.413214878591E+03    0.25223E-05   -0.15978E-07  1327   0.730E-04    0.102E-04
RMM:  16    -0.413214875493E+03    0.30986E-05   -0.13439E-07  1333   0.699E-04    0.593E-05
RMM:  17    -0.413214874035E+03    0.14582E-05   -0.81059E-08  1087   0.622E-04    0.452E-05
RMM:  18    -0.413214871834E+03    0.22009E-05   -0.73594E-08  1143   0.608E-04    0.314E-05
RMM:  19    -0.413214870948E+03    0.88545E-06   -0.43663E-08   900   0.556E-04
   44 T=    71. E= -.41286689E+03 F= -.41321487E+03 E0= -.41319389E+03  EK= 0.34798E+00 SP= 0.00E+00 SK= 0.00E+00
       N       E                     dE             d eps       ncg     rms          rms(c)
RMM:   1    -0.413243474465E+03   -0.28603E-01   -0.13272E+01  4307   0.158E+00    0.978E-01
RMM:   2    -0.413216886671E+03    0.26588E-01   -0.18944E-01  4352   0.180E-01    0.683E-01
RMM:   3    -0.413229648792E+03   -0.12762E-01   -0.18837E-02  5146   0.118E-01    0.537E-01
RMM:   4    -0.413231534199E+03   -0.18854E-02   -0.37475E-02  5015   0.169E-01    0.539E-01
RMM:   5    -0.413216451197E+03    0.15083E-01   -0.57972E-03  4564   0.940E-02    0.428E-02
RMM:   6    -0.413216404344E+03    0.46853E-04   -0.10076E-03  5319   0.313E-02    0.171E-02
RMM:   7    -0.413216403217E+03    0.11273E-05   -0.11387E-04  5654   0.103E-02    0.127E-02
RMM:   8    -0.413216398261E+03    0.49559E-05   -0.30560E-05  4860   0.549E-03    0.794E-03
RMM:   9    -0.413216382344E+03    0.15917E-04   -0.88221E-06  3417   0.429E-03    0.393E-03
RMM:  10    -0.413216376769E+03    0.55749E-05   -0.14456E-06  2532   0.204E-03    0.182E-03
RMM:  11    -0.413216370571E+03    0.61983E-05   -0.89447E-07  2484   0.150E-03    0.930E-04
RMM:  12    -0.413216364863E+03    0.57077E-05   -0.40854E-07  2355   0.110E-03    0.472E-04
RMM:  13    -0.413216360081E+03    0.47825E-05   -0.21767E-07  1460   0.788E-04    0.231E-04
RMM:  14    -0.413216356892E+03    0.31884E-05   -0.13236E-07  1208   0.687E-04    0.148E-04
RMM:  15    -0.413216350741E+03    0.61514E-05   -0.13146E-07  1414   0.709E-04    0.978E-05
RMM:  16    -0.413216347902E+03    0.28390E-05   -0.73882E-08  1084   0.612E-04    0.826E-05
RMM:  17    -0.413216344507E+03    0.33948E-05   -0.62127E-08  1094   0.597E-04    0.507E-05
RMM:  18    -0.413216342292E+03    0.22151E-05   -0.43866E-08   962   0.555E-04    0.273E-05
RMM:  19    -0.413216341582E+03    0.70997E-06   -0.23796E-08   734   0.515E-04
   45 T=    71. E= -.41286724E+03 F= -.41321634E+03 E0= -.41319538E+03  EK= 0.34910E+00 SP= 0.00E+00 SK= 0.00E+00
       N       E                     dE             d eps       ncg     rms          rms(c)
RMM:   1    -0.413234955293E+03   -0.18613E-01   -0.13097E+01  4307   0.165E+00    0.958E-01
RMM:   2    -0.413216801938E+03    0.18153E-01   -0.18561E-01  4366   0.190E-01    0.680E-01
RMM:   3    -0.413231898191E+03   -0.15096E-01   -0.20795E-02  5139   0.127E-01    0.576E-01
RMM:   4    -0.413229336940E+03    0.25613E-02   -0.37070E-02  4990   0.169E-01    0.506E-01
RMM:   5    -0.413216310587E+03    0.13026E-01   -0.50816E-03  4549   0.910E-02    0.431E-02
RMM:   6    -0.413216244682E+03    0.65905E-04   -0.79371E-04  5097   0.289E-02    0.168E-02
RMM:   7    -0.413216244117E+03    0.56441E-06   -0.97216E-05  5629   0.934E-03    0.109E-02
RMM:   8    -0.413216239765E+03    0.43528E-05   -0.30431E-05  4964   0.569E-03    0.750E-03
RMM:   9    -0.413216227187E+03    0.12578E-04   -0.13205E-05  4008   0.449E-03    0.433E-03
RMM:  10    -0.413216223017E+03    0.41696E-05   -0.17714E-06  2512   0.220E-03    0.190E-03
RMM:  11    -0.413216217927E+03    0.50898E-05   -0.12810E-06  2467   0.178E-03    0.108E-03
RMM:  12    -0.413216212915E+03    0.50128E-05   -0.49091E-07  2358   0.127E-03    0.614E-04
RMM:  13    -0.413216209071E+03    0.38431E-05   -0.22310E-07  1689   0.836E-04    0.313E-04
RMM:  14    -0.413216205406E+03    0.36657E-05   -0.12583E-07  1170   0.682E-04    0.162E-04
RMM:  15    -0.413216199627E+03    0.57786E-05   -0.13483E-07  1398   0.703E-04    0.141E-04
RMM:  16    -0.413216197281E+03    0.23462E-05   -0.61663E-08   906   0.572E-04    0.114E-04
RMM:  17    -0.413216193783E+03    0.34977E-05   -0.60779E-08   972   0.578E-04    0.507E-05
RMM:  18    -0.413216191600E+03    0.21829E-05   -0.42603E-08   889   0.550E-04    0.450E-05
RMM:  19    -0.413216190912E+03    0.68825E-06   -0.21203E-08   666   0.507E-04
   46 T=    71. E= -.41286704E+03 F= -.41321619E+03 E0= -.41319525E+03  EK= 0.34915E+00 SP= 0.00E+00 SK= 0.00E+00
       N       E                     dE             d eps       ncg     rms          rms(c)
RMM:   1    -0.413259721645E+03   -0.43530E-01   -0.13399E+01  4310   0.180E+00    0.944E-01
RMM:   2    -0.413216315130E+03    0.43407E-01   -0.22200E-01  4389   0.212E-01    0.697E-01
RMM:   3    -0.413230554891E+03   -0.14240E-01   -0.20148E-02  5139   0.127E-01    0.595E-01
RMM:   4    -0.413230005790E+03    0.54910E-03   -0.39240E-02  5000   0.174E-01    0.549E-01
RMM:   5    -0.413215167675E+03    0.14838E-01   -0.64148E-03  4547   0.993E-02    0.483E-02
RMM:   6    -0.413215089889E+03    0.77786E-04   -0.97202E-04  5159   0.321E-02    0.186E-02
RMM:   7    -0.413215089821E+03    0.68361E-07   -0.12859E-04  5802   0.107E-02    0.132E-02
RMM:   8    -0.413215087224E+03    0.25969E-05   -0.34826E-05  5031   0.573E-03    0.888E-03
RMM:   9    -0.413215075033E+03    0.12191E-04   -0.13525E-05  4013   0.490E-03    0.487E-03
RMM:  10    -0.413215070989E+03    0.40441E-05   -0.21213E-06  2551   0.227E-03    0.232E-03
RMM:  11    -0.413215067430E+03    0.35590E-05   -0.16489E-06  2527   0.196E-03    0.130E-03
RMM:  12    -0.413215064494E+03    0.29357E-05   -0.53220E-07  2418   0.134E-03    0.718E-04
RMM:  13    -0.413215061670E+03    0.28237E-05   -0.27258E-07  1816   0.883E-04    0.350E-04
RMM:  14    -0.413215059167E+03    0.25034E-05   -0.16720E-07  1274   0.713E-04    0.197E-04
RMM:  15    -0.413215056088E+03    0.30785E-05   -0.14570E-07  1252   0.694E-04    0.920E-05
RMM:  16    -0.413215054049E+03    0.20394E-05   -0.94886E-08  1126   0.628E-04    0.863E-05
RMM:  17    -0.413215052184E+03    0.18655E-05   -0.70293E-08  1014   0.588E-04    0.577E-05
RMM:  18    -0.413215050912E+03    0.12710E-05   -0.45840E-08   855   0.546E-04    0.329E-05
RMM:  19    -0.413215050558E+03    0.35465E-06   -0.23807E-08   685   0.513E-04
   47 T=    71. E= -.41286702E+03 F= -.41321505E+03 E0= -.41319413E+03  EK= 0.34803E+00 SP= 0.00E+00 SK= 0.00E+00
       N       E                     dE             d eps       ncg     rms          rms(c)
RMM:   1    -0.413259276873E+03   -0.44226E-01   -0.13377E+01  4305   0.194E+00    0.971E-01
RMM:   2    -0.413213183961E+03    0.46093E-01   -0.20657E-01  4491   0.209E-01    0.688E-01
RMM:   3    -0.413238650845E+03   -0.25467E-01   -0.30363E-02  5158   0.156E-01    0.724E-01
RMM:   4    -0.413220611784E+03    0.18039E-01   -0.37577E-02  4949   0.175E-01    0.422E-01
RMM:   5    -0.413212814216E+03    0.77976E-02   -0.44471E-03  4590   0.891E-02    0.553E-02
RMM:   6    -0.413212632386E+03    0.18183E-03   -0.43993E-04  4677   0.280E-02    0.219E-02
RMM:   7    -0.413212632663E+03   -0.27689E-06   -0.11293E-04  5815   0.107E-02    0.147E-02
RMM:   8    -0.413212623417E+03    0.92461E-05   -0.23112E-05  4533   0.516E-03    0.997E-03
RMM:   9    -0.413212608326E+03    0.15091E-04   -0.93926E-06  3319   0.421E-03    0.478E-03
RMM:  10    -0.413212601604E+03    0.67223E-05   -0.25171E-06  2607   0.259E-03    0.223E-03
RMM:  11    -0.413212595571E+03    0.60325E-05   -0.17334E-06  2525   0.206E-03    0.141E-03
RMM:  12    -0.413212589961E+03    0.56100E-05   -0.67947E-07  2444   0.144E-03    0.705E-04
RMM:  13    -0.413212585626E+03    0.43359E-05   -0.32637E-07  2063   0.958E-04    0.381E-04
RMM:  14    -0.413212581484E+03    0.41416E-05   -0.19087E-07  1489   0.744E-04    0.206E-04
RMM:  15    -0.413212575736E+03    0.57481E-05   -0.16959E-07  1479   0.721E-04    0.149E-04
RMM:  16    -0.413212573146E+03    0.25898E-05   -0.92315E-08  1140   0.611E-04    0.111E-04
RMM:  17    -0.413212569982E+03    0.31643E-05   -0.75640E-08  1112   0.598E-04    0.489E-05
RMM:  18    -0.413212567975E+03    0.20071E-05   -0.48780E-08   975   0.566E-04    0.308E-05
RMM:  19    -0.413212567108E+03    0.86624E-06   -0.26933E-08   792   0.532E-04
   48 T=    70. E= -.41286709E+03 F= -.41321257E+03 E0= -.41319166E+03  EK= 0.34548E+00 SP= 0.00E+00 SK= 0.00E+00
       N       E                     dE             d eps       ncg     rms          rms(c)
RMM:   1    -0.413257882386E+03   -0.45314E-01   -0.13197E+01  4305   0.206E+00    0.959E-01
RMM:   2    -0.413208005569E+03    0.49877E-01   -0.20504E-01  4525   0.221E-01    0.677E-01
RMM:   3    -0.413239347901E+03   -0.31342E-01   -0.35690E-02  5166   0.170E-01    0.793E-01
RMM:   4    -0.413213166163E+03    0.26182E-01   -0.37548E-02  4927   0.177E-01    0.378E-01
RMM:   5    -0.413207886710E+03    0.52795E-02   -0.50009E-03  4865   0.922E-02    0.697E-02
RMM:   6    -0.413207581546E+03    0.30516E-03   -0.56387E-04  4682   0.327E-02    0.261E-02
RMM:   7    -0.413207577057E+03    0.44894E-05   -0.13204E-04  5710   0.122E-02    0.165E-02
RMM:   8    -0.413207566882E+03    0.10175E-04   -0.19157E-05  4206   0.487E-03    0.107E-02
RMM:   9    -0.413207551242E+03    0.15640E-04   -0.10767E-05  3513   0.435E-03    0.464E-03
RMM:  10    -0.413207542786E+03    0.84558E-05   -0.36800E-06  2770   0.296E-03    0.255E-03
RMM:  11    -0.413207535315E+03    0.74719E-05   -0.21794E-06  2590   0.233E-03    0.167E-03
RMM:  12    -0.413207531044E+03    0.42706E-05   -0.67345E-07  2444   0.150E-03    0.815E-04
RMM:  13    -0.413207526833E+03    0.42108E-05   -0.33788E-07  2209   0.990E-04    0.492E-04
RMM:  14    -0.413207521753E+03    0.50804E-05   -0.22412E-07  1677   0.797E-04    0.244E-04
RMM:  15    -0.413207516844E+03    0.49093E-05   -0.16451E-07  1454   0.728E-04    0.153E-04
RMM:  16    -0.413207514789E+03    0.20541E-05   -0.86752E-08  1160   0.624E-04    0.101E-04
RMM:  17    -0.413207511185E+03    0.36049E-05   -0.87672E-08  1289   0.637E-04    0.470E-05
RMM:  18    -0.413207509894E+03    0.12910E-05   -0.39488E-08   921   0.564E-04    0.347E-05
RMM:  19    -0.413207508948E+03    0.94561E-06   -0.25635E-08   830   0.547E-04
   49 T=    69. E= -.41286704E+03 F= -.41320751E+03 E0= -.41318661E+03  EK= 0.34047E+00 SP= 0.00E+00 SK= 0.00E+00
       N       E                     dE             d eps       ncg     rms          rms(c)
[...]
RMM:   5    -0.413160974266E+03    0.36309E-01   -0.17717E-02  4805   0.132E-01    0.495E-02
RMM:   6    -0.413161018212E+03   -0.43946E-04   -0.29155E-03  5721   0.507E-02    0.203E-02
RMM:   7    -0.413161057233E+03   -0.39021E-04   -0.36072E-04  5968   0.154E-02    0.141E-02
RMM:   8    -0.413161071824E+03   -0.14590E-04   -0.53613E-05  5131   0.710E-03    0.776E-03
RMM:   9    -0.413161079957E+03   -0.81331E-05   -0.97843E-06  3313   0.349E-03    0.352E-03
RMM:  10    -0.413161088254E+03   -0.82968E-05   -0.27743E-06  2609   0.215E-03    0.236E-03
RMM:  11    -0.413161096516E+03   -0.82624E-05   -0.14026E-06  2512   0.167E-03    0.124E-03
RMM:  12    -0.413161102629E+03   -0.61132E-05   -0.98013E-07  2440   0.133E-03    0.429E-04
RMM:  13    -0.413161105067E+03   -0.24379E-05   -0.47248E-07  1919   0.963E-04    0.311E-04
RMM:  14    -0.413161107321E+03   -0.22540E-05   -0.42336E-07  1655   0.884E-04    0.183E-04
RMM:  15    -0.413161109075E+03   -0.17538E-05   -0.44709E-07  1856   0.877E-04    0.152E-04
RMM:  16    -0.413161109281E+03   -0.20582E-06   -0.20197E-07  1369   0.684E-04
  137 T=    60. E= -.41286751E+03 F= -.41316111E+03 E0= -.41314036E+03  EK= 0.29360E+00 SP= 0.00E+00 SK= 0.00E+00
       N       E                     dE             d eps       ncg     rms          rms(c)
RMM:   1    -0.413155106352E+03    0.60027E-02   -0.93636E+00  4264   0.804E-01    0.845E-01
RMM:   2    -0.413162523548E+03   -0.74172E-02   -0.11157E-01  4303   0.927E-02    0.594E-01
RMM:   3    -0.413161236823E+03    0.12867E-02   -0.80194E-03  4975   0.421E-02    0.146E-01
RMM:   4    -0.413191454015E+03   -0.30217E-01   -0.32033E-02  5148   0.149E-01    0.725E-01
RMM:   5    -0.413160762984E+03    0.30691E-01   -0.15124E-02  4810   0.121E-01    0.494E-02
RMM:   6    -0.413160792020E+03   -0.29036E-04   -0.25378E-03  5721   0.475E-02    0.254E-02
RMM:   7    -0.413160816959E+03   -0.24938E-04   -0.33393E-04  5932   0.153E-02    0.152E-02
RMM:   8    -0.413160824236E+03   -0.72771E-05   -0.56240E-05  5183   0.759E-03    0.790E-03
RMM:   9    -0.413160824923E+03   -0.68705E-06   -0.92820E-06  3374   0.352E-03
  138 T=    60. E= -.41286778E+03 F= -.41316082E+03 E0= -.41314009E+03  EK= 0.29305E+00 SP= 0.00E+00 SK= 0.00E+00
       N       E                     dE             d eps       ncg     rms          rms(c)
RMM:   1    -0.413155968325E+03    0.48559E-02   -0.89287E+00  4267   0.790E-01    0.818E-01
RMM:   2    -0.413163234103E+03   -0.72658E-02   -0.10834E-01  4312   0.928E-02    0.593E-01
RMM:   3    -0.413163522451E+03   -0.28835E-03   -0.10684E-02  5132   0.622E-02    0.238E-01
RMM:   4    -0.413191405040E+03   -0.27883E-01   -0.39920E-02  5110   0.168E-01    0.722E-01
RMM:   5    -0.413160963059E+03    0.30442E-01   -0.13641E-02  4767   0.121E-01    0.612E-02
RMM:   6    -0.413160867607E+03    0.95452E-04   -0.22977E-03  5513   0.472E-02    0.257E-02
RMM:   7    -0.413160909305E+03   -0.41697E-04   -0.38349E-04  6076   0.173E-02    0.170E-02
RMM:   8    -0.413160919913E+03   -0.10609E-04   -0.75818E-05  5402   0.910E-03    0.879E-03
RMM:   9    -0.413160924536E+03   -0.46221E-05   -0.13136E-05  3977   0.436E-03    0.392E-03
RMM:  10    -0.413160928674E+03   -0.41382E-05   -0.21334E-06  2593   0.211E-03    0.260E-03
RMM:  11    -0.413160936442E+03   -0.77687E-05   -0.21465E-06  2567   0.211E-03    0.162E-03
RMM:  12    -0.413160940873E+03   -0.44304E-05   -0.12515E-06  2520   0.159E-03    0.741E-04
RMM:  13    -0.413160942495E+03   -0.16222E-05   -0.54880E-07  2034   0.105E-03    0.432E-04
RMM:  14    -0.413160943831E+03   -0.13359E-05   -0.47929E-07  1900   0.934E-04    0.286E-04
RMM:  15    -0.413160944587E+03   -0.75640E-06   -0.63029E-07  1916   0.943E-04
  139 T=    60. E= -.41286777E+03 F= -.41316094E+03 E0= -.41314022E+03  EK= 0.29317E+00 SP= 0.00E+00 SK= 0.00E+00
       N       E                     dE             d eps       ncg     rms          rms(c)
RMM:   1    -0.413157795326E+03    0.31485E-02   -0.86276E+00  4264   0.779E-01    0.819E-01
RMM:   2    -0.413164569647E+03   -0.67743E-02   -0.10590E-01  4295   0.922E-02    0.607E-01
RMM:   3    -0.413161510360E+03    0.30593E-02   -0.11373E-02  4843   0.440E-02    0.899E-02
RMM:   4    -0.413179962672E+03   -0.18452E-01   -0.19254E-02  5137   0.116E-01    0.570E-01
RMM:   5    -0.413161283772E+03    0.18679E-01   -0.92676E-03  4811   0.947E-02    0.446E-02
RMM:   6    -0.413161296869E+03   -0.13096E-04   -0.16161E-03  5694   0.384E-02    0.273E-02
RMM:   7    -0.413161324257E+03   -0.27388E-04   -0.26764E-04  5782   0.140E-02    0.141E-02
RMM:   8    -0.413161335851E+03   -0.11594E-04   -0.43541E-05  5015   0.704E-03    0.731E-03
RMM:   9    -0.413161339904E+03   -0.40523E-05   -0.58212E-06  3048   0.296E-03    0.396E-03
RMM:  10    -0.413161348950E+03   -0.90462E-05   -0.20828E-06  2560   0.209E-03    0.250E-03
RMM:  11    -0.413161356629E+03   -0.76792E-05   -0.12966E-06  2521   0.164E-03    0.116E-03
RMM:  12    -0.413161362721E+03   -0.60924E-05   -0.11053E-06  2477   0.138E-03    0.574E-04
RMM:  13    -0.413161365562E+03   -0.28404E-05   -0.59053E-07  2023   0.101E-03    0.367E-04
RMM:  14    -0.413161366811E+03   -0.12497E-05   -0.32986E-07  1536   0.816E-04    0.224E-04
RMM:  15    -0.413161368235E+03   -0.14234E-05   -0.53844E-07  1968   0.917E-04    0.218E-04
RMM:  16    -0.413161368469E+03   -0.23448E-06   -0.31603E-07  1428   0.725E-04
  140 T=    60. E= -.41286755E+03 F= -.41316137E+03 E0= -.41314066E+03  EK= 0.29382E+00 SP= 0.00E+00 SK= 0.00E+00
       N       E                     dE             d eps       ncg     rms          rms(c)
RMM:   1    -0.413160044586E+03    0.13236E-02   -0.81905E+00  4264   0.764E-01    0.840E-01
RMM:   2    -0.413164959400E+03   -0.49148E-02   -0.10030E-01  4298   0.894E-02    0.604E-01
RMM:   3    -0.413161739931E+03    0.32195E-02   -0.13261E-02  4846   0.424E-02    0.850E-02
RMM:   4    -0.413175998021E+03   -0.14258E-01   -0.14900E-02  5148   0.102E-01    0.502E-01
RMM:   5    -0.413161577327E+03    0.14421E-01   -0.72767E-03  4821   0.837E-02    0.451E-02
RMM:   6    -0.413161587019E+03   -0.96917E-05   -0.13284E-03  5647   0.356E-02    0.305E-02
RMM:   7    -0.413161594842E+03   -0.78237E-05   -0.26798E-04  5607   0.146E-02    0.152E-02
RMM:   8    -0.413161596456E+03   -0.16140E-05   -0.40746E-05  5033   0.701E-03    0.776E-03
RMM:   9    -0.413161596888E+03   -0.43149E-06   -0.49499E-06  2943   0.275E-03
  141 T=    60. E= -.41286796E+03 F= -.41316160E+03 E0= -.41314090E+03  EK= 0.29363E+00 SP= 0.00E+00 SK= 0.00E+00
       N       E                     dE             d eps       ncg     rms          rms(c)
RMM:   1    -0.413160763197E+03    0.83326E-03   -0.76845E+00  4269   0.745E-01    0.825E-01
RMM:   2    -0.413164900903E+03   -0.41377E-02   -0.95335E-02  4324   0.854E-02    0.601E-01
RMM:   3    -0.413162206787E+03    0.26941E-02   -0.16759E-02  5073   0.547E-02    0.156E-01
RMM:   4    -0.413192946870E+03   -0.30740E-01   -0.36805E-02  5127   0.160E-01    0.739E-01
RMM:   5    -0.413160980935E+03    0.31966E-01   -0.15114E-02  4795   0.123E-01    0.595E-02
RMM:   6    -0.413160959886E+03    0.21048E-04   -0.25829E-03  5623   0.494E-02    0.304E-02
RMM:   7    -0.413161000186E+03   -0.40299E-04   -0.41479E-04  6026   0.174E-02    0.183E-02
RMM:   8    -0.413161006634E+03   -0.64482E-05   -0.74045E-05  5318   0.920E-03    0.940E-03
RMM:   9    -0.413161007710E+03   -0.10762E-05   -0.10331E-05  3484   0.387E-03    0.428E-03
RMM:  10    -0.413161011748E+03   -0.40377E-05   -0.28441E-06  2646   0.237E-03    0.282E-03
RMM:  11    -0.413161016267E+03   -0.45198E-05   -0.19446E-06  2551   0.200E-03    0.153E-03
RMM:  12    -0.413161018913E+03   -0.26459E-05   -0.13395E-06  2522   0.158E-03    0.619E-04
RMM:  13    -0.413161019732E+03   -0.81919E-06   -0.63081E-07  2217   0.111E-03
  142 T=    60. E= -.41286769E+03 F= -.41316102E+03 E0= -.41314033E+03  EK= 0.29333E+00 SP= 0.00E+00 SK= 0.00E+00
       N       E                     dE             d eps       ncg     rms          rms(c)
RMM:   1    -0.413163337696E+03   -0.23188E-02   -0.73247E+00  4264   0.731E-01    0.823E-01
RMM:   2    -0.413166684807E+03   -0.33471E-02   -0.91623E-02  4317   0.830E-02    0.612E-01
RMM:   3    -0.413162211406E+03    0.44734E-02   -0.22213E-02  4692   0.461E-02    0.938E-02
RMM:   4    -0.413164175075E+03   -0.19637E-02   -0.24900E-03  5135   0.459E-02    0.201E-01
RMM:   5    -0.413161963354E+03    0.22117E-02   -0.11541E-03  4837   0.341E-02    0.391E-02
RMM:   6    -0.413161983703E+03   -0.20349E-04   -0.41979E-04  5410   0.212E-02    0.287E-02
RMM:   7    -0.413161992967E+03   -0.92639E-05   -0.17438E-04  5043   0.119E-02    0.157E-02
RMM:   8    -0.413161993401E+03   -0.43363E-06   -0.20516E-05  4533   0.522E-03    0.702E-03
RMM:   9    -0.413161997177E+03   -0.37760E-05   -0.47896E-06  2609   0.226E-03    0.282E-03
RMM:  10    -0.413162008565E+03   -0.11389E-04   -0.18058E-06  2531   0.184E-03    0.139E-03
RMM:  11    -0.413162016188E+03   -0.76226E-05   -0.11848E-06  2478   0.142E-03    0.610E-04
RMM:  12    -0.413162021032E+03   -0.48437E-05   -0.80792E-07  2152   0.113E-03    0.444E-04
RMM:  13    -0.413162024338E+03   -0.33059E-05   -0.66888E-07  2013   0.979E-04    0.290E-04
RMM:  14    -0.413162026255E+03   -0.19172E-05   -0.53410E-07  1661   0.855E-04    0.178E-04
RMM:  15    -0.413162027049E+03   -0.79451E-06   -0.52691E-07  1692   0.844E-04
  143 T=    60. E= -.41286782E+03 F= -.41316203E+03 E0= -.41314135E+03  EK= 0.29421E+00 SP= 0.00E+00 SK= 0.00E+00
       N       E                     dE             d eps       ncg     rms          rms(c)
RMM:   1    -0.413165860092E+03   -0.38338E-02   -0.68733E+00  4264   0.711E-01    0.844E-01
RMM:   2    -0.413167334333E+03   -0.14742E-02   -0.86595E-02  4321   0.807E-02    0.614E-01
RMM:   3    -0.413162721877E+03    0.46125E-02   -0.25411E-02  4824   0.467E-02    0.108E-01
RMM:   4    -0.413168580417E+03   -0.58585E-02   -0.66231E-03  5133   0.709E-02    0.333E-01
RMM:   5    -0.413162349315E+03    0.62311E-02   -0.31611E-03  4827   0.557E-02    0.417E-02
RMM:   6    -0.413162365782E+03   -0.16468E-04   -0.73032E-04  5502   0.277E-02    0.306E-02
RMM:   7    -0.413162366910E+03   -0.11279E-05   -0.20092E-04  5300   0.131E-02    0.156E-02
RMM:   8    -0.413162367340E+03   -0.43001E-06   -0.27919E-05  4816   0.589E-03    0.703E-03
RMM:   9    -0.413162369192E+03   -0.18516E-05   -0.42338E-06  2747   0.240E-03    0.356E-03
RMM:  10    -0.413162374081E+03   -0.48887E-05   -0.16646E-06  2523   0.187E-03    0.189E-03
RMM:  11    -0.413162377416E+03   -0.33356E-05   -0.10499E-06  2470   0.143E-03    0.865E-04
RMM:  12    -0.413162379363E+03   -0.19467E-05   -0.76748E-07  2238   0.117E-03    0.457E-04
RMM:  13    -0.413162380215E+03   -0.85248E-06   -0.58216E-07  2046   0.976E-04
  144 T=    60. E= -.41286811E+03 F= -.41316238E+03 E0= -.41314171E+03  EK= 0.29427E+00 SP= 0.00E+00 SK= 0.00E+00
       N       E                     dE             d eps       ncg     rms          rms(c)
RMM:   1    -0.413166604804E+03   -0.42254E-02   -0.64122E+00  4264   0.695E-01    0.844E-01
RMM:   2    -0.413166600518E+03    0.42865E-05   -0.81923E-02  4325   0.792E-02    0.610E-01
RMM:   3    -0.413161873085E+03    0.47274E-02   -0.29574E-02  4681   0.449E-02    0.123E-01
RMM:   4    -0.413161746608E+03    0.12648E-03   -0.94822E-04  5035   0.286E-02    0.828E-02
RMM:   5    -0.413161461812E+03    0.28480E-03   -0.27080E-04  4915   0.166E-02    0.433E-02
RMM:   6    -0.413161463039E+03   -0.12273E-05   -0.30964E-04  5202   0.179E-02    0.297E-02
RMM:   7    -0.413161451029E+03    0.12010E-04   -0.14044E-04  4701   0.117E-02    0.162E-02
RMM:   8    -0.413161448813E+03    0.22158E-05   -0.15880E-05  4067   0.457E-03    0.675E-03
RMM:   9    -0.413161452477E+03   -0.36640E-05   -0.91521E-06  2585   0.259E-03    0.254E-03
RMM:  10    -0.413161456254E+03   -0.37768E-05   -0.20994E-06  2505   0.192E-03    0.130E-03
RMM:  11    -0.413161457985E+03   -0.17311E-05   -0.12762E-06  2428   0.140E-03    0.597E-04
RMM:  12    -0.413161458501E+03   -0.51627E-06   -0.46245E-07  1870   0.937E-04
  145 T=    60. E= -.41286780E+03 F= -.41316146E+03 E0= -.41314079E+03  EK= 0.29366E+00 SP= 0.00E+00 SK= 0.00E+00
       N       E                     dE             d eps       ncg     rms          rms(c)
RMM:   1    -0.413168825963E+03   -0.73680E-02   -0.60891E+00  4264   0.681E-01    0.836E-01
RMM:   2    -0.413168195244E+03    0.63072E-03   -0.77960E-02  4313   0.793E-02    0.614E-01
RMM:   3    -0.413163498006E+03    0.46972E-02   -0.38246E-02  4732   0.508E-02    0.198E-01
RMM:   4    -0.413164136091E+03   -0.63808E-03   -0.31570E-03  5126   0.454E-02    0.170E-01
RMM:   5    -0.413162588443E+03    0.15476E-02   -0.85992E-04  4829   0.301E-02    0.384E-02
RMM:   6    -0.413162598028E+03   -0.95855E-05   -0.34762E-04  5313   0.193E-02    0.270E-02
RMM:   7    -0.413162617930E+03   -0.19901E-04   -0.13008E-04  4848   0.102E-02    0.151E-02
RMM:   8    -0.413162619935E+03   -0.20052E-05   -0.17528E-05  4159   0.462E-03    0.531E-03
RMM:   9    -0.413162625421E+03   -0.54860E-05   -0.46765E-06  2584   0.225E-03    0.274E-03
RMM:  10    -0.413162636218E+03   -0.10797E-04   -0.18601E-06  2519   0.173E-03    0.139E-03
RMM:  11    -0.413162643560E+03   -0.73416E-05   -0.12210E-06  2353   0.132E-03    0.578E-04
RMM:  12    -0.413162647203E+03   -0.36434E-05   -0.56002E-07  1935   0.975E-04    0.389E-04
RMM:  13    -0.413162650404E+03   -0.32010E-05   -0.54939E-07  1726   0.890E-04    0.218E-04
RMM:  14    -0.413162652517E+03   -0.21123E-05   -0.51082E-07  1700   0.845E-04    0.185E-04
RMM:  15    -0.413162653131E+03   -0.61391E-06   -0.31890E-07  1360   0.705E-04
  146 T=    60. E= -.41286810E+03 F= -.41316265E+03 E0= -.41314199E+03  EK= 0.29455E+00 SP= 0.00E+00 SK= 0.00E+00
       N       E                     dE             d eps       ncg     rms          rms(c)
RMM:   1    -0.413170680254E+03   -0.80277E-02   -0.57654E+00  4264   0.663E-01    0.856E-01
RMM:   2    -0.413168515535E+03    0.21647E-02   -0.74566E-02  4306   0.791E-02    0.620E-01
RMM:   3    -0.413163769282E+03    0.47463E-02   -0.42181E-02  4658   0.543E-02    0.209E-01
RMM:   4    -0.413164098574E+03   -0.32929E-03   -0.32613E-03  5105   0.445E-02    0.161E-01
RMM:   5    -0.413162691385E+03    0.14072E-02   -0.79940E-04  4820   0.288E-02    0.368E-02
RMM:   6    -0.413162706590E+03   -0.15205E-04   -0.31526E-04  5303   0.183E-02    0.264E-02
RMM:   7    -0.413162732182E+03   -0.25593E-04   -0.12200E-04  4763   0.104E-02    0.154E-02
RMM:   8    -0.413162733148E+03   -0.96509E-06   -0.17942E-05  4008   0.448E-03    0.484E-03
RMM:   9    -0.413162737701E+03   -0.45539E-05   -0.43803E-06  2564   0.220E-03    0.296E-03
RMM:  10    -0.413162745817E+03   -0.81155E-05   -0.18016E-06  2504   0.163E-03    0.147E-03
RMM:  11    -0.413162750586E+03   -0.47689E-05   -0.10807E-06  2174   0.122E-03    0.565E-04
RMM:  12    -0.413162753035E+03   -0.24493E-05   -0.48557E-07  1916   0.933E-04    0.365E-04
RMM:  13    -0.413162755087E+03   -0.20513E-05   -0.48865E-07  1643   0.856E-04    0.195E-04
RMM:  14    -0.413162756187E+03   -0.11008E-05   -0.45039E-07  1574   0.806E-04    0.165E-04
RMM:  15    -0.413162756327E+03   -0.13983E-06   -0.24651E-07  1327   0.683E-04
  147 T=    60. E= -.41286796E+03 F= -.41316276E+03 E0= -.41314210E+03  EK= 0.29480E+00 SP= 0.00E+00 SK= 0.00E+00
       N       E                     dE             d eps       ncg     rms          rms(c)
RMM:   1    -0.413171445743E+03   -0.86896E-02   -0.54473E+00  4264   0.649E-01    0.869E-01
RMM:   2    -0.413167839299E+03    0.36064E-02   -0.71726E-02  4311   0.774E-02    0.617E-01
RMM:   3    -0.413163052233E+03    0.47871E-02   -0.43863E-02  4686   0.544E-02    0.198E-01
RMM:   4    -0.413163149805E+03   -0.97572E-04   -0.29217E-03  5069   0.427E-02    0.144E-01
RMM:   5    -0.413162034887E+03    0.11149E-02   -0.66090E-04  4826   0.261E-02    0.357E-02
RMM:   6    -0.413162042980E+03   -0.80933E-05   -0.26881E-04  5252   0.170E-02    0.257E-02
RMM:   7    -0.413162052640E+03   -0.96598E-05   -0.11526E-04  4579   0.112E-02    0.159E-02
RMM:   8    -0.413162051539E+03    0.11011E-05   -0.17343E-05  3781   0.434E-03    0.474E-03
RMM:   9    -0.413162054518E+03   -0.29788E-05   -0.50429E-06  2561   0.224E-03    0.306E-03
RMM:  10    -0.413162057309E+03   -0.27918E-05   -0.18036E-06  2485   0.163E-03    0.154E-03
RMM:  11    -0.413162058663E+03   -0.13539E-05   -0.11642E-06  2166   0.123E-03    0.569E-04
RMM:  12    -0.413162059213E+03   -0.55014E-06   -0.48050E-07  1888   0.928E-04
  148 T=    60. E= -.41286780E+03 F= -.41316206E+03 E0= -.41314141E+03  EK= 0.29426E+00 SP= 0.00E+00 SK= 0.00E+00
       N       E                     dE             d eps       ncg     rms          rms(c)
RMM:   1    -0.413172736762E+03   -0.10678E-01   -0.52667E+00  4264   0.644E-01    0.852E-01
RMM:   2    -0.413169293072E+03    0.34437E-02   -0.68799E-02  4318   0.761E-02    0.615E-01
RMM:   3    -0.413164587493E+03    0.47056E-02   -0.50238E-02  4640   0.581E-02    0.253E-01
RMM:   4    -0.413163131424E+03    0.14561E-02   -0.33333E-03  4811   0.329E-02    0.395E-02
RMM:   5    -0.413163184535E+03   -0.53110E-04   -0.25051E-04  4883   0.135E-02    0.421E-02
RMM:   6    -0.413163140949E+03    0.43586E-04   -0.12330E-04  5108   0.107E-02    0.249E-02
RMM:   7    -0.413163168236E+03   -0.27287E-04   -0.90366E-05  4327   0.942E-03    0.140E-02
RMM:   8    -0.413163170398E+03   -0.21620E-05   -0.13651E-05  3302   0.378E-03    0.369E-03
RMM:   9    -0.413163176787E+03   -0.63892E-05   -0.40983E-06  2496   0.198E-03    0.359E-03
RMM:  10    -0.413163185940E+03   -0.91528E-05   -0.14163E-06  2323   0.128E-03    0.203E-03
RMM:  11    -0.413163192654E+03   -0.67139E-05   -0.14613E-06  1827   0.102E-03    0.441E-04
RMM:  12    -0.413163196492E+03   -0.38376E-05   -0.54082E-07  1591   0.843E-04    0.368E-04
RMM:  13    -0.413163200011E+03   -0.35196E-05   -0.71843E-07  1778   0.900E-04    0.208E-04
RMM:  14    -0.413163200870E+03   -0.85905E-06   -0.24917E-07  1182   0.637E-04
  149 T=    60. E= -.41286815E+03 F= -.41316320E+03 E0= -.41314256E+03  EK= 0.29505E+00 SP= 0.00E+00 SK= 0.00E+00
       N       E                     dE             d eps       ncg     rms          rms(c)
RMM:   1    -0.413173677681E+03   -0.10478E-01   -0.51911E+00  4264   0.642E-01    0.864E-01
RMM:   2    -0.413169545530E+03    0.41322E-02   -0.67747E-02  4332   0.741E-02    0.622E-01
RMM:   3    -0.413164806137E+03    0.47394E-02   -0.53173E-02  4734   0.584E-02    0.269E-01
RMM:   4    -0.413164871352E+03   -0.65215E-04   -0.53184E-03  5128   0.502E-02    0.178E-01
RMM:   5    -0.413163180497E+03    0.16909E-02   -0.96788E-04  4824   0.317E-02    0.329E-02
RMM:   6    -0.413163181653E+03   -0.11559E-05   -0.25783E-04  5355   0.165E-02    0.222E-02
RMM:   7    -0.413163226575E+03   -0.44922E-04   -0.98411E-05  4738   0.907E-03    0.128E-02
RMM:   8    -0.413163231784E+03   -0.52093E-05   -0.16518E-05  3910   0.441E-03    0.424E-03
RMM:   9    -0.413163237291E+03   -0.55070E-05   -0.30283E-06  2572   0.213E-03    0.341E-03
RMM:  10    -0.413163245527E+03   -0.82358E-05   -0.13426E-06  2481   0.147E-03    0.189E-03
RMM:  11    -0.413163253204E+03   -0.76771E-05   -0.12188E-06  2168   0.118E-03    0.642E-04
RMM:  12    -0.413163258689E+03   -0.54855E-05   -0.60508E-07  1883   0.939E-04    0.325E-04
RMM:  13    -0.413163262542E+03   -0.38525E-05   -0.44604E-07  1574   0.827E-04    0.228E-04
RMM:  14    -0.413163265489E+03   -0.29473E-05   -0.47153E-07  1662   0.830E-04    0.198E-04
RMM:  15    -0.413163266860E+03   -0.13709E-05   -0.33491E-07  1416   0.740E-04    0.901E-05
RMM:  16    -0.413163267184E+03   -0.32329E-06   -0.16820E-07  1168   0.621E-04
  150 T=    60. E= -.41286775E+03 F= -.41316327E+03 E0= -.41314262E+03  EK= 0.29551E+00 SP= 0.00E+00 SK= 0.00E+00
