       N       E                     dE             d eps       ncg     rms          rms(c)
RMM:   1     0.220179271978E+04    0.22018E+04   -0.52441E+04  2132   0.654E+02
RMM:   2     0.705565548383E+03   -0.14962E+04   -0.16262E+04  2132   0.177E+02
RMM:   3     0.137179322930E+03   -0.56839E+03   -0.65773E+03  2132   0.117E+02
RMM:   4    -0.159525699928E+03   -0.29671E+03   -0.27850E+03  2132   0.936E+01
RMM:   5    -0.287560954148E+03   -0.12804E+03   -0.11446E+03  2132   0.595E+01
RMM:   6    -0.349840844918E+03   -0.62280E+02   -0.55112E+02  2132   0.423E+01
RMM:   7    -0.382691299822E+03   -0.32850E+02   -0.30378E+02  2132   0.293E+01
RMM:   8    -0.404193678673E+03   -0.21502E+02   -0.18422E+02  2132   0.233E+01
RMM:   9    -0.435959020874E+03   -0.31765E+02   -0.30647E+02  6097   0.173E+01
RMM:  10    -0.441284631491E+03   -0.53256E+01   -0.63168E+01  6399   0.539E+00
RMM:  11    -0.442509752656E+03   -0.12251E+01   -0.11148E+01  6222   0.173E+00
RMM:  12    -0.442887959340E+03   -0.37821E+00   -0.27705E+00  6370   0.602E-01    0.134E+02
RMM:  13    -0.425637475012E+03    0.17250E+02   -0.81255E+01  4674   0.119E+01    0.712E+01
RMM:  14    -0.499983535722E+03   -0.74346E+02   -0.54282E+02  5411   0.233E+01    0.308E+01
RMM:  15    -0.416599560199E+03    0.83384E+02   -0.20157E+02  5097   0.164E+01    0.750E+00
RMM:  16    -0.414031254549E+03    0.25683E+01   -0.40247E+01  6090   0.616E+00    0.430E+00
RMM:  17    -0.413208567864E+03    0.82269E+00   -0.25726E+00  5402   0.191E+00    0.243E+00
RMM:  18    -0.413177912028E+03    0.30656E-01   -0.74727E-01  5994   0.888E-01    0.170E+00
RMM:  19    -0.413171646486E+03    0.62655E-02   -0.26151E-01  5666   0.559E-01    0.895E-01
RMM:  20    -0.413193990778E+03   -0.22344E-01   -0.31432E-01  5580   0.577E-01    0.664E-01
RMM:  21    -0.413170028895E+03    0.23962E-01   -0.38118E-02  4973   0.253E-01    0.304E-01
RMM:  22    -0.413166351189E+03    0.36777E-02   -0.24630E-02  5919   0.149E-01    0.138E-01
RMM:  23    -0.413165276695E+03    0.10745E-02   -0.56590E-03  6014   0.670E-02    0.857E-02
RMM:  24    -0.413163862570E+03    0.14141E-02   -0.17010E-03  5298   0.418E-02    0.553E-02
RMM:  25    -0.413163078355E+03    0.78421E-03   -0.92338E-04  5143   0.301E-02    0.408E-02
RMM:  26    -0.413163127768E+03   -0.49412E-04   -0.12132E-03  5825   0.356E-02    0.379E-02
RMM:  27    -0.413163497018E+03   -0.36925E-03   -0.21764E-04  4609   0.206E-02    0.227E-02
RMM:  28    -0.413163924848E+03   -0.42783E-03   -0.18890E-04  5197   0.191E-02    0.101E-02
RMM:  29    -0.413164304772E+03   -0.37992E-03   -0.12793E-04  4845   0.162E-02    0.531E-03
RMM:  30    -0.413164543248E+03   -0.23848E-03   -0.86006E-05  4281   0.109E-02    0.474E-03
RMM:  31    -0.413164683696E+03   -0.14045E-03   -0.64081E-05  3321   0.774E-03    0.408E-03
RMM:  32    -0.413164705255E+03   -0.21559E-04   -0.23826E-05  3000   0.333E-03    0.214E-03
RMM:  33    -0.413164713478E+03   -0.82236E-05   -0.96604E-06  2800   0.233E-03    0.859E-04
RMM:  34    -0.413164713952E+03   -0.47345E-06   -0.52890E-06  2667   0.177E-03
    1 T=    61. E= -.41286690E+03 F= -.41316471E+03 E0= -.41314222E+03  EK= 0.29782E+00 SP= 0.00E+00 SK= 0.00E+00
       N       E                     dE             d eps       ncg     rms          rms(c)
RMM:   1    -0.413173777493E+03   -0.90640E-02   -0.63038E+00  3993   0.492E-01    0.908E-01
RMM:   2    -0.413171579785E+03    0.21977E-02   -0.81475E-02  3968   0.738E-02    0.664E-01
RMM:   3    -0.413167473268E+03    0.41065E-02   -0.50517E-02  5061   0.756E-02    0.301E-01
RMM:   4    -0.413187079220E+03   -0.19606E-01   -0.29254E-02  5167   0.145E-01    0.632E-01
RMM:   5    -0.413164266454E+03    0.22813E-01   -0.11533E-02  4784   0.108E-01    0.469E-02
RMM:   6    -0.413164414455E+03   -0.14800E-03   -0.19521E-03  5706   0.432E-02    0.304E-02
RMM:   7    -0.413164428107E+03   -0.13652E-04   -0.34601E-04  5749   0.167E-02    0.201E-02
RMM:   8    -0.413164428575E+03   -0.46848E-06   -0.43304E-05  4959   0.734E-03    0.722E-03
RMM:   9    -0.413164432186E+03   -0.36104E-05   -0.91575E-06  3290   0.317E-03    0.478E-03
RMM:  10    -0.413164437648E+03   -0.54623E-05   -0.19305E-06  2565   0.199E-03    0.291E-03
RMM:  11    -0.413164441830E+03   -0.41819E-05   -0.11220E-06  2510   0.146E-03    0.144E-03
RMM:  12    -0.413164447671E+03   -0.58414E-05   -0.11021E-06  2496   0.140E-03    0.704E-04
RMM:  13    -0.413164450238E+03   -0.25664E-05   -0.55647E-07  2103   0.102E-03    0.452E-04
RMM:  14    -0.413164450760E+03   -0.52225E-06   -0.33017E-07  1590   0.763E-04
    2 T=    61. E= -.41286666E+03 F= -.41316445E+03 E0= -.41314195E+03  EK= 0.29779E+00 SP= 0.00E+00 SK= 0.00E+00
       N       E                     dE             d eps       ncg     rms          rms(c)
RMM:   1    -0.413175001051E+03   -0.10551E-01   -0.62552E+00  4185   0.498E-01    0.924E-01
RMM:   2    -0.413171793895E+03    0.32072E-02   -0.82156E-02  4026   0.738E-02    0.663E-01
RMM:   3    -0.413168680466E+03    0.31134E-02   -0.47088E-02  5097   0.779E-02    0.294E-01
RMM:   4    -0.413188018096E+03   -0.19338E-01   -0.30952E-02  5132   0.150E-01    0.636E-01
RMM:   5    -0.413164871032E+03    0.23147E-01   -0.10892E-02  4733   0.107E-01    0.470E-02
RMM:   6    -0.413165010245E+03   -0.13921E-03   -0.19201E-03  5653   0.431E-02    0.322E-02
RMM:   7    -0.413165010561E+03   -0.31565E-06   -0.34084E-04  5646   0.173E-02    0.215E-02
RMM:   8    -0.413165002123E+03    0.84375E-05   -0.47229E-05  5101   0.799E-03    0.840E-03
RMM:   9    -0.413165000567E+03    0.15562E-05   -0.89311E-06  3349   0.344E-03    0.507E-03
RMM:  10    -0.413165000711E+03   -0.14358E-06   -0.16628E-06  2539   0.208E-03
    3 T=    61. E= -.41286699E+03 F= -.41316500E+03 E0= -.41314251E+03  EK= 0.29801E+00 SP= 0.00E+00 SK= 0.00E+00
       N       E                     dE             d eps       ncg     rms          rms(c)
RMM:   1    -0.413174271827E+03   -0.92713E-02   -0.62158E+00  4217   0.501E-01    0.909E-01
RMM:   2    -0.413171500960E+03    0.27709E-02   -0.81372E-02  4143   0.728E-02    0.657E-01
RMM:   3    -0.413172857987E+03   -0.13570E-02   -0.50121E-02  5158   0.989E-02    0.406E-01
RMM:   4    -0.413180084529E+03   -0.72265E-02   -0.29521E-02  5078   0.150E-01    0.530E-01
RMM:   5    -0.413164730984E+03    0.15354E-01   -0.72718E-03  4607   0.882E-02    0.464E-02
RMM:   6    -0.413164772979E+03   -0.41995E-04   -0.11946E-03  5416   0.340E-02    0.296E-02
RMM:   7    -0.413164776651E+03   -0.36721E-05   -0.22918E-04  5577   0.144E-02    0.185E-02
RMM:   8    -0.413164772915E+03    0.37360E-05   -0.33922E-05  4876   0.691E-03    0.636E-03
RMM:   9    -0.413164773189E+03   -0.27328E-06   -0.47274E-06  2850   0.269E-03
    4 T=    61. E= -.41286677E+03 F= -.41316477E+03 E0= -.41314229E+03  EK= 0.29800E+00 SP= 0.00E+00 SK= 0.00E+00
       N       E                     dE             d eps       ncg     rms          rms(c)
RMM:   1    -0.413174163279E+03   -0.93904E-02   -0.63031E+00  4240   0.506E-01    0.906E-01
RMM:   2    -0.413171846310E+03    0.23170E-02   -0.81655E-02  4107   0.714E-02    0.663E-01
RMM:   3    -0.413172591411E+03   -0.74510E-03   -0.53028E-02  5142   0.963E-02    0.411E-01
RMM:   4    -0.413181120511E+03   -0.85291E-02   -0.29505E-02  5080   0.149E-01    0.550E-01
RMM:   5    -0.413164845429E+03    0.16275E-01   -0.82654E-03  4623   0.918E-02    0.459E-02
RMM:   6    -0.413164911301E+03   -0.65873E-04   -0.12782E-03  5501   0.348E-02    0.287E-02
RMM:   7    -0.413164922905E+03   -0.11603E-04   -0.24107E-04  5585   0.147E-02    0.181E-02
RMM:   8    -0.413164924377E+03   -0.14725E-05   -0.33493E-05  4807   0.684E-03    0.608E-03
RMM:   9    -0.413164927211E+03   -0.28340E-05   -0.47408E-06  2871   0.265E-03    0.360E-03
RMM:  10    -0.413164932274E+03   -0.50631E-05   -0.13016E-06  2530   0.178E-03    0.219E-03
RMM:  11    -0.413164935853E+03   -0.35792E-05   -0.76083E-07  2393   0.131E-03    0.106E-03
RMM:  12    -0.413164940350E+03   -0.44967E-05   -0.82310E-07  2444   0.122E-03    0.542E-04
RMM:  13    -0.413164942712E+03   -0.23621E-05   -0.45768E-07  1903   0.934E-04    0.329E-04
RMM:  14    -0.413164943470E+03   -0.75779E-06   -0.23113E-07  1408   0.744E-04
    5 T=    61. E= -.41286684E+03 F= -.41316494E+03 E0= -.41314247E+03  EK= 0.29811E+00 SP= 0.00E+00 SK= 0.00E+00
       N       E                     dE             d eps       ncg     rms          rms(c)
RMM:   1    -0.413175166625E+03   -0.10224E-01   -0.62712E+00  4246   0.505E-01    0.921E-01
RMM:   2    -0.413172198450E+03    0.29682E-02   -0.81578E-02  4068   0.703E-02    0.664E-01
RMM:   3    -0.413169632650E+03    0.25658E-02   -0.48120E-02  5104   0.784E-02    0.315E-01
RMM:   4    -0.413187241740E+03   -0.17609E-01   -0.30718E-02  5115   0.150E-01    0.622E-01
RMM:   5    -0.413165285496E+03    0.21956E-01   -0.10441E-02  4702   0.104E-01    0.468E-02
RMM:   6    -0.413165413852E+03   -0.12836E-03   -0.17859E-03  5622   0.415E-02    0.315E-02
RMM:   7    -0.413165411497E+03    0.23547E-05   -0.31726E-04  5622   0.168E-02    0.210E-02
RMM:   8    -0.413165406772E+03    0.47255E-05   -0.44634E-05  5033   0.786E-03    0.794E-03
RMM:   9    -0.413165406257E+03    0.51413E-06   -0.79146E-06  3200   0.330E-03
    6 T=    61. E= -.41286709E+03 F= -.41316541E+03 E0= -.41314294E+03  EK= 0.29832E+00 SP= 0.00E+00 SK= 0.00E+00
       N       E                     dE             d eps       ncg     rms          rms(c)
RMM:   1    -0.413174736916E+03   -0.93301E-02   -0.62285E+00  4268   0.509E-01    0.915E-01
RMM:   2    -0.413171908864E+03    0.28281E-02   -0.81389E-02  4270   0.711E-02    0.658E-01
RMM:   3    -0.413175635857E+03   -0.37270E-02   -0.50949E-02  5166   0.107E-01    0.451E-01
RMM:   4    -0.413177990568E+03   -0.23547E-02   -0.29426E-02  5058   0.151E-01    0.487E-01
RMM:   5    -0.413165186935E+03    0.12804E-01   -0.60221E-03  4560   0.821E-02    0.464E-02
RMM:   6    -0.413165202747E+03   -0.15811E-04   -0.97493E-04  5326   0.306E-02    0.295E-02
RMM:   7    -0.413165214289E+03   -0.11542E-04   -0.19758E-04  5467   0.137E-02    0.175E-02
RMM:   8    -0.413165209369E+03    0.49192E-05   -0.30527E-05  4738   0.694E-03    0.577E-03
RMM:   9    -0.413165208226E+03    0.11439E-05   -0.40558E-06  2761   0.253E-03    0.309E-03
RMM:  10    -0.413165207785E+03    0.44074E-06   -0.11284E-06  2503   0.166E-03
    7 T=    61. E= -.41286687E+03 F= -.41316521E+03 E0= -.41314276E+03  EK= 0.29834E+00 SP= 0.00E+00 SK= 0.00E+00
       N       E                     dE             d eps       ncg     rms          rms(c)
RMM:   1    -0.413174993054E+03   -0.97848E-02   -0.62934E+00  4274   0.519E-01    0.904E-01
RMM:   2    -0.413172816384E+03    0.21767E-02   -0.81431E-02  4126   0.725E-02    0.661E-01
RMM:   3    -0.413170482765E+03    0.23336E-02   -0.50775E-02  5073   0.843E-02    0.342E-01
RMM:   4    -0.413186760883E+03   -0.16278E-01   -0.30075E-02  5100   0.149E-01    0.615E-01
RMM:   5    -0.413165644247E+03    0.21117E-01   -0.10464E-02  4697   0.103E-01    0.455E-02
RMM:   6    -0.413165777072E+03   -0.13282E-03   -0.17545E-03  5630   0.407E-02    0.306E-02
RMM:   7    -0.413165770282E+03    0.67900E-05   -0.31035E-04  5594   0.169E-02    0.204E-02
RMM:   8    -0.413165765678E+03    0.46035E-05   -0.42320E-05  4923   0.784E-03    0.767E-03
RMM:   9    -0.413165767041E+03   -0.13631E-05   -0.79065E-06  3175   0.325E-03    0.473E-03
RMM:  10    -0.413165770294E+03   -0.32528E-05   -0.15051E-06  2532   0.200E-03    0.283E-03
RMM:  11    -0.413165772458E+03   -0.21638E-05   -0.85130E-07  2487   0.143E-03    0.146E-03
RMM:  12    -0.413165775464E+03   -0.30066E-05   -0.10511E-06  2506   0.144E-03    0.748E-04
RMM:  13    -0.413165776502E+03   -0.10373E-05   -0.50069E-07  2146   0.105E-03    0.493E-04
RMM:  14    -0.413165776374E+03    0.12802E-06   -0.19266E-07  1521   0.746E-04
    8 T=    61. E= -.41286709E+03 F= -.41316578E+03 E0= -.41314335E+03  EK= 0.29868E+00 SP= 0.00E+00 SK= 0.00E+00
       N       E                     dE             d eps       ncg     rms          rms(c)
RMM:   1    -0.413175535719E+03   -0.97592E-02   -0.62989E+00  4279   0.520E-01    0.917E-01
RMM:   2    -0.413172976792E+03    0.25589E-02   -0.81696E-02  4164   0.746E-02    0.664E-01
RMM:   3    -0.413170060740E+03    0.29161E-02   -0.48968E-02  5061   0.817E-02    0.318E-01
RMM:   4    -0.413188066848E+03   -0.18006E-01   -0.30385E-02  5101   0.149E-01    0.627E-01
RMM:   5    -0.413165825625E+03    0.22241E-01   -0.10721E-02  4710   0.104E-01    0.461E-02
RMM:   6    -0.413165957344E+03   -0.13172E-03   -0.18243E-03  5625   0.417E-02    0.314E-02
RMM:   7    -0.413165954050E+03    0.32937E-05   -0.32029E-04  5585   0.169E-02    0.208E-02
RMM:   8    -0.413165950104E+03    0.39466E-05   -0.43717E-05  4992   0.786E-03    0.793E-03
RMM:   9    -0.413165950182E+03   -0.78675E-07   -0.82738E-06  3233   0.334E-03
    9 T=    61. E= -.41286701E+03 F= -.41316595E+03 E0= -.41314354E+03  EK= 0.29894E+00 SP= 0.00E+00 SK= 0.00E+00
       N       E                     dE             d eps       ncg     rms          rms(c)
RMM:   1    -0.413175745148E+03   -0.97950E-02   -0.62588E+00  4293   0.523E-01    0.921E-01
RMM:   2    -0.413172733067E+03    0.30121E-02   -0.82030E-02  4306   0.745E-02    0.661E-01
RMM:   3    -0.413176953203E+03   -0.42201E-02   -0.51099E-02  5151   0.111E-01    0.458E-01
RMM:   4    -0.413178461547E+03   -0.15083E-02   -0.29542E-02  5046   0.151E-01    0.480E-01
RMM:   5    -0.413166026246E+03    0.12435E-01   -0.57670E-03  4561   0.806E-02    0.464E-02
RMM:   6    -0.413166028548E+03   -0.23018E-05   -0.93687E-04  5331   0.300E-02    0.297E-02
RMM:   7    -0.413166019788E+03    0.87595E-05   -0.19113E-04  5409   0.141E-02    0.174E-02
RMM:   8    -0.413166015442E+03    0.43461E-05   -0.29502E-05  4743   0.672E-03    0.572E-03
RMM:   9    -0.413166013543E+03    0.18996E-05   -0.39311E-06  2762   0.250E-03    0.303E-03
RMM:  10    -0.413166011826E+03    0.17167E-05   -0.10861E-06  2493   0.165E-03    0.178E-03
RMM:  11    -0.413166010024E+03    0.18022E-05   -0.68521E-07  2291   0.122E-03    0.854E-04
RMM:  12    -0.413166007301E+03    0.27231E-05   -0.62645E-07  2301   0.110E-03    0.453E-04
RMM:  13    -0.413166005113E+03    0.21879E-05   -0.31994E-07  1679   0.835E-04    0.293E-04
RMM:  14    -0.413166002889E+03    0.22240E-05   -0.22797E-07  1400   0.743E-04    0.175E-04
RMM:  15    -0.413165999200E+03    0.36889E-05   -0.34249E-07  1780   0.809E-04    0.311E-04
RMM:  16    -0.413165995047E+03    0.41534E-05   -0.30872E-07  1412   0.721E-04    0.152E-04
RMM:  17    -0.413165994368E+03    0.67860E-06   -0.78691E-08   926   0.548E-04
   10 T=    61. E= -.41286680E+03 F= -.41316599E+03 E0= -.41314361E+03  EK= 0.29919E+00 SP= 0.00E+00 SK= 0.00E+00
       N       E                     dE             d eps       ncg     rms          rms(c)
RMM:   1    -0.413176008855E+03   -0.10014E-01   -0.62889E+00  4291   0.531E-01    0.904E-01
RMM:   2    -0.413173713877E+03    0.22950E-02   -0.81508E-02  4224   0.742E-02    0.659E-01
RMM:   3    -0.413171001656E+03    0.27122E-02   -0.49734E-02  5058   0.817E-02    0.327E-01
RMM:   4    -0.413188636757E+03   -0.17635E-01   -0.30261E-02  5089   0.149E-01    0.625E-01
RMM:   5    -0.413166643307E+03    0.21993E-01   -0.10785E-02  4707   0.104E-01    0.455E-02
RMM:   6    -0.413166777006E+03   -0.13370E-03   -0.18003E-03  5623   0.412E-02    0.312E-02
RMM:   7    -0.413166777534E+03   -0.52838E-06   -0.31811E-04  5546   0.169E-02    0.206E-02
RMM:   8    -0.413166774937E+03    0.25971E-05   -0.42859E-05  5004   0.758E-03    0.786E-03
RMM:   9    -0.413166775757E+03   -0.82052E-06   -0.78471E-06  3209   0.329E-03
   11 T=    61. E= -.41286706E+03 F= -.41316678E+03 E0= -.41314442E+03  EK= 0.29971E+00 SP= 0.00E+00 SK= 0.00E+00
       N       E                     dE             d eps       ncg     rms          rms(c)
RMM:   1    -0.413176169960E+03   -0.93950E-02   -0.63398E+00  4296   0.534E-01    0.915E-01
RMM:   2    -0.413173666196E+03    0.25038E-02   -0.82149E-02  4320   0.737E-02    0.666E-01
RMM:   3    -0.413179091779E+03   -0.54256E-02   -0.54951E-02  5154   0.115E-01    0.494E-01
RMM:   4    -0.413178504836E+03    0.58694E-03   -0.29779E-02  5027   0.152E-01    0.476E-01
RMM:   5    -0.413166746005E+03    0.11759E-01   -0.61624E-03  4522   0.795E-02    0.452E-02
RMM:   6    -0.413166755841E+03   -0.98369E-05   -0.86824E-04  5257   0.287E-02    0.286E-02
RMM:   7    -0.413166766501E+03   -0.10659E-04   -0.17970E-04  5334   0.133E-02    0.164E-02
RMM:   8    -0.413166766113E+03    0.38806E-06   -0.27529E-05  4641   0.640E-03    0.509E-03
RMM:   9    -0.413166766722E+03   -0.60919E-06   -0.32501E-06  2671   0.234E-03
   12 T=    61. E= -.41286681E+03 F= -.41316677E+03 E0= -.41314444E+03  EK= 0.29996E+00 SP= 0.00E+00 SK= 0.00E+00
       N       E                     dE             d eps       ncg     rms          rms(c)
RMM:   1    -0.413177185992E+03   -0.10420E-01   -0.62995E+00  4292   0.536E-01    0.925E-01
RMM:   2    -0.413174007188E+03    0.31788E-02   -0.82409E-02  4273   0.709E-02    0.663E-01
RMM:   3    -0.413173690850E+03    0.31634E-03   -0.47926E-02  5131   0.896E-02    0.362E-01
RMM:   4    -0.413185424794E+03   -0.11734E-01   -0.30658E-02  5075   0.151E-01    0.569E-01
RMM:   5    -0.413167265567E+03    0.18159E-01   -0.82197E-03  4655   0.947E-02    0.469E-02
RMM:   6    -0.413167346335E+03   -0.80768E-04   -0.14413E-03  5543   0.370E-02    0.311E-02
RMM:   7    -0.413167338951E+03    0.73849E-05   -0.26834E-04  5584   0.157E-02    0.200E-02
RMM:   8    -0.413167332751E+03    0.61992E-05   -0.37747E-05  4892   0.741E-03    0.708E-03
RMM:   9    -0.413167329731E+03    0.30209E-05   -0.62595E-06  2998   0.297E-03    0.397E-03
RMM:  10    -0.413167327060E+03    0.26707E-05   -0.14076E-06  2514   0.191E-03    0.239E-03
RMM:  11    -0.413167324619E+03    0.24413E-05   -0.76726E-07  2447   0.137E-03    0.120E-03
RMM:  12    -0.413167320264E+03    0.43543E-05   -0.85839E-07  2475   0.131E-03    0.634E-04
RMM:  13    -0.413167317041E+03    0.32233E-05   -0.39988E-07  1982   0.969E-04    0.407E-04
RMM:  14    -0.413167315432E+03    0.16086E-05   -0.18644E-07  1430   0.740E-04    0.241E-04
RMM:  15    -0.413167310492E+03    0.49404E-05   -0.31630E-07  1913   0.841E-04    0.412E-04
RMM:  16    -0.413167305225E+03    0.52675E-05   -0.27229E-07  1380   0.715E-04    0.276E-04
RMM:  17    -0.413167304216E+03    0.10090E-05   -0.78695E-08   933   0.564E-04    0.192E-04
RMM:  18    -0.413167301960E+03    0.22551E-05   -0.84874E-08  1110   0.608E-04    0.521E-05
RMM:  19    -0.413167301438E+03    0.52277E-06   -0.36839E-08   840   0.543E-04
   13 T=    61. E= -.41286693E+03 F= -.41316730E+03 E0= -.41314500E+03  EK= 0.30037E+00 SP= 0.00E+00 SK= 0.00E+00
       N       E                     dE             d eps       ncg     rms          rms(c)
RMM:   1    -0.413177258412E+03   -0.99565E-02   -0.62930E+00  4295   0.544E-01    0.906E-01
RMM:   2    -0.413174837877E+03    0.24205E-02   -0.81702E-02  4266   0.720E-02    0.659E-01
RMM:   3    -0.413172372534E+03    0.24653E-02   -0.48682E-02  5083   0.796E-02    0.325E-01
RMM:   4    -0.413189932110E+03   -0.17560E-01   -0.30937E-02  5091   0.150E-01    0.624E-01
RMM:   5    -0.413167887186E+03    0.22045E-01   -0.10601E-02  4699   0.104E-01    0.460E-02
RMM:   6    -0.413168026990E+03   -0.13980E-03   -0.18147E-03  5617   0.412E-02    0.314E-02
RMM:   7    -0.413168031691E+03   -0.47006E-05   -0.31860E-04  5526   0.169E-02    0.209E-02
RMM:   8    -0.413168024688E+03    0.70033E-05   -0.42936E-05  4988   0.769E-03    0.795E-03
RMM:   9    -0.413168023849E+03    0.83869E-06   -0.78943E-06  3207   0.334E-03
   14 T=    61. E= -.41286714E+03 F= -.41316802E+03 E0= -.41314576E+03  EK= 0.30088E+00 SP= 0.00E+00 SK= 0.00E+00
       N       E                     dE             d eps       ncg     rms          rms(c)
RMM:   1    -0.413177390910E+03   -0.93662E-02   -0.63829E+00  4300   0.552E-01    0.912E-01
RMM:   2    -0.413175118302E+03    0.22726E-02   -0.82654E-02  4334   0.743E-02    0.667E-01
RMM:   3    -0.413180958325E+03   -0.58400E-02   -0.55906E-02  5147   0.118E-01    0.506E-01
RMM:   4    -0.413179620514E+03    0.13378E-02   -0.30091E-02  5028   0.153E-01    0.476E-01
RMM:   5    -0.413168045261E+03    0.11575E-01   -0.62282E-03  4507   0.803E-02    0.448E-02
RMM:   6    -0.413168060447E+03   -0.15186E-04   -0.87316E-04  5254   0.285E-02    0.284E-02
RMM:   7    -0.413168059032E+03    0.14148E-05   -0.18155E-04  5271   0.136E-02    0.163E-02
RMM:   8    -0.413168058635E+03    0.39684E-06   -0.27085E-05  4546   0.661E-03    0.501E-03
RMM:   9    -0.413168059490E+03   -0.85509E-06   -0.34196E-06  2695   0.237E-03
   15 T=    61. E= -.41286681E+03 F= -.41316806E+03 E0= -.41314583E+03  EK= 0.30125E+00 SP= 0.00E+00 SK= 0.00E+00
       N       E                     dE             d eps       ncg     rms          rms(c)
RMM:   1    -0.413178845487E+03   -0.10787E-01   -0.63421E+00  4296   0.548E-01    0.927E-01
RMM:   2    -0.413175955607E+03    0.28899E-02   -0.82880E-02  4280   0.754E-02    0.665E-01
RMM:   3    -0.413175368477E+03    0.58713E-03   -0.48128E-02  5101   0.923E-02    0.361E-01
RMM:   4    -0.413187595179E+03   -0.12227E-01   -0.30795E-02  5066   0.151E-01    0.575E-01
RMM:   5    -0.413169055657E+03    0.18540E-01   -0.84392E-03  4662   0.954E-02    0.467E-02
RMM:   6    -0.413169132276E+03   -0.76619E-04   -0.14860E-03  5558   0.374E-02    0.313E-02
RMM:   7    -0.413169125743E+03    0.65332E-05   -0.27364E-04  5546   0.162E-02    0.200E-02
RMM:   8    -0.413169117435E+03    0.83078E-05   -0.38297E-05  4888   0.749E-03    0.714E-03
RMM:   9    -0.413169114323E+03    0.31119E-05   -0.64735E-06  3023   0.302E-03    0.407E-03
RMM:  10    -0.413169111222E+03    0.31019E-05   -0.14522E-06  2524   0.194E-03    0.244E-03
RMM:  11    -0.413169108497E+03    0.27246E-05   -0.76415E-07  2449   0.138E-03    0.124E-03
RMM:  12    -0.413169103438E+03    0.50590E-05   -0.85469E-07  2482   0.133E-03    0.654E-04
RMM:  13    -0.413169099301E+03    0.41369E-05   -0.41056E-07  2006   0.984E-04    0.422E-04
RMM:  14    -0.413169097795E+03    0.15063E-05   -0.17554E-07  1438   0.732E-04    0.251E-04
RMM:  15    -0.413169091320E+03    0.64745E-05   -0.30069E-07  1914   0.847E-04    0.457E-04
RMM:  16    -0.413169086105E+03    0.52158E-05   -0.18899E-07  1267   0.665E-04    0.315E-04
RMM:  17    -0.413169084959E+03    0.11460E-05   -0.69691E-08   882   0.551E-04    0.232E-04
RMM:  18    -0.413169082681E+03    0.22780E-05   -0.65490E-08   956   0.581E-04    0.779E-05
RMM:  19    -0.413169081414E+03    0.12669E-05   -0.50014E-08  1007   0.580E-04    0.811E-05
RMM:  20    -0.413169081427E+03   -0.13028E-07   -0.14757E-08   658   0.523E-04
   16 T=    61. E= -.41286711E+03 F= -.41316908E+03 E0= -.41314688E+03  EK= 0.30197E+00 SP= 0.00E+00 SK= 0.00E+00
       N       E                     dE             d eps       ncg     rms          rms(c)
RMM:   1    -0.413178940794E+03   -0.98594E-02   -0.63194E+00  4295   0.558E-01    0.910E-01
RMM:   2    -0.413176495897E+03    0.24449E-02   -0.82487E-02  4275   0.775E-02    0.660E-01
RMM:   3    -0.413173834638E+03    0.26613E-02   -0.47783E-02  5043   0.829E-02    0.316E-01
RMM:   4    -0.413191995888E+03   -0.18161E-01   -0.31224E-02  5074   0.151E-01    0.630E-01
RMM:   5    -0.413169443512E+03    0.22552E-01   -0.10697E-02  4708   0.105E-01    0.461E-02
RMM:   6    -0.413169575192E+03   -0.13168E-03   -0.18302E-03  5623   0.417E-02    0.321E-02
RMM:   7    -0.413169567195E+03    0.79967E-05   -0.32280E-04  5529   0.174E-02    0.211E-02
RMM:   8    -0.413169560711E+03    0.64846E-05   -0.44573E-05  5008   0.798E-03    0.811E-03
RMM:   9    -0.413169558960E+03    0.17511E-05   -0.87227E-06  3258   0.344E-03    0.492E-03
RMM:  10    -0.413169558499E+03    0.46022E-06   -0.15587E-06  2522   0.207E-03
   17 T=    62. E= -.41286699E+03 F= -.41316956E+03 E0= -.41314740E+03  EK= 0.30257E+00 SP= 0.00E+00 SK= 0.00E+00
       N       E                     dE             d eps       ncg     rms          rms(c)
RMM:   1    -0.413179329264E+03   -0.97703E-02   -0.64276E+00  4306   0.564E-01    0.911E-01
RMM:   2    -0.413177252991E+03    0.20763E-02   -0.83308E-02  4296   0.787E-02    0.668E-01
RMM:   3    -0.413178851481E+03   -0.15985E-02   -0.53532E-02  5102   0.105E-01    0.433E-01
RMM:   4    -0.413185538047E+03   -0.66866E-02   -0.30219E-02  5042   0.151E-01    0.539E-01
RMM:   5    -0.413169988667E+03    0.15549E-01   -0.78000E-03  4586   0.893E-02    0.457E-02
RMM:   6    -0.413170047234E+03   -0.58567E-04   -0.12489E-03  5441   0.334E-02    0.291E-02
RMM:   7    -0.413170043938E+03    0.32955E-05   -0.23121E-04  5452   0.147E-02    0.181E-02
RMM:   8    -0.413170043070E+03    0.86812E-06   -0.32553E-05  4747   0.699E-03    0.603E-03
RMM:   9    -0.413170043444E+03   -0.37372E-06   -0.48605E-06  2851   0.272E-03
   18 T=    62. E= -.41286686E+03 F= -.41317004E+03 E0= -.41314793E+03  EK= 0.30319E+00 SP= 0.00E+00 SK= 0.00E+00
       N       E                     dE             d eps       ncg     rms          rms(c)
RMM:   1    -0.413181036131E+03   -0.10993E-01   -0.63977E+00  4296   0.562E-01    0.928E-01
RMM:   2    -0.413178113202E+03    0.29229E-02   -0.83546E-02  4294   0.777E-02    0.668E-01
RMM:   3    -0.413179045229E+03   -0.93203E-03   -0.49423E-02  5119   0.976E-02    0.396E-01
RMM:   4    -0.413187914431E+03   -0.88692E-02   -0.30858E-02  5055   0.152E-01    0.548E-01
RMM:   5    -0.413171255548E+03    0.16659E-01   -0.75535E-03  4619   0.911E-02    0.470E-02
RMM:   6    -0.413171317052E+03   -0.61504E-04   -0.13365E-03  5489   0.349E-02    0.306E-02
RMM:   7    -0.413171313406E+03    0.36457E-05   -0.24715E-04  5530   0.153E-02    0.192E-02
RMM:   8    -0.413171306319E+03    0.70873E-05   -0.35606E-05  4828   0.743E-03    0.664E-03
RMM:   9    -0.413171303097E+03    0.32214E-05   -0.55752E-06  2915   0.288E-03    0.370E-03
RMM:  10    -0.413171300201E+03    0.28967E-05   -0.13545E-06  2518   0.186E-03    0.223E-03
RMM:  11    -0.413171297481E+03    0.27196E-05   -0.72244E-07  2407   0.133E-03    0.112E-03
RMM:  12    -0.413171292620E+03    0.48608E-05   -0.75155E-07  2449   0.125E-03    0.600E-04
RMM:  13    -0.413171288713E+03    0.39071E-05   -0.35185E-07  1888   0.921E-04    0.373E-04
RMM:  14    -0.413171286663E+03    0.20500E-05   -0.16613E-07  1348   0.713E-04    0.217E-04
RMM:  15    -0.413171280377E+03    0.62857E-05   -0.24207E-07  1684   0.789E-04    0.359E-04
RMM:  16    -0.413171274442E+03    0.59351E-05   -0.17796E-07  1257   0.668E-04    0.246E-04
RMM:  17    -0.413171273170E+03    0.12727E-05   -0.66112E-08   908   0.562E-04    0.170E-04
RMM:  18    -0.413171270654E+03    0.25160E-05   -0.58887E-08   979   0.578E-04    0.588E-05
RMM:  19    -0.413171269490E+03    0.11635E-05   -0.39576E-08   921   0.562E-04    0.520E-05
RMM:  20    -0.413171269356E+03    0.13422E-06   -0.14282E-08   667   0.521E-04
   19 T=    62. E= -.41286721E+03 F= -.41317127E+03 E0= -.41314919E+03  EK= 0.30406E+00 SP= 0.00E+00 SK= 0.00E+00
       N       E                     dE             d eps       ncg     rms          rms(c)
RMM:   1    -0.413181157028E+03   -0.98875E-02   -0.63700E+00  4296   0.566E-01    0.917E-01
RMM:   2    -0.413178437122E+03    0.27199E-02   -0.83108E-02  4279   0.756E-02    0.662E-01
RMM:   3    -0.413175882611E+03    0.25545E-02   -0.46850E-02  5071   0.788E-02    0.308E-01
RMM:   4    -0.413194661790E+03   -0.18779E-01   -0.31988E-02  5080   0.152E-01    0.636E-01
RMM:   5    -0.413171565669E+03    0.23096E-01   -0.10831E-02  4706   0.106E-01    0.467E-02
RMM:   6    -0.413171698202E+03   -0.13253E-03   -0.18831E-03  5634   0.422E-02    0.325E-02
RMM:   7    -0.413171689051E+03    0.91510E-05   -0.33150E-04  5526   0.177E-02    0.217E-02
RMM:   8    -0.413171685734E+03    0.33172E-05   -0.47028E-05  5018   0.840E-03    0.847E-03
RMM:   9    -0.413171682769E+03    0.29655E-05   -0.94965E-06  3339   0.358E-03    0.505E-03
RMM:  10    -0.413171681116E+03    0.16526E-05   -0.16525E-06  2537   0.212E-03    0.301E-03
RMM:  11    -0.413171679464E+03    0.16526E-05   -0.83691E-07  2490   0.146E-03    0.159E-03
RMM:  12    -0.413171676138E+03    0.33253E-05   -0.10364E-06  2502   0.151E-03    0.848E-04
RMM:  13    -0.413171673472E+03    0.26658E-05   -0.43919E-07  2180   0.107E-03    0.580E-04
RMM:  14    -0.413171672952E+03    0.52014E-06   -0.19068E-07  1592   0.761E-04
   20 T=    62. E= -.41286696E+03 F= -.41317167E+03 E0= -.41314964E+03  EK= 0.30471E+00 SP= 0.00E+00 SK= 0.00E+00
       N       E                     dE             d eps       ncg     rms          rms(c)
RMM:   1    -0.413181979877E+03   -0.10306E-01   -0.64663E+00  4294   0.577E-01    0.911E-01
RMM:   2    -0.413179820132E+03    0.21597E-02   -0.83596E-02  4276   0.759E-02    0.668E-01
RMM:   3    -0.413176844138E+03    0.29760E-02   -0.50182E-02  5059   0.776E-02    0.323E-01
RMM:   4    -0.413196125937E+03   -0.19282E-01   -0.31362E-02  5083   0.151E-01    0.643E-01
RMM:   5    -0.413172678185E+03    0.23448E-01   -0.11517E-02  4716   0.108E-01    0.459E-02
RMM:   6    -0.413172824339E+03   -0.14615E-03   -0.19407E-03  5678   0.424E-02    0.315E-02
RMM:   7    -0.413172828898E+03   -0.45588E-05   -0.33513E-04  5544   0.177E-02    0.211E-02
RMM:   8    -0.413172826039E+03    0.28594E-05   -0.46591E-05  4976   0.833E-03    0.837E-03
RMM:   9    -0.413172824954E+03    0.10850E-05   -0.97487E-06  3367   0.365E-03    0.520E-03
RMM:  10    -0.413172825992E+03   -0.10379E-05   -0.15971E-06  2533   0.209E-03    0.310E-03
RMM:  11    -0.413172826410E+03   -0.41899E-06   -0.88109E-07  2487   0.149E-03
   21 T=    62. E= -.41286717E+03 F= -.41317283E+03 E0= -.41315084E+03  EK= 0.30565E+00 SP= 0.00E+00 SK= 0.00E+00
       N       E                     dE             d eps       ncg     rms          rms(c)
RMM:   1    -0.413183978106E+03   -0.11152E-01   -0.64722E+00  4300   0.583E-01    0.927E-01
RMM:   2    -0.413180889617E+03    0.30885E-02   -0.84485E-02  4284   0.775E-02    0.671E-01
RMM:   3    -0.413176857764E+03    0.40319E-02   -0.47150E-02  5006   0.724E-02    0.273E-01
RMM:   4    -0.413199085238E+03   -0.22227E-01   -0.30809E-02  5098   0.149E-01    0.662E-01
RMM:   5    -0.413173794001E+03    0.25291E-01   -0.12163E-02  4745   0.112E-01    0.457E-02
RMM:   6    -0.413173968144E+03   -0.17414E-03   -0.21277E-03  5739   0.446E-02    0.325E-02
RMM:   7    -0.413173964744E+03    0.34004E-05   -0.35055E-04  5591   0.187E-02    0.221E-02
RMM:   8    -0.413173953534E+03    0.11210E-04   -0.52068E-05  4905   0.900E-03    0.958E-03
RMM:   9    -0.413173949673E+03    0.38616E-05   -0.11992E-05  3566   0.399E-03    0.622E-03
RMM:  10    -0.413173947511E+03    0.21621E-05   -0.18814E-06  2555   0.227E-03    0.365E-03
RMM:  11    -0.413173945166E+03    0.23443E-05   -0.11278E-06  2501   0.170E-03    0.184E-03
RMM:  12    -0.413173940991E+03    0.41749E-05   -0.13333E-06  2527   0.172E-03    0.101E-03
RMM:  13    -0.413173938101E+03    0.28903E-05   -0.43735E-07  2272   0.114E-03    0.610E-04
RMM:  14    -0.413173937768E+03    0.33354E-06   -0.19322E-07  1607   0.768E-04
   22 T=    62. E= -.41286728E+03 F= -.41317394E+03 E0= -.41315200E+03  EK= 0.30665E+00 SP= 0.00E+00 SK= 0.00E+00
       N       E                     dE             d eps       ncg     rms          rms(c)
RMM:   1    -0.413184343450E+03   -0.10405E-01   -0.64451E+00  4296   0.580E-01    0.926E-01
RMM:   2    -0.413181567297E+03    0.27762E-02   -0.84280E-02  4294   0.782E-02    0.666E-01
RMM:   3    -0.413177960870E+03    0.36064E-02   -0.45873E-02  5021   0.773E-02    0.277E-01
RMM:   4    -0.413199808038E+03   -0.21847E-01   -0.32077E-02  5099   0.152E-01    0.661E-01
RMM:   5    -0.413174556228E+03    0.25252E-01   -0.11864E-02  4742   0.111E-01    0.470E-02
RMM:   6    -0.413174709566E+03   -0.15334E-03   -0.20871E-03  5694   0.445E-02    0.333E-02
RMM:   7    -0.413174697173E+03    0.12393E-04   -0.36214E-04  5557   0.185E-02    0.224E-02
RMM:   8    -0.413174687445E+03    0.97283E-05   -0.51091E-05  5056   0.855E-03    0.929E-03
RMM:   9    -0.413174683291E+03    0.41531E-05   -0.10380E-05  3487   0.373E-03    0.570E-03
RMM:  10    -0.413174679648E+03    0.36439E-05   -0.17910E-06  2542   0.218E-03    0.339E-03
RMM:  11    -0.413174676431E+03    0.32168E-05   -0.94541E-07  2497   0.155E-03    0.180E-03
RMM:  12    -0.413174670497E+03    0.59335E-05   -0.12503E-06  2523   0.165E-03    0.930E-04
RMM:  13    -0.413174666167E+03    0.43304E-05   -0.49661E-07  2263   0.115E-03    0.682E-04
RMM:  14    -0.413174665894E+03    0.27292E-06   -0.20482E-07  1667   0.785E-04
   23 T=    63. E= -.41286701E+03 F= -.41317467E+03 E0= -.41315277E+03  EK= 0.30765E+00 SP= 0.00E+00 SK= 0.00E+00
       N       E                     dE             d eps       ncg     rms          rms(c)
RMM:   1    -0.413185488923E+03   -0.10823E-01   -0.65130E+00  4296   0.588E-01    0.913E-01
RMM:   2    -0.413183481318E+03    0.20076E-02   -0.84632E-02  4301   0.801E-02    0.668E-01
RMM:   3    -0.413179831146E+03    0.36502E-02   -0.49251E-02  4996   0.808E-02    0.302E-01
RMM:   4    -0.413200849826E+03   -0.21019E-01   -0.31058E-02  5090   0.150E-01    0.657E-01
RMM:   5    -0.413176140512E+03    0.24709E-01   -0.12044E-02  4738   0.111E-01    0.458E-02
RMM:   6    -0.413176293873E+03   -0.15336E-03   -0.20642E-03  5728   0.438E-02    0.319E-02
RMM:   7    -0.413176288131E+03    0.57419E-05   -0.34917E-04  5552   0.183E-02    0.217E-02
RMM:   8    -0.413176283845E+03    0.42868E-05   -0.50987E-05  4969   0.864E-03    0.902E-03
RMM:   9    -0.413176281861E+03    0.19833E-05   -0.10479E-05  3475   0.379E-03    0.570E-03
RMM:  10    -0.413176281782E+03    0.79275E-07   -0.17209E-06  2536   0.215E-03
   24 T=    63. E= -.41286726E+03 F= -.41317628E+03 E0= -.41315444E+03  EK= 0.30903E+00 SP= 0.00E+00 SK= 0.00E+00
       N       E                     dE             d eps       ncg     rms          rms(c)
RMM:   1    -0.413186822496E+03   -0.10541E-01   -0.65660E+00  4301   0.591E-01    0.927E-01
RMM:   2    -0.413184514609E+03    0.23079E-02   -0.85402E-02  4324   0.818E-02    0.675E-01
RMM:   3    -0.413185861342E+03   -0.13467E-02   -0.51660E-02  5085   0.106E-01    0.418E-01
RMM:   4    -0.413193940947E+03   -0.80796E-02   -0.31045E-02  5046   0.154E-01    0.552E-01
RMM:   5    -0.413177241676E+03    0.16699E-01   -0.77342E-03  4613   0.917E-02    0.464E-02
RMM:   6    -0.413177308170E+03   -0.66494E-04   -0.13699E-03  5533   0.349E-02    0.303E-02
RMM:   7    -0.413177305236E+03    0.29342E-05   -0.24962E-04  5450   0.154E-02    0.192E-02
RMM:   8    -0.413177301171E+03    0.40649E-05   -0.35606E-05  4813   0.734E-03    0.663E-03
RMM:   9    -0.413177299120E+03    0.20513E-05   -0.55453E-06  2927   0.288E-03    0.375E-03
RMM:  10    -0.413177297474E+03    0.16452E-05   -0.12300E-06  2506   0.182E-03    0.226E-03
RMM:  11    -0.413177295664E+03    0.18104E-05   -0.67626E-07  2398   0.130E-03    0.115E-03
RMM:  12    -0.413177292067E+03    0.35970E-05   -0.69618E-07  2432   0.122E-03    0.593E-04
RMM:  13    -0.413177289477E+03    0.25901E-05   -0.30511E-07  1861   0.893E-04    0.389E-04
RMM:  14    -0.413177287462E+03    0.20148E-05   -0.15466E-07  1333   0.707E-04    0.223E-04
RMM:  15    -0.413177282584E+03    0.48781E-05   -0.17099E-07  1464   0.728E-04    0.269E-04
RMM:  16    -0.413177276658E+03    0.59262E-05   -0.15330E-07  1200   0.663E-04    0.201E-04
RMM:  17    -0.413177274868E+03    0.17900E-05   -0.60017E-08   923   0.575E-04    0.139E-04
RMM:  18    -0.413177271906E+03    0.29618E-05   -0.53205E-08  1020   0.591E-04    0.542E-05
RMM:  19    -0.413177270842E+03    0.10640E-05   -0.27510E-08   821   0.550E-04    0.262E-05
RMM:  20    -0.413177270421E+03    0.42136E-06   -0.14507E-08   703   0.532E-04
   25 T=    63. E= -.41286702E+03 F= -.41317727E+03 E0= -.41315547E+03  EK= 0.31025E+00 SP= 0.00E+00 SK= 0.00E+00
       N       E                     dE             d eps       ncg     rms          rms(c)
RMM:   1    -0.413188608838E+03   -0.11338E-01   -0.65466E+00  4293   0.597E-01    0.936E-01
RMM:   2    -0.413185602464E+03    0.30064E-02   -0.86015E-02  4301   0.808E-02    0.672E-01
RMM:   3    -0.413181978459E+03    0.36240E-02   -0.45723E-02  5006   0.805E-02    0.275E-01
RMM:   4    -0.413204548455E+03   -0.22570E-01   -0.32875E-02  5095   0.154E-01    0.670E-01
RMM:   5    -0.413178560268E+03    0.25988E-01   -0.12164E-02  4740   0.112E-01    0.473E-02
RMM:   6    -0.413178713803E+03   -0.15353E-03   -0.21621E-03  5736   0.449E-02    0.338E-02
RMM:   7    -0.413178704279E+03    0.95235E-05   -0.36654E-04  5536   0.187E-02    0.228E-02
RMM:   8    -0.413178695286E+03    0.89927E-05   -0.52942E-05  5049   0.877E-03    0.963E-03
RMM:   9    -0.413178690693E+03    0.45935E-05   -0.10814E-05  3547   0.388E-03    0.589E-03
RMM:  10    -0.413178687232E+03    0.34606E-05   -0.18758E-06  2555   0.224E-03    0.350E-03
RMM:  11    -0.413178684298E+03    0.29344E-05   -0.96442E-07  2498   0.157E-03    0.189E-03
RMM:  12    -0.413178678858E+03    0.54398E-05   -0.13191E-06  2526   0.171E-03    0.958E-04
RMM:  13    -0.413178674839E+03    0.40194E-05   -0.53376E-07  2287   0.118E-03    0.720E-04
RMM:  14    -0.413178674589E+03    0.24970E-06   -0.21652E-07  1721   0.802E-04
   26 T=    63. E= -.41286706E+03 F= -.41317867E+03 E0= -.41315693E+03  EK= 0.31161E+00 SP= 0.00E+00 SK= 0.00E+00
       N       E                     dE             d eps       ncg     rms          rms(c)
RMM:   1    -0.413190117234E+03   -0.11442E-01   -0.65819E+00  4294   0.610E-01    0.917E-01
RMM:   2    -0.413187652452E+03    0.24648E-02   -0.86139E-02  4292   0.830E-02    0.670E-01
RMM:   3    -0.413183516103E+03    0.41363E-02   -0.47779E-02  4996   0.765E-02    0.281E-01
RMM:   4    -0.413206087950E+03   -0.22572E-01   -0.31219E-02  5105   0.150E-01    0.668E-01
RMM:   5    -0.413180355450E+03    0.25732E-01   -0.12427E-02  4747   0.112E-01    0.461E-02
RMM:   6    -0.413180518449E+03   -0.16300E-03   -0.21658E-03  5776   0.445E-02    0.322E-02
RMM:   7    -0.413180514444E+03    0.40052E-05   -0.34831E-04  5555   0.184E-02    0.220E-02
RMM:   8    -0.413180508609E+03    0.58351E-05   -0.54159E-05  4952   0.871E-03    0.971E-03
RMM:   9    -0.413180506522E+03    0.20871E-05   -0.10896E-05  3580   0.393E-03    0.615E-03
RMM:  10    -0.413180505403E+03    0.11183E-05   -0.18630E-06  2549   0.223E-03    0.364E-03
RMM:  11    -0.413180503778E+03    0.16253E-05   -0.10693E-06  2497   0.166E-03    0.188E-03
RMM:  12    -0.413180500663E+03    0.31146E-05   -0.13199E-06  2516   0.172E-03    0.102E-03
RMM:  13    -0.413180498409E+03    0.22546E-05   -0.43905E-07  2265   0.115E-03    0.653E-04
RMM:  14    -0.413180497949E+03    0.45944E-06   -0.19438E-07  1649   0.778E-04
   27 T=    64. E= -.41286733E+03 F= -.41318050E+03 E0= -.41315880E+03  EK= 0.31317E+00 SP= 0.00E+00 SK= 0.00E+00
       N       E                     dE             d eps       ncg     rms          rms(c)
RMM:   1    -0.413191163696E+03   -0.10665E-01   -0.66799E+00  4294   0.612E-01    0.928E-01
RMM:   2    -0.413188817976E+03    0.23457E-02   -0.87506E-02  4292   0.851E-02    0.679E-01
RMM:   3    -0.413184483934E+03    0.43340E-02   -0.48983E-02  4998   0.745E-02    0.283E-01
RMM:   4    -0.413207235364E+03   -0.22751E-01   -0.30841E-02  5112   0.149E-01    0.668E-01
RMM:   5    -0.413181508615E+03    0.25727E-01   -0.12547E-02  4749   0.113E-01    0.459E-02
RMM:   6    -0.413181662735E+03   -0.15412E-03   -0.21863E-03  5795   0.446E-02    0.320E-02
RMM:   7    -0.413181663181E+03   -0.44645E-06   -0.34716E-04  5553   0.184E-02    0.218E-02
RMM:   8    -0.413181657997E+03    0.51843E-05   -0.54041E-05  4946   0.879E-03    0.976E-03
RMM:   9    -0.413181655623E+03    0.23738E-05   -0.10967E-05  3603   0.399E-03    0.621E-03
RMM:  10    -0.413181655087E+03    0.53673E-06   -0.19417E-06  2566   0.229E-03
   28 T=    64. E= -.41286704E+03 F= -.41318166E+03 E0= -.41316001E+03  EK= 0.31462E+00 SP= 0.00E+00 SK= 0.00E+00
       N       E                     dE             d eps       ncg     rms          rms(c)
RMM:   1    -0.413193677387E+03   -0.12022E-01   -0.66631E+00  4296   0.616E-01    0.944E-01
RMM:   2    -0.413190791299E+03    0.28861E-02   -0.87839E-02  4319   0.870E-02    0.678E-01
RMM:   3    -0.413191187800E+03   -0.39650E-03   -0.48504E-02  5100   0.997E-02    0.384E-01
RMM:   4    -0.413202337507E+03   -0.11150E-01   -0.32756E-02  5052   0.157E-01    0.575E-01
RMM:   5    -0.413183639236E+03    0.18698E-01   -0.81625E-03  4647   0.964E-02    0.479E-02
RMM:   6    -0.413183698823E+03   -0.59587E-04   -0.15198E-03  5609   0.372E-02    0.321E-02
RMM:   7    -0.413183690750E+03    0.80729E-05   -0.27889E-04  5440   0.168E-02    0.206E-02
RMM:   8    -0.413183687146E+03    0.36045E-05   -0.41154E-05  4897   0.823E-03    0.752E-03
RMM:   9    -0.413183682837E+03    0.43087E-05   -0.76681E-06  3089   0.329E-03    0.409E-03
RMM:  10    -0.413183678192E+03    0.46444E-05   -0.15233E-06  2539   0.202E-03    0.248E-03
RMM:  11    -0.413183673989E+03    0.42035E-05   -0.81763E-07  2458   0.142E-03    0.129E-03
RMM:  12    -0.413183666775E+03    0.72135E-05   -0.84772E-07  2472   0.135E-03    0.639E-04
RMM:  13    -0.413183662588E+03    0.41879E-05   -0.38253E-07  1994   0.975E-04    0.443E-04
RMM:  14    -0.413183659799E+03    0.27887E-05   -0.19351E-07  1486   0.751E-04    0.271E-04
RMM:  15    -0.413183653016E+03    0.67831E-05   -0.18739E-07  1567   0.752E-04    0.291E-04
RMM:  16    -0.413183645100E+03    0.79152E-05   -0.15487E-07  1249   0.665E-04    0.232E-04
RMM:  17    -0.413183642271E+03    0.28295E-05   -0.70932E-08   973   0.580E-04    0.152E-04
RMM:  18    -0.413183638660E+03    0.36109E-05   -0.61282E-08  1078   0.598E-04    0.492E-05
RMM:  19    -0.413183637584E+03    0.10755E-05   -0.33728E-08   888   0.552E-04    0.431E-05
RMM:  20    -0.413183637261E+03    0.32313E-06   -0.16301E-08   721   0.526E-04
   29 T=    64. E= -.41286723E+03 F= -.41318364E+03 E0= -.41316204E+03  EK= 0.31641E+00 SP= 0.00E+00 SK= 0.00E+00
       N       E                     dE             d eps       ncg     rms          rms(c)
RMM:   1    -0.413194870844E+03   -0.11233E-01   -0.66704E+00  4295   0.629E-01    0.925E-01
RMM:   2    -0.413192838847E+03    0.20320E-02   -0.87761E-02  4290   0.903E-02    0.674E-01
RMM:   3    -0.413188089141E+03    0.47497E-02   -0.46830E-02  4961   0.761E-02    0.261E-01
RMM:   4    -0.413211697932E+03   -0.23609E-01   -0.30870E-02  5110   0.149E-01    0.674E-01
RMM:   5    -0.413185357462E+03    0.26340E-01   -0.12747E-02  4758   0.114E-01    0.461E-02
RMM:   6    -0.413185517776E+03   -0.16031E-03   -0.22626E-03  5822   0.451E-02    0.324E-02
RMM:   7    -0.413185529655E+03   -0.11880E-04   -0.34402E-04  5566   0.186E-02    0.220E-02
RMM:   8    -0.413185527107E+03    0.25481E-05   -0.59298E-05  4933   0.913E-03    0.104E-02
RMM:   9    -0.413185524035E+03    0.30725E-05   -0.11917E-05  3701   0.422E-03    0.665E-03
RMM:  10    -0.413185522716E+03    0.13189E-05   -0.22362E-06  2586   0.244E-03    0.387E-03
RMM:  11    -0.413185520962E+03    0.17543E-05   -0.12650E-06  2516   0.178E-03    0.200E-03
RMM:  12    -0.413185517897E+03    0.30643E-05   -0.14358E-06  2522   0.181E-03    0.108E-03
RMM:  13    -0.413185516077E+03    0.18204E-05   -0.46825E-07  2296   0.119E-03    0.688E-04
RMM:  14    -0.413185515385E+03    0.69195E-06   -0.21080E-07  1722   0.803E-04
   30 T=    65. E= -.41286729E+03 F= -.41318552E+03 E0= -.41316397E+03  EK= 0.31822E+00 SP= 0.00E+00 SK= 0.00E+00
       N       E                     dE             d eps       ncg     rms          rms(c)
RMM:   1    -0.413197826206E+03   -0.12310E-01   -0.68159E+00  4297   0.648E-01    0.929E-01
RMM:   2    -0.413194984486E+03    0.28417E-02   -0.94308E-02  4282   0.964E-02    0.684E-01
RMM:   3    -0.413189155036E+03    0.58295E-02   -0.48133E-02  4832   0.772E-02    0.250E-01
RMM:   4    -0.413210109285E+03   -0.20954E-01   -0.25503E-02  5121   0.137E-01    0.632E-01
RMM:   5    -0.413186979689E+03    0.23130E-01   -0.11372E-02  4782   0.106E-01    0.436E-02
RMM:   6    -0.413187113980E+03   -0.13429E-03   -0.19328E-03  5852   0.417E-02    0.297E-02
RMM:   7    -0.413187126973E+03   -0.12993E-04   -0.25710E-04  5594   0.164E-02    0.183E-02
RMM:   8    -0.413187125741E+03    0.12319E-05   -0.54093E-05  4939   0.810E-03    0.986E-03
RMM:   9    -0.413187122492E+03    0.32492E-05   -0.10768E-05  3725   0.399E-03    0.648E-03
RMM:  10    -0.413187122297E+03    0.19477E-06   -0.19492E-06  2558   0.231E-03
   31 T=    65. E= -.41286706E+03 F= -.41318712E+03 E0= -.41316562E+03  EK= 0.32007E+00 SP= 0.00E+00 SK= 0.00E+00
       N       E                     dE             d eps       ncg     rms          rms(c)
RMM:   1    -0.413199846218E+03   -0.12724E-01   -0.67959E+00  4301   0.649E-01    0.950E-01
RMM:   2    -0.413197270922E+03    0.25753E-02   -0.90525E-02  4307   0.103E-01    0.685E-01
RMM:   3    -0.413195527522E+03    0.17434E-02   -0.48005E-02  5024   0.101E-01    0.344E-01
RMM:   4    -0.413212438856E+03   -0.16911E-01   -0.34178E-02  5064   0.159E-01    0.631E-01
RMM:   5    -0.413189605924E+03    0.22833E-01   -0.10183E-02  4688   0.105E-01    0.482E-02
RMM:   6    -0.413189726137E+03   -0.12021E-03   -0.19489E-03  5702   0.416E-02    0.335E-02
RMM:   7    -0.413189730442E+03   -0.43051E-05   -0.33333E-04  5464   0.180E-02    0.223E-02
RMM:   8    -0.413189728123E+03    0.23195E-05   -0.48553E-05  5018   0.856E-03    0.883E-03
RMM:   9    -0.413189723399E+03    0.47237E-05   -0.96002E-06  3302   0.367E-03    0.495E-03
RMM:  10    -0.413189718849E+03    0.45506E-05   -0.17787E-06  2555   0.219E-03    0.298E-03
RMM:  11    -0.413189714717E+03    0.41313E-05   -0.87400E-07  2489   0.151E-03    0.160E-03
RMM:  12    -0.413189707145E+03    0.75721E-05   -0.10117E-06  2496   0.151E-03    0.774E-04
RMM:  13    -0.413189703104E+03    0.40407E-05   -0.43335E-07  2187   0.107E-03    0.563E-04
RMM:  14    -0.413189700890E+03    0.22143E-05   -0.20457E-07  1668   0.785E-04    0.353E-04
RMM:  15    -0.413189695261E+03    0.56292E-05   -0.15547E-07  1512   0.733E-04    0.223E-04
RMM:  16    -0.413189687641E+03    0.76199E-05   -0.13785E-07  1412   0.685E-04    0.301E-04
RMM:  17    -0.413189683538E+03    0.41032E-05   -0.71243E-08  1007   0.586E-04    0.219E-04
RMM:  18    -0.413189679093E+03    0.44445E-05   -0.63338E-08  1079   0.595E-04    0.845E-05
RMM:  19    -0.413189677615E+03    0.14782E-05   -0.38126E-08   941   0.562E-04    0.468E-05
RMM:  20    -0.413189676841E+03    0.77419E-06   -0.20285E-08   795   0.542E-04
   32 T=    66. E= -.41286738E+03 F= -.41318968E+03 E0= -.41316823E+03  EK= 0.32230E+00 SP= 0.00E+00 SK= 0.00E+00
       N       E                     dE             d eps       ncg     rms          rms(c)
RMM:   1    -0.413201295724E+03   -0.11618E-01   -0.67952E+00  4302   0.662E-01    0.938E-01
RMM:   2    -0.413198956720E+03    0.23390E-02   -0.90835E-02  4284   0.102E-01    0.680E-01
RMM:   3    -0.413193416327E+03    0.55404E-02   -0.45976E-02  4793   0.828E-02    0.228E-01
RMM:   4    -0.413215590660E+03   -0.22174E-01   -0.26376E-02  5115   0.139E-01    0.646E-01
RMM:   5    -0.413191344285E+03    0.24246E-01   -0.11894E-02  4777   0.108E-01    0.448E-02
RMM:   6    -0.413191500949E+03   -0.15666E-03   -0.20611E-03  5828   0.430E-02    0.311E-02
RMM:   7    -0.413191519713E+03   -0.18764E-04   -0.25968E-04  5554   0.171E-02    0.185E-02
RMM:   8    -0.413191518969E+03    0.74433E-06   -0.57301E-05  4968   0.829E-03    0.105E-02
RMM:   9    -0.413191514077E+03    0.48916E-05   -0.11964E-05  3857   0.412E-03    0.686E-03
RMM:  10    -0.413191511848E+03    0.22288E-05   -0.21194E-06  2575   0.246E-03    0.395E-03
RMM:  11    -0.413191509108E+03    0.27403E-05   -0.14363E-06  2524   0.190E-03    0.203E-03
RMM:  12    -0.413191504692E+03    0.44164E-05   -0.14142E-06  2515   0.186E-03    0.114E-03
RMM:  13    -0.413191502654E+03    0.20380E-05   -0.45509E-07  2288   0.119E-03    0.698E-04
RMM:  14    -0.413191501748E+03    0.90610E-06   -0.20767E-07  1736   0.803E-04
   33 T=    66. E= -.41286714E+03 F= -.41319150E+03 E0= -.41317010E+03  EK= 0.32436E+00 SP= 0.00E+00 SK= 0.00E+00
       N       E                     dE             d eps       ncg     rms          rms(c)
RMM:   1    -0.413204083800E+03   -0.12581E-01   -0.69398E+00  4304   0.680E-01    0.935E-01
RMM:   2    -0.413201446727E+03    0.26371E-02   -0.95737E-02  4272   0.106E-01    0.689E-01
RMM:   3    -0.413195478270E+03    0.59685E-02   -0.48691E-02  4645   0.823E-02    0.234E-01
RMM:   4    -0.413208265571E+03   -0.12787E-01   -0.15768E-02  5120   0.108E-01    0.503E-01
RMM:   5    -0.413193775889E+03    0.14490E-01   -0.71686E-03  4801   0.834E-02    0.402E-02
RMM:   6    -0.413193859413E+03   -0.83524E-04   -0.12706E-03  5825   0.334E-02    0.270E-02
RMM:   7    -0.413193874947E+03   -0.15535E-04   -0.16267E-04  5432   0.142E-02    0.148E-02
RMM:   8    -0.413193868636E+03    0.63119E-05   -0.30613E-05  4687   0.609E-03    0.787E-03
RMM:   9    -0.413193869385E+03   -0.74984E-06   -0.77822E-06  3397   0.337E-03
   34 T=    67. E= -.41286718E+03 F= -.41319387E+03 E0= -.41317252E+03  EK= 0.32669E+00 SP= 0.00E+00 SK= 0.00E+00
       N       E                     dE             d eps       ncg     rms          rms(c)
RMM:   1    -0.413206814576E+03   -0.12946E-01   -0.69521E+00  4304   0.693E-01    0.956E-01
RMM:   2    -0.413203650469E+03    0.31641E-02   -0.93640E-02  4294   0.116E-01    0.691E-01
RMM:   3    -0.413201966990E+03    0.16835E-02   -0.48372E-02  4983   0.110E-01    0.332E-01
RMM:   4    -0.413221416290E+03   -0.19449E-01   -0.35203E-02  5058   0.161E-01    0.658E-01
RMM:   5    -0.413196503330E+03    0.24913E-01   -0.11220E-02  4702   0.110E-01    0.488E-02
RMM:   6    -0.413196638581E+03   -0.13525E-03   -0.21242E-03  5725   0.432E-02    0.339E-02
RMM:   7    -0.413196642546E+03   -0.39650E-05   -0.35325E-04  5494   0.184E-02    0.230E-02
RMM:   8    -0.413196639517E+03    0.30297E-05   -0.56697E-05  5044   0.924E-03    0.977E-03
RMM:   9    -0.413196634502E+03    0.50147E-05   -0.10642E-05  3479   0.404E-03    0.525E-03
RMM:  10    -0.413196630097E+03    0.44046E-05   -0.20330E-06  2580   0.235E-03    0.315E-03
RMM:  11    -0.413196626022E+03    0.40756E-05   -0.97361E-07  2494   0.161E-03    0.168E-03
RMM:  12    -0.413196618260E+03    0.77619E-05   -0.11026E-06  2489   0.164E-03    0.833E-04
RMM:  13    -0.413196613951E+03    0.43085E-05   -0.45858E-07  2251   0.113E-03    0.618E-04
RMM:  14    -0.413196612065E+03    0.18859E-05   -0.21157E-07  1699   0.803E-04    0.393E-04
RMM:  15    -0.413196605669E+03    0.63966E-05   -0.17853E-07  1711   0.770E-04    0.312E-04
RMM:  16    -0.413196597411E+03    0.82578E-05   -0.14597E-07  1453   0.693E-04    0.382E-04
RMM:  17    -0.413196592095E+03    0.53158E-05   -0.81913E-08  1080   0.594E-04    0.289E-04
RMM:  18    -0.413196588471E+03    0.36244E-05   -0.61614E-08  1062   0.589E-04    0.684E-05
RMM:  19    -0.413196586663E+03    0.18077E-05   -0.40955E-08   990   0.571E-04    0.737E-05
RMM:  20    -0.413196586373E+03    0.29036E-06   -0.17488E-08   715   0.521E-04
   35 T=    67. E= -.41286738E+03 F= -.41319659E+03 E0= -.41317528E+03  EK= 0.32921E+00 SP= 0.00E+00 SK= 0.00E+00
       N       E                     dE             d eps       ncg     rms          rms(c)
RMM:   1    -0.413209031170E+03   -0.12445E-01   -0.69571E+00  4306   0.720E-01    0.953E-01
RMM:   2    -0.413205689249E+03    0.33419E-02   -0.94660E-02  4266   0.120E-01    0.688E-01
RMM:   3    -0.413199606208E+03    0.60830E-02   -0.45526E-02  4409   0.894E-02    0.182E-01
RMM:   4    -0.413201916349E+03   -0.23101E-02   -0.42227E-03  5105   0.570E-02    0.243E-01
RMM:   5    -0.413198636681E+03    0.32797E-02   -0.16618E-03  4795   0.404E-02    0.382E-02
RMM:   6    -0.413198694257E+03   -0.57576E-04   -0.57012E-04  5551   0.233E-02    0.320E-02
RMM:   7    -0.413198677459E+03    0.16798E-04   -0.20072E-04  5033   0.159E-02    0.191E-02
RMM:   8    -0.413198669702E+03    0.77576E-05   -0.28769E-05  4503   0.590E-03    0.617E-03
RMM:   9    -0.413198668362E+03    0.13392E-05   -0.37333E-06  2665   0.240E-03    0.328E-03
RMM:  10    -0.413198664947E+03    0.34157E-05   -0.10661E-06  2484   0.173E-03    0.157E-03
RMM:  11    -0.413198661380E+03    0.35669E-05   -0.54871E-07  2341   0.121E-03    0.755E-04
RMM:  12    -0.413198657921E+03    0.34584E-05   -0.30558E-07  1903   0.905E-04    0.356E-04
RMM:  13    -0.413198654701E+03    0.32202E-05   -0.15853E-07  1350   0.728E-04    0.220E-04
RMM:  14    -0.413198650611E+03    0.40900E-05   -0.10077E-07  1088   0.661E-04    0.175E-04
RMM:  15    -0.413198643689E+03    0.69227E-05   -0.10900E-07  1216   0.672E-04    0.112E-04
RMM:  16    -0.413198640481E+03    0.32077E-05   -0.57956E-08  1041   0.606E-04    0.114E-04
RMM:  17    -0.413198636376E+03    0.41050E-05   -0.48137E-08  1060   0.594E-04    0.517E-05
RMM:  18    -0.413198634273E+03    0.21025E-05   -0.28055E-08   882   0.555E-04    0.323E-05
RMM:  19    -0.413198633658E+03    0.61578E-06   -0.12863E-08   683   0.525E-04
   36 T=    68. E= -.41286705E+03 F= -.41319863E+03 E0= -.41317737E+03  EK= 0.33159E+00 SP= 0.00E+00 SK= 0.00E+00
       N       E                     dE             d eps       ncg     rms          rms(c)
RMM:   1    -0.413212647348E+03   -0.14013E-01   -0.70851E+00  4311   0.747E-01    0.944E-01
RMM:   2    -0.413209150573E+03    0.34968E-02   -0.98314E-02  4263   0.122E-01    0.694E-01
RMM:   3    -0.413202828242E+03    0.63223E-02   -0.48460E-02  4346   0.924E-02    0.210E-01
RMM:   4    -0.413202314082E+03    0.51416E-03   -0.23716E-03  4978   0.364E-02    0.110E-01
RMM:   5    -0.413201733616E+03    0.58047E-03   -0.37023E-04  4731   0.195E-02    0.383E-02
RMM:   6    -0.413201774440E+03   -0.40824E-04   -0.39167E-04  5287   0.191E-02    0.314E-02
RMM:   7    -0.413201771592E+03    0.28478E-05   -0.16813E-04  4812   0.145E-02    0.201E-02
RMM:   8    -0.413201763961E+03    0.76311E-05   -0.30763E-05  4566   0.559E-03    0.597E-03
RMM:   9    -0.413201764671E+03   -0.70966E-06   -0.65788E-06  2504   0.235E-03
   37 T=    68. E= -.41286737E+03 F= -.41320176E+03 E0= -.41318055E+03  EK= 0.33439E+00 SP= 0.00E+00 SK= 0.00E+00
       N       E                     dE             d eps       ncg     rms          rms(c)
RMM:   1    -0.413216494771E+03   -0.14731E-01   -0.71600E+00  4310   0.770E-01    0.961E-01
RMM:   2    -0.413212039178E+03    0.44556E-02   -0.98451E-02  4265   0.116E-01    0.700E-01
RMM:   3    -0.413205360509E+03    0.66787E-02   -0.47290E-02  4381   0.854E-02    0.194E-01
RMM:   4    -0.413204511824E+03    0.84869E-03   -0.17046E-03  4819   0.303E-02    0.652E-02
RMM:   5    -0.413204399573E+03    0.11225E-03   -0.20866E-04  4860   0.140E-02    0.449E-02
RMM:   6    -0.413204392208E+03    0.73649E-05   -0.34273E-04  5154   0.180E-02    0.319E-02
RMM:   7    -0.413204387062E+03    0.51458E-05   -0.17452E-04  4759   0.144E-02    0.212E-02
RMM:   8    -0.413204376840E+03    0.10222E-04   -0.24898E-05  4464   0.552E-03    0.771E-03
RMM:   9    -0.413204376430E+03    0.41027E-06   -0.12274E-05  2422   0.241E-03    0.366E-03
RMM:  10    -0.413204370833E+03    0.55969E-05   -0.16107E-06  2334   0.147E-03    0.120E-03
RMM:  11    -0.413204367541E+03    0.32919E-05   -0.44793E-07  1416   0.828E-04    0.452E-04
RMM:  12    -0.413204361609E+03    0.59317E-05   -0.24735E-07  1341   0.757E-04    0.299E-04
RMM:  13    -0.413204355337E+03    0.62722E-05   -0.17447E-07  1178   0.685E-04    0.163E-04
RMM:  14    -0.413204345520E+03    0.98174E-05   -0.18747E-07  1330   0.709E-04    0.231E-04
RMM:  15    -0.413204340222E+03    0.52980E-05   -0.65450E-08   972   0.582E-04    0.123E-04
RMM:  16    -0.413204337960E+03    0.22621E-05   -0.28676E-08   679   0.508E-04    0.593E-05
RMM:  17    -0.413204336083E+03    0.18761E-05   -0.19433E-08   643   0.503E-04    0.292E-05
RMM:  18    -0.413204334548E+03    0.15350E-05   -0.14286E-08   613   0.506E-04    0.220E-05
RMM:  19    -0.413204334211E+03    0.33725E-06   -0.55901E-09   470   0.483E-04
   38 T=    69. E= -.41286722E+03 F= -.41320433E+03 E0= -.41318316E+03  EK= 0.33712E+00 SP= 0.00E+00 SK= 0.00E+00
       N       E                     dE             d eps       ncg     rms          rms(c)
RMM:   1    -0.413219376550E+03   -0.15042E-01   -0.71646E+00  4309   0.815E-01    0.969E-01
RMM:   2    -0.413214624154E+03    0.47524E-02   -0.99679E-02  4263   0.115E-01    0.698E-01
RMM:   3    -0.413208323022E+03    0.63011E-02   -0.45171E-02  4697   0.821E-02    0.188E-01
RMM:   4    -0.413226236152E+03   -0.17913E-01   -0.20421E-02  5126   0.122E-01    0.579E-01
RMM:   5    -0.413207021254E+03    0.19215E-01   -0.94938E-03  4791   0.963E-02    0.449E-02
RMM:   6    -0.413207055942E+03   -0.34687E-04   -0.16681E-03  5748   0.395E-02    0.321E-02
RMM:   7    -0.413207077257E+03   -0.21315E-04   -0.31496E-04  5487   0.177E-02    0.212E-02
RMM:   8    -0.413207063645E+03    0.13612E-04   -0.51793E-05  5073   0.813E-03    0.102E-02
RMM:   9    -0.413207062268E+03    0.13771E-05   -0.10283E-05  3530   0.391E-03    0.580E-03
RMM:  10    -0.413207058851E+03    0.34173E-05   -0.18969E-06  2563   0.230E-03    0.316E-03
RMM:  11    -0.413207055278E+03    0.35722E-05   -0.10884E-06  2496   0.168E-03    0.165E-03
RMM:  12    -0.413207049782E+03    0.54964E-05   -0.96377E-07  2468   0.155E-03    0.990E-04
RMM:  13    -0.413207046890E+03    0.28920E-05   -0.36176E-07  2179   0.105E-03    0.542E-04
RMM:  14    -0.413207045354E+03    0.15355E-05   -0.17497E-07  1560   0.759E-04    0.334E-04
RMM:  15    -0.413207039803E+03    0.55513E-05   -0.13750E-07  1482   0.730E-04    0.196E-04
RMM:  16    -0.413207035936E+03    0.38669E-05   -0.76791E-08  1090   0.636E-04    0.175E-04
RMM:  17    -0.413207031005E+03    0.49311E-05   -0.65114E-08  1119   0.624E-04    0.170E-04
RMM:  18    -0.413207026602E+03    0.44035E-05   -0.48958E-08  1019   0.599E-04    0.615E-05
RMM:  19    -0.413207025064E+03    0.15378E-05   -0.31070E-08   903   0.565E-04    0.275E-05
RMM:  20    -0.413207024646E+03    0.41816E-06   -0.17322E-08   733   0.537E-04
   39 T=    69. E= -.41286709E+03 F= -.41320702E+03 E0= -.41318588E+03  EK= 0.33993E+00 SP= 0.00E+00 SK= 0.00E+00
       N       E                     dE             d eps       ncg     rms          rms(c)
RMM:   1    -0.413222629784E+03   -0.15605E-01   -0.72485E+00  4313   0.837E-01    0.954E-01
RMM:   2    -0.413218199346E+03    0.44304E-02   -0.10162E-01  4261   0.116E-01    0.700E-01
RMM:   3    -0.413212177925E+03    0.60214E-02   -0.47849E-02  4787   0.872E-02    0.228E-01
RMM:   4    -0.413235805994E+03   -0.23628E-01   -0.28022E-02  5115   0.142E-01    0.666E-01
RMM:   5    -0.413210246003E+03    0.25560E-01   -0.12445E-02  4787   0.111E-01    0.470E-02
RMM:   6    -0.413210297997E+03   -0.51994E-04   -0.21592E-03  5792   0.439E-02    0.313E-02
RMM:   7    -0.413210324604E+03   -0.26607E-04   -0.31838E-04  5603   0.172E-02    0.199E-02
RMM:   8    -0.413210316826E+03    0.77775E-05   -0.59648E-05  5062   0.823E-03    0.106E-02
RMM:   9    -0.413210317405E+03   -0.57851E-06   -0.13935E-05  4042   0.444E-03    0.628E-03
RMM:  10    -0.413210316218E+03    0.11868E-05   -0.23112E-06  2622   0.243E-03    0.352E-03
RMM:  11    -0.413210314943E+03    0.12745E-05   -0.10796E-06  2499   0.167E-03    0.199E-03
RMM:  12    -0.413210311658E+03    0.32857E-05   -0.13675E-06  2514   0.177E-03    0.114E-03
RMM:  13    -0.413210309119E+03    0.25388E-05   -0.48785E-07  2307   0.120E-03    0.709E-04
RMM:  14    -0.413210308244E+03    0.87458E-06   -0.21156E-07  1757   0.810E-04
   40 T=    70. E= -.41286736E+03 F= -.41321031E+03 E0= -.41318921E+03  EK= 0.34295E+00 SP= 0.00E+00 SK= 0.00E+00
       N       E                     dE             d eps       ncg     rms          rms(c)
RMM:   1    -0.413224498293E+03   -0.14189E-01   -0.73540E+00  4316   0.863E-01    0.966E-01
RMM:   2    -0.413220804343E+03    0.36939E-02   -0.10647E-01  4267   0.119E-01    0.710E-01
RMM:   3    -0.413214577232E+03    0.62271E-02   -0.47456E-02  4811   0.864E-02    0.225E-01
RMM:   4    -0.413240478879E+03   -0.25902E-01   -0.30544E-02  5115   0.149E-01    0.694E-01
RMM:   5    -0.413212614298E+03    0.27865E-01   -0.13493E-02  4787   0.116E-01    0.485E-02
RMM:   6    -0.413212673600E+03   -0.59302E-04   -0.23051E-03  5788   0.454E-02    0.315E-02
RMM:   7    -0.413212705383E+03   -0.31783E-04   -0.34309E-04  5649   0.176E-02    0.204E-02
RMM:   8    -0.413212695873E+03    0.95098E-05   -0.66999E-05  5104   0.868E-03    0.109E-02
RMM:   9    -0.413212695319E+03    0.55416E-06   -0.14435E-05  4063   0.458E-03    0.606E-03
RMM:  10    -0.413212693206E+03    0.21124E-05   -0.25402E-06  2635   0.249E-03    0.351E-03
RMM:  11    -0.413212691257E+03    0.19489E-05   -0.10790E-06  2499   0.168E-03    0.201E-03
RMM:  12    -0.413212686409E+03    0.48487E-05   -0.13409E-06  2512   0.178E-03    0.114E-03
RMM:  13    -0.413212682719E+03    0.36900E-05   -0.53550E-07  2325   0.122E-03    0.756E-04
RMM:  14    -0.413212681656E+03    0.10627E-05   -0.22773E-07  1783   0.829E-04    0.399E-04
RMM:  15    -0.413212677872E+03    0.37843E-05   -0.14707E-07  1392   0.725E-04    0.220E-04
RMM:  16    -0.413212672694E+03    0.51780E-05   -0.13178E-07  1531   0.716E-04    0.331E-04
RMM:  17    -0.413212670179E+03    0.25142E-05   -0.67488E-08  1072   0.599E-04    0.293E-04
RMM:  18    -0.413212664998E+03    0.51815E-05   -0.71962E-08  1239   0.618E-04    0.189E-04
RMM:  19    -0.413212663363E+03    0.16344E-05   -0.34135E-08   871   0.544E-04    0.680E-05
RMM:  20    -0.413212662214E+03    0.11493E-05   -0.26156E-08   860   0.548E-04    0.550E-05
RMM:  21    -0.413212661863E+03    0.35121E-06   -0.14957E-08   730   0.526E-04
   41 T=    70. E= -.41286710E+03 F= -.41321266E+03 E0= -.41319159E+03  EK= 0.34556E+00 SP= 0.00E+00 SK= 0.00E+00
       N       E                     dE             d eps       ncg     rms          rms(c)
RMM:   1    -0.413229266656E+03   -0.16604E-01   -0.73636E+00  4316   0.933E-01    0.983E-01
RMM:   2    -0.413223245196E+03    0.60215E-02   -0.10684E-01  4301   0.124E-01    0.708E-01
RMM:   3    -0.413217871476E+03    0.53737E-02   -0.44700E-02  4938   0.871E-02    0.227E-01
RMM:   4    -0.413249477841E+03   -0.31606E-01   -0.39419E-02  5114   0.168E-01    0.764E-01
RMM:   5    -0.413215359366E+03    0.34118E-01   -0.16013E-02  4774   0.127E-01    0.519E-02
RMM:   6    -0.413215447541E+03   -0.88175E-04   -0.27837E-03  5784   0.494E-02    0.328E-02
RMM:   7    -0.413215469952E+03   -0.22411E-04   -0.32921E-04  5667   0.172E-02    0.186E-02
RMM:   8    -0.413215466944E+03    0.30081E-05   -0.41268E-05  4713   0.666E-03    0.858E-03
RMM:   9    -0.413215466537E+03    0.40736E-06   -0.14355E-05  4042   0.406E-03    0.614E-03
RMM:  10    -0.413215462222E+03    0.43148E-05   -0.31608E-06  2737   0.254E-03    0.358E-03
RMM:  11    -0.413215459129E+03    0.30929E-05   -0.12592E-06  2488   0.183E-03    0.211E-03
RMM:  12    -0.413215452000E+03    0.71290E-05   -0.13232E-06  2496   0.182E-03    0.107E-03
RMM:  13    -0.413215448976E+03    0.30238E-05   -0.43881E-07  2345   0.120E-03    0.685E-04
RMM:  14    -0.413215448067E+03    0.90932E-06   -0.18948E-07  1718   0.797E-04
   42 T=    71. E= -.41286726E+03 F= -.41321545E+03 E0= -.41319441E+03  EK= 0.34819E+00 SP= 0.00E+00 SK= 0.00E+00
       N       E                     dE             d eps       ncg     rms          rms(c)
RMM:   1    -0.413231658152E+03   -0.16209E-01   -0.73959E+00  4316   0.978E-01    0.964E-01
RMM:   2    -0.413225794977E+03    0.58632E-02   -0.10815E-01  4361   0.123E-01    0.706E-01
RMM:   3    -0.413220671163E+03    0.51238E-02   -0.46413E-02  4948   0.901E-02    0.253E-01
RMM:   4    -0.413252222321E+03   -0.31551E-01   -0.40921E-02  5107   0.172E-01    0.769E-01
RMM:   5    -0.413217651182E+03    0.34571E-01   -0.16147E-02  4777   0.128E-01    0.523E-02
RMM:   6    -0.413217734088E+03   -0.82907E-04   -0.27811E-03  5770   0.496E-02    0.321E-02
RMM:   7    -0.413217757778E+03   -0.23690E-04   -0.32663E-04  5698   0.171E-02    0.183E-02
RMM:   8    -0.413217758731E+03   -0.95314E-06   -0.50462E-05  4948   0.719E-03    0.930E-03
RMM:   9    -0.413217755203E+03    0.35280E-05   -0.17087E-05  4297   0.442E-03    0.633E-03
RMM:  10    -0.413217752796E+03    0.24073E-05   -0.37892E-06  2811   0.278E-03    0.361E-03
RMM:  11    -0.413217750212E+03    0.25841E-05   -0.13472E-06  2494   0.190E-03    0.215E-03
RMM:  12    -0.413217743843E+03    0.63690E-05   -0.12766E-06  2498   0.179E-03    0.101E-03
RMM:  13    -0.413217739669E+03    0.41743E-05   -0.51199E-07  2361   0.122E-03    0.669E-04
RMM:  14    -0.413217738375E+03    0.12935E-05   -0.22018E-07  1811   0.830E-04    0.388E-04
RMM:  15    -0.413217734515E+03    0.38600E-05   -0.12158E-07  1325   0.700E-04    0.180E-04
RMM:  16    -0.413217728777E+03    0.57382E-05   -0.10978E-07  1465   0.700E-04    0.261E-04
RMM:  17    -0.413217726183E+03    0.25944E-05   -0.52811E-08   999   0.589E-04    0.204E-04
RMM:  18    -0.413217719806E+03    0.63765E-05   -0.73865E-08  1413   0.648E-04    0.179E-04
RMM:  19    -0.413217717880E+03    0.19261E-05   -0.28837E-08   889   0.536E-04    0.690E-05
RMM:  20    -0.413217716949E+03    0.93138E-06   -0.20460E-08   829   0.527E-04
   43 T=    71. E= -.41286730E+03 F= -.41321772E+03 E0= -.41319671E+03  EK= 0.35042E+00 SP= 0.00E+00 SK= 0.00E+00
       N       E                     dE             d eps       ncg     rms          rms(c)
RMM:   1    -0.413233689073E+03   -0.15971E-01   -0.75287E+00  4316   0.103E+00    0.968E-01
RMM:   2    -0.413227359762E+03    0.63293E-02   -0.11472E-01  4382   0.135E-01    0.716E-01
RMM:   3    -0.413222960889E+03    0.43989E-02   -0.47321E-02  4981   0.975E-02    0.288E-01
RMM:   4    -0.413255085833E+03   -0.32125E-01   -0.45629E-02  5096   0.182E-01    0.787E-01
RMM:   5    -0.413218827981E+03    0.36258E-01   -0.16413E-02  4754   0.131E-01    0.535E-02
RMM:   6    -0.413218908020E+03   -0.80040E-04   -0.28853E-03  5766   0.502E-02    0.315E-02
RMM:   7    -0.413218933521E+03   -0.25501E-04   -0.33191E-04  5734   0.173E-02    0.188E-02
RMM:   8    -0.413218941476E+03   -0.79550E-05   -0.78239E-05  5142   0.894E-03    0.116E-02
RMM:   9    -0.413218934661E+03    0.68155E-05   -0.19873E-05  4462   0.515E-03    0.594E-03
RMM:  10    -0.413218933774E+03    0.88696E-06   -0.33173E-06  2704   0.274E-03
   44 T=    72. E= -.41286711E+03 F= -.41321893E+03 E0= -.41319795E+03  EK= 0.35183E+00 SP= 0.00E+00 SK= 0.00E+00
       N       E                     dE             d eps       ncg     rms          rms(c)
RMM:   1    -0.413238600005E+03   -0.19665E-01   -0.75169E+00  4316   0.112E+00    0.986E-01
RMM:   2    -0.413228537614E+03    0.10062E-01   -0.11742E-01  4435   0.141E-01    0.716E-01
RMM:   3    -0.413231928623E+03   -0.33910E-02   -0.49474E-02  5085   0.127E-01    0.454E-01
RMM:   4    -0.413241381681E+03   -0.94531E-02   -0.42247E-02  5037   0.180E-01    0.605E-01
RMM:   5    -0.413220291999E+03    0.21090E-01   -0.77107E-03  4609   0.101E-01    0.516E-02
RMM:   6    -0.413220288125E+03    0.38739E-05   -0.16140E-03  5582   0.385E-02    0.306E-02
RMM:   7    -0.413220294222E+03   -0.60971E-05   -0.27259E-04  5461   0.167E-02    0.212E-02
RMM:   8    -0.413220289506E+03    0.47168E-05   -0.84736E-05  5033   0.101E-02    0.100E-02
RMM:   9    -0.413220280868E+03    0.86377E-05   -0.97116E-06  3637   0.444E-03    0.431E-03
RMM:  10    -0.413220275704E+03    0.51641E-05   -0.20394E-06  2619   0.218E-03    0.241E-03
RMM:  11    -0.413220270148E+03    0.55555E-05   -0.98371E-07  2477   0.158E-03    0.126E-03
RMM:  12    -0.413220261569E+03    0.85792E-05   -0.71292E-07  2393   0.131E-03    0.614E-04
RMM:  13    -0.413220256947E+03    0.46225E-05   -0.30102E-07  1918   0.918E-04    0.350E-04
RMM:  14    -0.413220252769E+03    0.41776E-05   -0.16302E-07  1333   0.723E-04    0.181E-04
RMM:  15    -0.413220242181E+03    0.10588E-04   -0.17500E-07  1554   0.768E-04    0.210E-04
RMM:  16    -0.413220237758E+03    0.44229E-05   -0.96454E-08  1305   0.648E-04    0.121E-04
RMM:  17    -0.413220232098E+03    0.56601E-05   -0.78790E-08  1304   0.629E-04    0.620E-05
RMM:  18    -0.413220228304E+03    0.37939E-05   -0.51603E-08  1129   0.578E-04    0.593E-05
RMM:  19    -0.413220227843E+03    0.46093E-06   -0.25095E-08   805   0.515E-04
   45 T=    72. E= -.41286748E+03 F= -.41322023E+03 E0= -.41319926E+03  EK= 0.35275E+00 SP= 0.00E+00 SK= 0.00E+00
       N       E                     dE             d eps       ncg     rms          rms(c)
RMM:   1    -0.413237637809E+03   -0.17410E-01   -0.74644E+00  4314   0.119E+00    0.970E-01
RMM:   2    -0.413227986645E+03    0.96512E-02   -0.11609E-01  4419   0.147E-01    0.709E-01
RMM:   3    -0.413227094360E+03    0.89229E-03   -0.46131E-02  5034   0.115E-01    0.363E-01
RMM:   4    -0.413248646880E+03   -0.21553E-01   -0.44490E-02  5071   0.183E-01    0.704E-01
RMM:   5    -0.413219823582E+03    0.28823E-01   -0.11819E-02  4705   0.117E-01    0.537E-02
RMM:   6    -0.413219847427E+03   -0.23845E-04   -0.21854E-03  5687   0.445E-02    0.304E-02
RMM:   7    -0.413219868346E+03   -0.20920E-04   -0.29636E-04  5675   0.170E-02    0.197E-02
RMM:   8    -0.413219871598E+03   -0.32522E-05   -0.95883E-05  5132   0.102E-02    0.116E-02
RMM:   9    -0.413219862782E+03    0.88165E-05   -0.14770E-05  4133   0.507E-03    0.480E-03
RMM:  10    -0.413219859685E+03    0.30964E-05   -0.32541E-06  2740   0.254E-03    0.291E-03
RMM:  11    -0.413219856598E+03    0.30875E-05   -0.11410E-06  2493   0.175E-03    0.153E-03
RMM:  12    -0.413219850962E+03    0.56357E-05   -0.80769E-07  2448   0.145E-03    0.764E-04
RMM:  13    -0.413219846829E+03    0.41337E-05   -0.35643E-07  2047   0.101E-03    0.344E-04
RMM:  14    -0.413219844187E+03    0.26419E-05   -0.18579E-07  1493   0.761E-04    0.186E-04
RMM:  15    -0.413219838071E+03    0.61154E-05   -0.14350E-07  1327   0.722E-04    0.155E-04
RMM:  16    -0.413219834833E+03    0.32378E-05   -0.94098E-08  1218   0.661E-04    0.113E-04
RMM:  17    -0.413219830884E+03    0.39492E-05   -0.79102E-08  1295   0.648E-04    0.655E-05
RMM:  18    -0.413219827362E+03    0.35226E-05   -0.55607E-08  1161   0.599E-04    0.391E-05
RMM:  19    -0.413219825539E+03    0.18228E-05   -0.34483E-08   937   0.552E-04    0.310E-05
RMM:  20    -0.413219825240E+03    0.29851E-06   -0.18810E-08   742   0.521E-04
   46 T=    72. E= -.41286735E+03 F= -.41321983E+03 E0= -.41319888E+03  EK= 0.35247E+00 SP= 0.00E+00 SK= 0.00E+00
       N       E                     dE             d eps       ncg     rms          rms(c)
RMM:   1    -0.413237053884E+03   -0.17228E-01   -0.75406E+00  4316   0.130E+00    0.961E-01
RMM:   2    -0.413227115426E+03    0.99385E-02   -0.11935E-01  4443   0.161E-01    0.715E-01
RMM:   3    -0.413229474610E+03   -0.23592E-02   -0.50674E-02  5059   0.132E-01    0.444E-01
RMM:   4    -0.413242990783E+03   -0.13516E-01   -0.44472E-02  5042   0.185E-01    0.652E-01
RMM:   5    -0.413218567563E+03    0.24423E-01   -0.96205E-03  4652   0.110E-01    0.529E-02
RMM:   6    -0.413218551502E+03    0.16061E-04   -0.17711E-03  5588   0.405E-02    0.280E-02
RMM:   7    -0.413218566971E+03   -0.15469E-04   -0.26063E-04  5635   0.162E-02    0.190E-02
RMM:   8    -0.413218570874E+03   -0.39030E-05   -0.95623E-05  5098   0.103E-02    0.102E-02
RMM:   9    -0.413218564964E+03    0.59103E-05   -0.11826E-05  3889   0.479E-03    0.428E-03
RMM:  10    -0.413218563242E+03    0.17214E-05   -0.27425E-06  2690   0.236E-03    0.257E-03
RMM:  11    -0.413218560977E+03    0.22651E-05   -0.12074E-06  2496   0.172E-03    0.126E-03
RMM:  12    -0.413218557379E+03    0.35984E-05   -0.76354E-07  2394   0.136E-03    0.646E-04
RMM:  13    -0.413218554427E+03    0.29513E-05   -0.35193E-07  1856   0.954E-04    0.290E-04
RMM:  14    -0.413218551657E+03    0.27707E-05   -0.20534E-07  1423   0.768E-04    0.156E-04
RMM:  15    -0.413218547107E+03    0.45493E-05   -0.17678E-07  1392   0.747E-04    0.120E-04
RMM:  16    -0.413218544105E+03    0.30024E-05   -0.12178E-07  1358   0.679E-04    0.903E-05
RMM:  17    -0.413218539566E+03    0.45393E-05   -0.10908E-07  1405   0.663E-04    0.504E-05
RMM:  18    -0.413218537174E+03    0.23913E-05   -0.60491E-08  1038   0.569E-04    0.352E-05
RMM:  19    -0.413218536427E+03    0.74748E-06   -0.33250E-08   828   0.528E-04
   47 T=    71. E= -.41286735E+03 F= -.41321854E+03 E0= -.41319760E+03  EK= 0.35118E+00 SP= 0.00E+00 SK= 0.00E+00
       N       E                     dE             d eps       ncg     rms          rms(c)
RMM:   1    -0.413238637314E+03   -0.20100E-01   -0.74796E+00  4312   0.136E+00    0.974E-01
RMM:   2    -0.413224480709E+03    0.14157E-01   -0.12209E-01  4486   0.170E-01    0.713E-01
RMM:   3    -0.413231857208E+03   -0.73765E-02   -0.49318E-02  5087   0.144E-01    0.521E-01
RMM:   4    -0.413234506650E+03   -0.26494E-02   -0.42972E-02  5017   0.185E-01    0.561E-01
RMM:   5    -0.413216344542E+03    0.18162E-01   -0.63766E-03  4598   0.972E-02    0.532E-02
RMM:   6    -0.413216294383E+03    0.50159E-04   -0.11991E-03  5297   0.348E-02    0.277E-02
RMM:   7    -0.413216319548E+03   -0.25165E-04   -0.19474E-04  5576   0.143E-02    0.173E-02
RMM:   8    -0.413216322141E+03   -0.25924E-05   -0.95455E-05  5174   0.102E-02    0.105E-02
RMM:   9    -0.413216311447E+03    0.10694E-04   -0.11687E-05  3923   0.488E-03    0.409E-03
RMM:  10    -0.413216308390E+03    0.30567E-05   -0.28163E-06  2696   0.237E-03    0.236E-03
RMM:  11    -0.413216303761E+03    0.46290E-05   -0.12021E-06  2485   0.179E-03    0.121E-03
RMM:  12    -0.413216299344E+03    0.44169E-05   -0.57191E-07  2302   0.127E-03    0.671E-04
RMM:  13    -0.413216295155E+03    0.41892E-05   -0.28281E-07  1790   0.913E-04    0.309E-04
RMM:  14    -0.413216290619E+03    0.45360E-05   -0.16971E-07  1416   0.746E-04    0.162E-04
RMM:  15    -0.413216285979E+03    0.46398E-05   -0.11969E-07  1286   0.691E-04    0.119E-04
RMM:  16    -0.413216282296E+03    0.36834E-05   -0.84992E-08  1201   0.641E-04    0.843E-05
RMM:  17    -0.413216275692E+03    0.66033E-05   -0.95071E-08  1483   0.672E-04    0.714E-05
RMM:  18    -0.413216274680E+03    0.10125E-05   -0.32924E-08   810   0.523E-04    0.510E-05
RMM:  19    -0.413216272868E+03    0.18115E-05   -0.29171E-08   873   0.535E-04    0.203E-05
RMM:  20    -0.413216272236E+03    0.63271E-06   -0.16028E-08   698   0.503E-04
   48 T=    71. E= -.41286758E+03 F= -.41321627E+03 E0= -.41319535E+03  EK= 0.34870E+00 SP= 0.00E+00 SK= 0.00E+00
       N       E                     dE             d eps       ncg     rms          rms(c)
RMM:   1    -0.413234661155E+03   -0.18388E-01   -0.73461E+00  4310   0.146E+00    0.961E-01
RMM:   2    -0.413219666258E+03    0.14995E-01   -0.12148E-01  4545   0.181E-01    0.702E-01
RMM:   3    -0.413235098837E+03   -0.15433E-01   -0.52987E-02  5106   0.165E-01    0.637E-01
RMM:   4    -0.413223736241E+03    0.11363E-01   -0.42403E-02  4966   0.187E-01    0.459E-01
RMM:   5    -0.413211663370E+03    0.12073E-01   -0.43410E-03  4573   0.874E-02    0.540E-02
RMM:   6    -0.413211563752E+03    0.99618E-04   -0.61922E-04  4838   0.287E-02    0.275E-02
RMM:   7    -0.413211578442E+03   -0.14690E-04   -0.15500E-04  5711   0.138E-02    0.125E-02
RMM:   8    -0.413211576183E+03    0.22592E-05   -0.41354E-05  5226   0.771E-03    0.809E-03
RMM:   9    -0.413211573503E+03    0.26801E-05   -0.11498E-05  3933   0.399E-03    0.373E-03
RMM:  10    -0.413211569887E+03    0.36159E-05   -0.18667E-06  2557   0.224E-03    0.241E-03
RMM:  11    -0.413211564502E+03    0.53846E-05   -0.11115E-06  2473   0.179E-03    0.148E-03
RMM:  12    -0.413211560967E+03    0.35358E-05   -0.44524E-07  2405   0.118E-03    0.797E-04
RMM:  13    -0.413211556412E+03    0.45546E-05   -0.27338E-07  1938   0.900E-04    0.407E-04
RMM:  14    -0.413211550254E+03    0.61583E-05   -0.20493E-07  1680   0.785E-04    0.404E-04
RMM:  15    -0.413211545688E+03    0.45657E-05   -0.10111E-07  1073   0.618E-04    0.165E-04
RMM:  16    -0.413211542492E+03    0.31959E-05   -0.74302E-08  1125   0.608E-04    0.999E-05
RMM:  17    -0.413211538429E+03    0.40630E-05   -0.62909E-08  1149   0.601E-04    0.111E-04
RMM:  18    -0.413211537066E+03    0.13629E-05   -0.32453E-08   843   0.534E-04    0.766E-05
RMM:  19    -0.413211532888E+03    0.41783E-05   -0.45076E-08  1101   0.582E-04    0.430E-05
RMM:  20    -0.413211531770E+03    0.11178E-05   -0.18194E-08   739   0.504E-04    0.290E-05
RMM:  21    -0.413211531483E+03    0.28701E-06   -0.10044E-08   599   0.482E-04
   49 T=    70. E= -.41286720E+03 F= -.41321153E+03 E0= -.41319061E+03  EK= 0.34433E+00 SP= 0.00E+00 SK= 0.00E+00
       N       E                     dE             d eps       ncg     rms          rms(c)
RMM:   1    -0.413234535790E+03   -0.23004E-01   -0.73492E+00  4310   0.164E+00    0.934E-01
RMM:   2    -0.413214134862E+03    0.20401E-01   -0.12871E-01  4671   0.195E-01    0.701E-01
RMM:   3    -0.413239638816E+03   -0.25504E-01   -0.59634E-02  5130   0.189E-01    0.760E-01
RMM:   4    -0.413215258951E+03    0.24380E-01   -0.46763E-02  4936   0.200E-01    0.407E-01
RMM:   5    -0.413205997860E+03    0.92611E-02   -0.44419E-03  4674   0.904E-02    0.598E-02
RMM:   6    -0.413205842838E+03    0.15502E-03   -0.48610E-04  4690   0.287E-02    0.284E-02
RMM:   7    -0.413205880763E+03   -0.37925E-04   -0.26543E-04  5673   0.181E-02    0.214E-02
RMM:   8    -0.413205858770E+03    0.21993E-04   -0.68825E-05  5017   0.966E-03    0.100E-02
RMM:   9    -0.413205856673E+03    0.20974E-05   -0.21422E-05  5109   0.573E-03    0.452E-03
RMM:  10    -0.413205853901E+03    0.27718E-05   -0.28401E-06  2732   0.254E-03    0.268E-03
RMM:  11    -0.413205849995E+03    0.39057E-05   -0.14318E-06  2496   0.201E-03    0.204E-03
RMM:  12    -0.413205846693E+03    0.33022E-05   -0.50525E-07  2400   0.125E-03    0.103E-03
RMM:  13    -0.413205843634E+03    0.30594E-05   -0.30569E-07  2074   0.905E-04    0.430E-04
RMM:  14    -0.413205839353E+03    0.42806E-05   -0.25312E-07  1710   0.808E-04    0.325E-04
RMM:  15    -0.413205834286E+03    0.50674E-05   -0.18360E-07  1352   0.707E-04    0.150E-04
RMM:  16    -0.413205831564E+03    0.27214E-05   -0.10324E-07  1166   0.618E-04    0.100E-04
RMM:  17    -0.413205827410E+03    0.41544E-05   -0.99063E-08  1246   0.623E-04    0.655E-05
RMM:  18    -0.413205824630E+03    0.27797E-05   -0.63371E-08  1089   0.577E-04    0.570E-05
RMM:  19    -0.413205823739E+03    0.89137E-06   -0.32093E-08   829   0.521E-04
   50 T=    69. E= -.41286748E+03 F= -.41320582E+03 E0= -.41318491E+03  EK= 0.33834E+00 SP= 0.00E+00 SK= 0.00E+00
       N       E                     dE             d eps       ncg     rms          rms(c)
RMM:   1    -0.413225770267E+03   -0.19946E-01   -0.71820E+00  4306   0.170E+00    0.932E-01
RMM:   2    -0.413205497022E+03    0.20273E-01   -0.13444E-01  4765   0.202E-01    0.697E-01
RMM:   3    -0.413241315579E+03   -0.35819E-01   -0.63381E-02  5150   0.206E-01    0.866E-01
RMM:   4    -0.413203915572E+03    0.37400E-01   -0.49443E-02  4918   0.209E-01    0.338E-01
RMM:   5    -0.413197605126E+03    0.63104E-02   -0.49439E-03  4989   0.942E-02    0.723E-02
RMM:   6    -0.413197347969E+03    0.25716E-03   -0.52439E-04  4587   0.317E-02    0.321E-02
RMM:   7    -0.413197375061E+03   -0.27093E-04   -0.29851E-04  5653   0.193E-02    0.244E-02
RMM:   8    -0.413197350520E+03    0.24542E-04   -0.82480E-05  5080   0.109E-02    0.119E-02
RMM:   9    -0.413197345639E+03    0.48809E-05   -0.24707E-05  5106   0.613E-03    0.443E-03
RMM:  10    -0.413197341865E+03    0.37736E-05   -0.39609E-06  2890   0.276E-03    0.290E-03
RMM:  11    -0.413197336754E+03    0.51109E-05   -0.10586E-06  2503   0.184E-03    0.175E-03
[...]
RMM:   9    -0.413743861951E+03    0.77246E-04   -0.58292E-04  4831   0.308E-02    0.240E-02
RMM:  10    -0.413743853394E+03    0.85578E-05   -0.15379E-04  5613   0.156E-02    0.155E-02
RMM:  11    -0.413743851592E+03    0.18015E-05   -0.34998E-05  5104   0.720E-03    0.795E-03
RMM:  12    -0.413743851917E+03   -0.32519E-06   -0.96811E-06  3648   0.402E-03
  139 T=   174. E= -.41288820E+03 F= -.41374385E+03 E0= -.41372110E+03  EK= 0.85565E+00 SP= 0.00E+00 SK= 0.00E+00
       N       E                     dE             d eps       ncg     rms          rms(c)
RMM:   1    -0.413571592734E+03    0.17226E+00   -0.16156E+01  4264   0.701E+00    0.124E+00
RMM:   2    -0.413503634754E+03    0.67958E-01   -0.53749E-01  5424   0.843E-01    0.118E+00
RMM:   3    -0.413526388558E+03   -0.22754E-01   -0.87972E-02  5645   0.327E-01    0.111E+00
RMM:   4    -0.413514303686E+03    0.12085E-01   -0.52358E-02  5325   0.240E-01    0.861E-01
RMM:   5    -0.413501409440E+03    0.12894E-01   -0.43941E-02  4417   0.290E-01    0.246E-01
RMM:   6    -0.413498927841E+03    0.24816E-02   -0.64385E-03  4637   0.118E-01    0.103E-01
RMM:   7    -0.413498659424E+03    0.26842E-03   -0.17957E-03  5521   0.528E-02    0.683E-02
RMM:   8    -0.413498562526E+03    0.96898E-04   -0.57880E-04  5142   0.297E-02    0.414E-02
RMM:   9    -0.413498522546E+03    0.39980E-04   -0.27774E-04  4536   0.222E-02    0.163E-02
RMM:  10    -0.413498525623E+03   -0.30765E-05   -0.81114E-05  5673   0.107E-02    0.111E-02
RMM:  11    -0.413498524376E+03    0.12467E-05   -0.16678E-05  4265   0.521E-03    0.524E-03
RMM:  12    -0.413498525273E+03   -0.89664E-06   -0.41882E-06  2931   0.279E-03
  140 T=   133. E= -.41284761E+03 F= -.41349853E+03 E0= -.41347551E+03  EK= 0.65092E+00 SP= 0.00E+00 SK= 0.00E+00
       N       E                     dE             d eps       ncg     rms          rms(c)
RMM:   1    -0.413702879353E+03   -0.20435E+00   -0.14368E+01  4287   0.682E+00    0.130E+00
RMM:   2    -0.413675076535E+03    0.27803E-01   -0.46233E-01  5384   0.756E-01    0.117E+00
RMM:   3    -0.413689006223E+03   -0.13930E-01   -0.11951E-01  5424   0.377E-01    0.121E+00
RMM:   4    -0.413651979574E+03    0.37027E-01   -0.82840E-02  5240   0.336E-01    0.514E-01
RMM:   5    -0.413645738690E+03    0.62409E-02   -0.31802E-02  4798   0.241E-01    0.173E-01
RMM:   6    -0.413645871116E+03   -0.13243E-03   -0.12910E-02  5490   0.133E-01    0.146E-01
RMM:   7    -0.413644801742E+03    0.10694E-02   -0.22092E-03  4834   0.626E-02    0.590E-02
RMM:   8    -0.413644785035E+03    0.16706E-04   -0.98267E-04  5739   0.354E-02    0.282E-02
RMM:   9    -0.413644788603E+03   -0.35674E-05   -0.24561E-04  5726   0.181E-02    0.257E-02
RMM:  10    -0.413644770680E+03    0.17922E-04   -0.52468E-05  5189   0.946E-03    0.116E-02
RMM:  11    -0.413644772280E+03   -0.15999E-05   -0.44463E-05  5493   0.717E-03    0.575E-03
RMM:  12    -0.413644774589E+03   -0.23092E-05   -0.39533E-06  2885   0.305E-03    0.251E-03
RMM:  13    -0.413644776254E+03   -0.16649E-05   -0.12401E-06  2567   0.185E-03    0.133E-03
RMM:  14    -0.413644777965E+03   -0.17105E-05   -0.76842E-07  2448   0.136E-03    0.719E-04
RMM:  15    -0.413644779091E+03   -0.11268E-05   -0.51520E-07  1985   0.105E-03    0.459E-04
RMM:  16    -0.413644780236E+03   -0.11449E-05   -0.61789E-07  2268   0.109E-03    0.214E-04
RMM:  17    -0.413644780602E+03   -0.36522E-06   -0.27781E-07  1474   0.807E-04
  141 T=   154. E= -.41288612E+03 F= -.41364478E+03 E0= -.41362144E+03  EK= 0.75866E+00 SP= 0.00E+00 SK= 0.00E+00
       N       E                     dE             d eps       ncg     rms          rms(c)
RMM:   1    -0.413892471305E+03   -0.24769E+00   -0.19043E+01  4292   0.795E+00    0.196E+00
RMM:   2    -0.413836703458E+03    0.55768E-01   -0.68278E-01  5363   0.992E-01    0.188E+00
RMM:   3    -0.413836524368E+03    0.17909E-03   -0.22366E-01  5354   0.521E-01    0.180E+00
RMM:   4    -0.413767914592E+03    0.68610E-01   -0.18039E-01  5248   0.484E-01    0.812E-01
RMM:   5    -0.413756764360E+03    0.11150E-01   -0.73167E-02  4860   0.357E-01    0.310E-01
RMM:   6    -0.413754552095E+03    0.22123E-02   -0.32522E-02  5279   0.214E-01    0.209E-01
RMM:   7    -0.413752260561E+03    0.22915E-02   -0.37949E-03  4581   0.912E-02    0.743E-02
RMM:   8    -0.413752235098E+03    0.25462E-04   -0.13947E-03  5699   0.429E-02    0.386E-02
RMM:   9    -0.413752242067E+03   -0.69686E-05   -0.41649E-04  5571   0.248E-02    0.274E-02
RMM:  10    -0.413752228615E+03    0.13452E-04   -0.68301E-05  5211   0.107E-02    0.142E-02
RMM:  11    -0.413752230732E+03   -0.21177E-05   -0.52667E-05  5532   0.819E-03    0.632E-03
RMM:  12    -0.413752235495E+03   -0.47629E-05   -0.75433E-06  3286   0.374E-03    0.386E-03
RMM:  13    -0.413752237985E+03   -0.24894E-05   -0.24903E-06  2719   0.246E-03    0.168E-03
RMM:  14    -0.413752239892E+03   -0.19073E-05   -0.13089E-06  2571   0.170E-03    0.851E-04
RMM:  15    -0.413752240802E+03   -0.91010E-06   -0.83817E-07  2336   0.127E-03
  142 T=   175. E= -.41289165E+03 F= -.41375224E+03 E0= -.41372857E+03  EK= 0.86059E+00 SP= 0.00E+00 SK= 0.00E+00
       N       E                     dE             d eps       ncg     rms          rms(c)
RMM:   1    -0.413759124377E+03   -0.68845E-02   -0.17540E+01  4287   0.765E+00    0.127E+00
RMM:   2    -0.413710190029E+03    0.48934E-01   -0.62424E-01  5374   0.924E-01    0.141E+00
RMM:   3    -0.413682193537E+03    0.27996E-01   -0.12889E-01  5452   0.407E-01    0.121E+00
RMM:   4    -0.413652932210E+03    0.29261E-01   -0.63540E-02  5294   0.300E-01    0.640E-01
RMM:   5    -0.413652762241E+03    0.16997E-03   -0.37730E-02  4875   0.253E-01    0.342E-01
RMM:   6    -0.413650939171E+03    0.18231E-02   -0.26742E-02  5053   0.193E-01    0.202E-01
RMM:   7    -0.413648882555E+03    0.20566E-02   -0.38978E-03  4703   0.910E-02    0.739E-02
RMM:   8    -0.413648887969E+03   -0.54139E-05   -0.13065E-03  5887   0.404E-02    0.493E-02
RMM:   9    -0.413648856390E+03    0.31579E-04   -0.36790E-04  4613   0.249E-02    0.172E-02
RMM:  10    -0.413648861542E+03   -0.51529E-05   -0.86800E-05  5705   0.112E-02    0.109E-02
RMM:  11    -0.413648864510E+03   -0.29676E-05   -0.21255E-05  4670   0.581E-03    0.638E-03
RMM:  12    -0.413648870694E+03   -0.61841E-05   -0.77596E-06  3368   0.392E-03    0.414E-03
RMM:  13    -0.413648873647E+03   -0.29524E-05   -0.28781E-06  2781   0.249E-03    0.156E-03
RMM:  14    -0.413648875078E+03   -0.14312E-05   -0.16702E-06  2600   0.173E-03    0.992E-04
RMM:  15    -0.413648875546E+03   -0.46781E-06   -0.12157E-06  2452   0.143E-03
  143 T=   158. E= -.41287491E+03 F= -.41364888E+03 E0= -.41362496E+03  EK= 0.77397E+00 SP= 0.00E+00 SK= 0.00E+00
       N       E                     dE             d eps       ncg     rms          rms(c)
RMM:   1    -0.413582069573E+03    0.66806E-01   -0.13751E+01  4280   0.680E+00    0.870E-01
RMM:   2    -0.413549953830E+03    0.32116E-01   -0.45697E-01  5406   0.764E-01    0.934E-01
RMM:   3    -0.413545457289E+03    0.44965E-02   -0.76166E-02  5622   0.302E-01    0.870E-01
RMM:   4    -0.413527999584E+03    0.17458E-01   -0.26953E-02  5282   0.200E-01    0.475E-01
RMM:   5    -0.413527980655E+03    0.18929E-04   -0.21477E-02  4762   0.190E-01    0.264E-01
RMM:   6    -0.413526867287E+03    0.11134E-02   -0.15279E-02  4970   0.147E-01    0.143E-01
RMM:   7    -0.413525860904E+03    0.10064E-02   -0.27254E-03  4950   0.725E-02    0.629E-02
RMM:   8    -0.413525835634E+03    0.25270E-04   -0.67001E-04  5786   0.307E-02    0.446E-02
RMM:   9    -0.413525821186E+03    0.14448E-04   -0.33274E-04  4512   0.234E-02    0.137E-02
RMM:  10    -0.413525828907E+03   -0.77206E-05   -0.72940E-05  5700   0.101E-02    0.105E-02
RMM:  11    -0.413525829808E+03   -0.90140E-06   -0.15564E-05  4206   0.508E-03    0.551E-03
RMM:  12    -0.413525834231E+03   -0.44229E-05   -0.63142E-06  3202   0.356E-03    0.336E-03
RMM:  13    -0.413525836899E+03   -0.26687E-05   -0.22743E-06  2703   0.228E-03    0.150E-03
RMM:  14    -0.413525837982E+03   -0.10828E-05   -0.16749E-06  2570   0.176E-03    0.851E-04
RMM:  15    -0.413525838203E+03   -0.22065E-06   -0.97301E-07  2332   0.129E-03
  144 T=   134. E= -.41286908E+03 F= -.41352584E+03 E0= -.41350188E+03  EK= 0.65676E+00 SP= 0.00E+00 SK= 0.00E+00
       N       E                     dE             d eps       ncg     rms          rms(c)
RMM:   1    -0.413508410771E+03    0.17427E-01   -0.11607E+01  4270   0.626E+00    0.930E-01
RMM:   2    -0.413480204583E+03    0.28206E-01   -0.35130E-01  5400   0.674E-01    0.811E-01
RMM:   3    -0.413511202615E+03   -0.30998E-01   -0.75377E-02  5677   0.285E-01    0.101E+00
RMM:   4    -0.413477197589E+03    0.34005E-01   -0.34714E-02  5103   0.217E-01    0.434E-01
RMM:   5    -0.413476085709E+03    0.11119E-02   -0.23888E-02  4803   0.198E-01    0.194E-01
RMM:   6    -0.413474947422E+03    0.11383E-02   -0.83468E-03  5078   0.112E-01    0.100E-01
RMM:   7    -0.413474476168E+03    0.47125E-03   -0.15343E-03  5102   0.530E-02    0.563E-02
RMM:   8    -0.413474429717E+03    0.46451E-04   -0.39872E-04  5389   0.251E-02    0.370E-02
RMM:   9    -0.413474432470E+03   -0.27530E-05   -0.23824E-04  4642   0.195E-02    0.154E-02
RMM:  10    -0.413474434931E+03   -0.24608E-05   -0.55805E-05  5599   0.875E-03    0.102E-02
RMM:  11    -0.413474434123E+03    0.80811E-06   -0.14524E-05  4132   0.470E-03    0.473E-03
RMM:  12    -0.413474436556E+03   -0.24329E-05   -0.55828E-06  3109   0.335E-03    0.260E-03
RMM:  13    -0.413474438142E+03   -0.15860E-05   -0.14605E-06  2559   0.202E-03    0.129E-03
RMM:  14    -0.413474438997E+03   -0.85531E-06   -0.11015E-06  2520   0.155E-03
  145 T=   123. E= -.41286924E+03 F= -.41347444E+03 E0= -.41345070E+03  EK= 0.60520E+00 SP= 0.00E+00 SK= 0.00E+00
       N       E                     dE             d eps       ncg     rms          rms(c)
RMM:   1    -0.413540979920E+03   -0.66542E-01   -0.11464E+01  4264   0.621E+00    0.927E-01
RMM:   2    -0.413504591293E+03    0.36389E-01   -0.30528E-01  5394   0.660E-01    0.774E-01
RMM:   3    -0.413507600226E+03   -0.30089E-02   -0.43898E-02  5394   0.250E-01    0.499E-01
RMM:   4    -0.413567770431E+03   -0.60170E-01   -0.76018E-02  5258   0.256E-01    0.110E+00
RMM:   5    -0.413503279891E+03    0.64491E-01   -0.38969E-02  4853   0.229E-01    0.142E-01
RMM:   6    -0.413502945036E+03    0.33486E-03   -0.71654E-03  5574   0.988E-02    0.692E-02
RMM:   7    -0.413502943665E+03    0.13702E-05   -0.16718E-03  5630   0.428E-02    0.527E-02
RMM:   8    -0.413502879317E+03    0.64348E-04   -0.47251E-04  5160   0.253E-02    0.328E-02
RMM:   9    -0.413502880282E+03   -0.96486E-06   -0.15961E-04  4835   0.164E-02    0.149E-02
RMM:  10    -0.413502881929E+03   -0.16470E-05   -0.51075E-05  5764   0.796E-03    0.905E-03
RMM:  11    -0.413502881900E+03    0.29628E-07   -0.11062E-05  3892   0.414E-03    0.488E-03
RMM:  12    -0.413502883002E+03   -0.11026E-05   -0.37384E-06  2848   0.295E-03    0.237E-03
RMM:  13    -0.413502884428E+03   -0.14261E-05   -0.12883E-06  2529   0.192E-03    0.121E-03
RMM:  14    -0.413502885965E+03   -0.15366E-05   -0.79382E-07  2485   0.141E-03    0.592E-04
RMM:  15    -0.413502886876E+03   -0.91075E-06   -0.42047E-07  2031   0.991E-04
  146 T=   129. E= -.41286819E+03 F= -.41350289E+03 E0= -.41347966E+03  EK= 0.63470E+00 SP= 0.00E+00 SK= 0.00E+00
       N       E                     dE             d eps       ncg     rms          rms(c)
RMM:   1    -0.413682836056E+03   -0.17995E+00   -0.13590E+01  4264   0.671E+00    0.846E-01
RMM:   2    -0.413623499257E+03    0.59337E-01   -0.36403E-01  5385   0.736E-01    0.780E-01
RMM:   3    -0.413643903273E+03   -0.20404E-01   -0.64816E-02  5765   0.267E-01    0.865E-01
RMM:   4    -0.413621073846E+03    0.22829E-01   -0.22512E-02  5002   0.178E-01    0.442E-01
RMM:   5    -0.413620279561E+03    0.79428E-03   -0.20536E-02  4379   0.196E-01    0.141E-01
RMM:   6    -0.413619603171E+03    0.67639E-03   -0.39155E-03  5140   0.820E-02    0.839E-02
RMM:   7    -0.413619400012E+03    0.20316E-03   -0.11104E-03  5470   0.403E-02    0.599E-02
RMM:   8    -0.413619294872E+03    0.10514E-03   -0.34478E-04  4523   0.244E-02    0.319E-02
RMM:   9    -0.413619284609E+03    0.10263E-04   -0.28550E-04  4633   0.213E-02    0.130E-02
RMM:  10    -0.413619287694E+03   -0.30850E-05   -0.52753E-05  5517   0.826E-03    0.104E-02
RMM:  11    -0.413619286660E+03    0.10337E-05   -0.11620E-05  4014   0.456E-03    0.500E-03
RMM:  12    -0.413619290131E+03   -0.34703E-05   -0.46330E-06  3007   0.323E-03    0.254E-03
RMM:  13    -0.413619293609E+03   -0.34777E-05   -0.12485E-06  2552   0.193E-03    0.125E-03
RMM:  14    -0.413619296622E+03   -0.30137E-05   -0.83369E-07  2490   0.137E-03    0.600E-04
RMM:  15    -0.413619299459E+03   -0.28366E-05   -0.56616E-07  2105   0.107E-03    0.435E-04
RMM:  16    -0.413619303084E+03   -0.36256E-05   -0.62863E-07  2108   0.103E-03    0.236E-04
RMM:  17    -0.413619305419E+03   -0.23345E-05   -0.37182E-07  1649   0.815E-04    0.139E-04
RMM:  18    -0.413619308676E+03   -0.32567E-05   -0.50716E-07  1837   0.881E-04    0.151E-04
RMM:  19    -0.413619310186E+03   -0.15104E-05   -0.21631E-07  1235   0.670E-04    0.937E-05
RMM:  20    -0.413619311391E+03   -0.12045E-05   -0.13090E-07  1105   0.620E-04    0.511E-05
RMM:  21    -0.413619312551E+03   -0.11601E-05   -0.97879E-08  1082   0.603E-04    0.414E-05
RMM:  22    -0.413619312872E+03   -0.32092E-06   -0.47135E-08   896   0.560E-04
  147 T=   152. E= -.41287396E+03 F= -.41361931E+03 E0= -.41359681E+03  EK= 0.74536E+00 SP= 0.00E+00 SK= 0.00E+00
       N       E                     dE             d eps       ncg     rms          rms(c)
RMM:   1    -0.413842315379E+03   -0.22300E+00   -0.17786E+01  4264   0.758E+00    0.129E+00
RMM:   2    -0.413745968430E+03    0.96347E-01   -0.53869E-01  5335   0.883E-01    0.117E+00
RMM:   3    -0.413790399604E+03   -0.44431E-01   -0.11117E-01  5662   0.354E-01    0.127E+00
RMM:   4    -0.413742483501E+03    0.47916E-01   -0.52903E-02  4986   0.275E-01    0.553E-01
RMM:   5    -0.413741319866E+03    0.11636E-02   -0.32764E-02  4645   0.245E-01    0.205E-01
RMM:   6    -0.413739471131E+03    0.18487E-02   -0.65541E-03  4918   0.108E-01    0.102E-01
RMM:   7    -0.413739097748E+03    0.37338E-03   -0.14495E-03  5292   0.494E-02    0.642E-02
RMM:   8    -0.413738987443E+03    0.11030E-03   -0.48718E-04  4596   0.293E-02    0.356E-02
RMM:   9    -0.413738969422E+03    0.18021E-04   -0.28520E-04  4677   0.218E-02    0.144E-02
RMM:  10    -0.413738975007E+03   -0.55843E-05   -0.81338E-05  5945   0.987E-03    0.113E-02
RMM:  11    -0.413738973762E+03    0.12450E-05   -0.16569E-05  4422   0.513E-03    0.580E-03
RMM:  12    -0.413738977410E+03   -0.36485E-05   -0.63180E-06  3344   0.372E-03    0.297E-03
RMM:  13    -0.413738981946E+03   -0.45359E-05   -0.19176E-06  2620   0.239E-03    0.180E-03
RMM:  14    -0.413738985414E+03   -0.34683E-05   -0.86386E-07  2527   0.151E-03    0.752E-04
RMM:  15    -0.413738988756E+03   -0.33413E-05   -0.63615E-07  2299   0.118E-03    0.540E-04
RMM:  16    -0.413738994027E+03   -0.52711E-05   -0.97138E-07  2430   0.126E-03    0.388E-04
RMM:  17    -0.413738996604E+03   -0.25774E-05   -0.44764E-07  1603   0.841E-04    0.203E-04
RMM:  18    -0.413739000236E+03   -0.36317E-05   -0.62357E-07  2020   0.968E-04    0.218E-04
RMM:  19    -0.413739002150E+03   -0.19144E-05   -0.27949E-07  1361   0.714E-04    0.140E-04
RMM:  20    -0.413739004342E+03   -0.21916E-05   -0.22455E-07  1314   0.678E-04    0.916E-05
RMM:  21    -0.413739005476E+03   -0.11337E-05   -0.13537E-07  1125   0.610E-04    0.552E-05
RMM:  22    -0.413739005864E+03   -0.38862E-06   -0.62934E-08   933   0.556E-04
  148 T=   173. E= -.41288785E+03 F= -.41373901E+03 E0= -.41371717E+03  EK= 0.85115E+00 SP= 0.00E+00 SK= 0.00E+00
       N       E                     dE             d eps       ncg     rms          rms(c)
RMM:   1    -0.413820609479E+03   -0.81604E-01   -0.19753E+01  4273   0.785E+00    0.163E+00
RMM:   2    -0.413718658548E+03    0.10195E+00   -0.63081E-01  5308   0.918E-01    0.141E+00
RMM:   3    -0.413816256702E+03   -0.97598E-01   -0.17578E-01  5569   0.439E-01    0.159E+00
RMM:   4    -0.413726756108E+03    0.89501E-01   -0.11802E-01  5052   0.380E-01    0.627E-01
RMM:   5    -0.413717794695E+03    0.89614E-02   -0.49351E-02  5015   0.293E-01    0.253E-01
RMM:   6    -0.413715173548E+03    0.26211E-02   -0.80939E-03  4946   0.124E-01    0.105E-01
RMM:   7    -0.413714797839E+03    0.37571E-03   -0.18448E-03  5244   0.552E-02    0.625E-02
RMM:   8    -0.413714729380E+03    0.68458E-04   -0.76784E-04  5328   0.348E-02    0.379E-02
RMM:   9    -0.413714710267E+03    0.19113E-04   -0.22703E-04  5099   0.194E-02    0.199E-02
RMM:  10    -0.413714709716E+03    0.55080E-06   -0.83698E-05  5734   0.108E-02    0.108E-02
RMM:  11    -0.413714710386E+03   -0.66948E-06   -0.22533E-05  4794   0.549E-03    0.680E-03
RMM:  12    -0.413714713535E+03   -0.31491E-05   -0.77189E-06  3785   0.412E-03    0.350E-03
RMM:  13    -0.413714717112E+03   -0.35771E-05   -0.24554E-06  2675   0.254E-03    0.229E-03
RMM:  14    -0.413714720551E+03   -0.34393E-05   -0.10900E-06  2530   0.178E-03    0.882E-04
RMM:  15    -0.413714723272E+03   -0.27209E-05   -0.63336E-07  2402   0.124E-03    0.565E-04
RMM:  16    -0.413714727131E+03   -0.38590E-05   -0.73335E-07  2303   0.115E-03    0.339E-04
RMM:  17    -0.413714729689E+03   -0.25573E-05   -0.44474E-07  1674   0.880E-04    0.192E-04
RMM:  18    -0.413714732908E+03   -0.32194E-05   -0.65622E-07  2155   0.102E-03    0.203E-04
RMM:  19    -0.413714734266E+03   -0.13581E-05   -0.24773E-07  1261   0.681E-04    0.119E-04
RMM:  20    -0.413714736055E+03   -0.17892E-05   -0.21780E-07  1283   0.686E-04    0.111E-04
RMM:  21    -0.413714737046E+03   -0.99035E-06   -0.12910E-07  1119   0.611E-04
  149 T=   171. E= -.41287606E+03 F= -.41371474E+03 E0= -.41369317E+03  EK= 0.83867E+00 SP= 0.00E+00 SK= 0.00E+00
       N       E                     dE             d eps       ncg     rms          rms(c)
RMM:   1    -0.413808981136E+03   -0.94245E-01   -0.18262E+01  4282   0.751E+00    0.109E+00
RMM:   2    -0.413726865117E+03    0.82116E-01   -0.53483E-01  5369   0.806E-01    0.920E-01
RMM:   3    -0.413769876812E+03   -0.43012E-01   -0.10189E-01  5623   0.351E-01    0.107E+00
RMM:   4    -0.413735496839E+03    0.34380E-01   -0.56573E-02  5196   0.257E-01    0.591E-01
RMM:   5    -0.413727111671E+03    0.83852E-02   -0.30318E-02  4726   0.237E-01    0.151E-01
RMM:   6    -0.413726206417E+03    0.90525E-03   -0.26855E-03  4763   0.775E-02    0.704E-02
RMM:   7    -0.413726137939E+03    0.68478E-04   -0.87396E-04  5326   0.357E-02    0.435E-02
RMM:   8    -0.413726107123E+03    0.30816E-04   -0.52246E-04  5435   0.272E-02    0.318E-02
RMM:   9    -0.413726099305E+03    0.78176E-05   -0.12780E-04  5349   0.143E-02    0.218E-02
RMM:  10    -0.413726091500E+03    0.78052E-05   -0.73558E-05  5483   0.105E-02    0.767E-03
RMM:  11    -0.413726094948E+03   -0.34481E-05   -0.21386E-05  4620   0.491E-03    0.619E-03
RMM:  12    -0.413726096130E+03   -0.11825E-05   -0.36838E-06  2879   0.304E-03    0.236E-03
RMM:  13    -0.413726098482E+03   -0.23520E-05   -0.14059E-06  2541   0.196E-03    0.125E-03
RMM:  14    -0.413726100724E+03   -0.22420E-05   -0.87598E-07  2446   0.149E-03    0.526E-04
RMM:  15    -0.413726102586E+03   -0.18618E-05   -0.62328E-07  2244   0.119E-03    0.354E-04
RMM:  16    -0.413726104271E+03   -0.16846E-05   -0.47276E-07  2067   0.100E-03    0.312E-04
RMM:  17    -0.413726105550E+03   -0.12790E-05   -0.30369E-07  1602   0.811E-04    0.205E-04
RMM:  18    -0.413726106931E+03   -0.13810E-05   -0.31192E-07  1714   0.807E-04    0.809E-05
RMM:  19    -0.413726107684E+03   -0.75342E-06   -0.14994E-07  1240   0.633E-04
  150 T=   176. E= -.41286082E+03 F= -.41372611E+03 E0= -.41370469E+03  EK= 0.86529E+00 SP= 0.00E+00 SK= 0.00E+00
