       N       E                     dE             d eps       ncg     rms          rms(c)
RMM:   1     0.220124506503E+04    0.22012E+04   -0.52441E+04  2132   0.654E+02
RMM:   2     0.705597181101E+03   -0.14956E+04   -0.16263E+04  2132   0.177E+02
RMM:   3     0.137784960770E+03   -0.56781E+03   -0.65719E+03  2132   0.117E+02
RMM:   4    -0.158996355504E+03   -0.29678E+03   -0.27786E+03  2132   0.935E+01
RMM:   5    -0.287425075024E+03   -0.12843E+03   -0.11450E+03  2132   0.595E+01
RMM:   6    -0.349901333498E+03   -0.62476E+02   -0.55215E+02  2132   0.423E+01
RMM:   7    -0.382766985840E+03   -0.32866E+02   -0.30408E+02  2132   0.293E+01
RMM:   8    -0.404252328408E+03   -0.21485E+02   -0.18390E+02  2132   0.233E+01
RMM:   9    -0.436060436487E+03   -0.31808E+02   -0.30703E+02  6110   0.173E+01
RMM:  10    -0.441324355358E+03   -0.52639E+01   -0.62854E+01  6390   0.539E+00
RMM:  11    -0.442512135216E+03   -0.11878E+01   -0.11073E+01  6225   0.173E+00
RMM:  12    -0.442883428402E+03   -0.37129E+00   -0.26153E+00  6366   0.599E-01    0.134E+02
RMM:  13    -0.425628375848E+03    0.17255E+02   -0.80953E+01  4671   0.119E+01    0.712E+01
RMM:  14    -0.499868798025E+03   -0.74240E+02   -0.54244E+02  5421   0.233E+01    0.307E+01
RMM:  15    -0.415119344470E+03    0.84749E+02   -0.19778E+02  5068   0.163E+01    0.655E+00
RMM:  16    -0.414008436712E+03    0.11109E+01   -0.39184E+01  6069   0.607E+00    0.424E+00
RMM:  17    -0.413215454241E+03    0.79298E+00   -0.24436E+00  5371   0.184E+00    0.244E+00
RMM:  18    -0.413169268500E+03    0.46186E-01   -0.83283E-01  5966   0.934E-01    0.163E+00
RMM:  19    -0.413166942692E+03    0.23258E-02   -0.29501E-01  5704   0.576E-01    0.849E-01
RMM:  20    -0.413182167778E+03   -0.15225E-01   -0.21353E-01  5464   0.498E-01    0.537E-01
RMM:  21    -0.413167040035E+03    0.15128E-01   -0.33388E-02  5011   0.224E-01    0.252E-01
RMM:  22    -0.413165420759E+03    0.16193E-02   -0.15589E-02  6102   0.106E-01    0.144E-01
RMM:  23    -0.413164196364E+03    0.12244E-02   -0.55869E-03  5873   0.675E-02    0.845E-02
RMM:  24    -0.413162938030E+03    0.12583E-02   -0.17221E-03  5454   0.413E-02    0.428E-02
RMM:  25    -0.413162671962E+03    0.26607E-03   -0.87051E-04  5474   0.265E-02    0.343E-02
RMM:  26    -0.413162844425E+03   -0.17246E-03   -0.76498E-04  5846   0.283E-02    0.322E-02
RMM:  27    -0.413163273412E+03   -0.42899E-03   -0.18673E-04  4519   0.196E-02    0.181E-02
RMM:  28    -0.413163734454E+03   -0.46104E-03   -0.17796E-04  5272   0.189E-02    0.922E-03
RMM:  29    -0.413164123545E+03   -0.38909E-03   -0.10495E-04  4382   0.153E-02    0.454E-03
RMM:  30    -0.413164338791E+03   -0.21525E-03   -0.72073E-05  4145   0.968E-03    0.305E-03
RMM:  31    -0.413164468791E+03   -0.13000E-03   -0.51876E-05  3240   0.681E-03    0.311E-03
RMM:  32    -0.413164493851E+03   -0.25060E-04   -0.20039E-05  2958   0.303E-03    0.139E-03
RMM:  33    -0.413164506521E+03   -0.12670E-04   -0.79457E-06  2782   0.216E-03    0.541E-04
RMM:  34    -0.413164510211E+03   -0.36903E-05   -0.45486E-06  2666   0.169E-03    0.892E-04
RMM:  35    -0.413164510194E+03    0.16389E-07   -0.22014E-06  2287   0.117E-03
    1 T=    61. E= -.41286670E+03 F= -.41316451E+03 E0= -.41314201E+03  EK= 0.29781E+00 SP= 0.00E+00 SK= 0.00E+00
       N       E                     dE             d eps       ncg     rms          rms(c)
RMM:   1    -0.413160008964E+03    0.45012E-02   -0.11037E+01  4000   0.720E-01    0.886E-01
RMM:   2    -0.413165925469E+03   -0.59165E-02   -0.13849E-01  3915   0.996E-02    0.642E-01
RMM:   3    -0.413164216371E+03    0.17091E-02   -0.67895E-03  4686   0.371E-02    0.151E-01
RMM:   4    -0.413180507985E+03   -0.16292E-01   -0.17057E-02  5219   0.109E-01    0.535E-01
RMM:   5    -0.413163938097E+03    0.16570E-01   -0.82357E-03  4854   0.895E-02    0.305E-02
RMM:   6    -0.413164035857E+03   -0.97760E-04   -0.13187E-03  5821   0.351E-02    0.184E-02
RMM:   7    -0.413164049461E+03   -0.13603E-04   -0.18356E-04  5746   0.117E-02    0.121E-02
RMM:   8    -0.413164056476E+03   -0.70153E-05   -0.23616E-05  4142   0.486E-03    0.554E-03
RMM:   9    -0.413164062223E+03   -0.57470E-05   -0.51525E-06  2895   0.260E-03    0.391E-03
RMM:  10    -0.413164067729E+03   -0.55058E-05   -0.13519E-06  2540   0.166E-03    0.252E-03
RMM:  11    -0.413164075581E+03   -0.78524E-05   -0.12934E-06  2524   0.156E-03    0.100E-03
RMM:  12    -0.413164080107E+03   -0.45255E-05   -0.76015E-07  2333   0.118E-03    0.405E-04
RMM:  13    -0.413164080829E+03   -0.72281E-06   -0.36472E-07  1672   0.821E-04
    2 T=    61. E= -.41286637E+03 F= -.41316408E+03 E0= -.41314158E+03  EK= 0.29771E+00 SP= 0.00E+00 SK= 0.00E+00
       N       E                     dE             d eps       ncg     rms          rms(c)
RMM:   1    -0.413156409918E+03    0.76702E-02   -0.11023E+01  4195   0.698E-01    0.911E-01
RMM:   2    -0.413165891344E+03   -0.94814E-02   -0.13254E-01  4026   0.976E-02    0.634E-01
RMM:   3    -0.413164871773E+03    0.10196E-02   -0.72681E-03  4838   0.381E-02    0.160E-01
RMM:   4    -0.413189750126E+03   -0.24878E-01   -0.25138E-02  5187   0.133E-01    0.658E-01
RMM:   5    -0.413164556841E+03    0.25193E-01   -0.12275E-02  4830   0.110E-01    0.366E-02
RMM:   6    -0.413164710264E+03   -0.15342E-03   -0.20005E-03  5821   0.431E-02    0.213E-02
RMM:   7    -0.413164719801E+03   -0.95374E-05   -0.25478E-04  5893   0.137E-02    0.144E-02
RMM:   8    -0.413164720143E+03   -0.34179E-06   -0.37115E-05  4694   0.588E-03    0.763E-03
RMM:   9    -0.413164719520E+03    0.62288E-06   -0.75336E-06  3224   0.313E-03
    3 T=    61. E= -.41286677E+03 F= -.41316472E+03 E0= -.41314222E+03  EK= 0.29795E+00 SP= 0.00E+00 SK= 0.00E+00
       N       E                     dE             d eps       ncg     rms          rms(c)
RMM:   1    -0.413155922488E+03    0.87977E-02   -0.10936E+01  4226   0.698E-01    0.894E-01
RMM:   2    -0.413165794319E+03   -0.98718E-02   -0.13151E-01  4264   0.967E-02    0.628E-01
RMM:   3    -0.413169872938E+03   -0.40786E-02   -0.11287E-02  5190   0.761E-02    0.346E-01
RMM:   4    -0.413187131268E+03   -0.17258E-01   -0.36392E-02  5115   0.163E-01    0.630E-01
RMM:   5    -0.413164464073E+03    0.22667E-01   -0.88342E-03  4705   0.105E-01    0.538E-02
RMM:   6    -0.413164446176E+03    0.17897E-04   -0.15585E-03  5469   0.395E-02    0.200E-02
RMM:   7    -0.413164465209E+03   -0.19033E-04   -0.25112E-04  6017   0.146E-02    0.134E-02
RMM:   8    -0.413164467461E+03   -0.22515E-05   -0.38728E-05  5084   0.640E-03    0.684E-03
RMM:   9    -0.413164468561E+03   -0.11007E-05   -0.89330E-06  3434   0.380E-03    0.361E-03
RMM:  10    -0.413164469759E+03   -0.11976E-05   -0.13770E-06  2534   0.197E-03    0.217E-03
RMM:  11    -0.413164471803E+03   -0.20438E-05   -0.12189E-06  2539   0.172E-03    0.129E-03
RMM:  12    -0.413164472781E+03   -0.97865E-06   -0.55150E-07  2341   0.119E-03
    4 T=    61. E= -.41286647E+03 F= -.41316447E+03 E0= -.41314198E+03  EK= 0.29800E+00 SP= 0.00E+00 SK= 0.00E+00
       N       E                     dE             d eps       ncg     rms          rms(c)
RMM:   1    -0.413155792200E+03    0.86796E-02   -0.10981E+01  4238   0.705E-01    0.884E-01
RMM:   2    -0.413166240037E+03   -0.10448E-01   -0.13546E-01  3933   0.934E-02    0.640E-01
RMM:   3    -0.413164955870E+03    0.12842E-02   -0.69706E-03  4955   0.401E-02    0.162E-01
RMM:   4    -0.413199474554E+03   -0.34519E-01   -0.35420E-02  5163   0.157E-01    0.773E-01
RMM:   5    -0.413164357642E+03    0.35117E-01   -0.16888E-02  4818   0.129E-01    0.408E-02
RMM:   6    -0.413164559563E+03   -0.20192E-03   -0.27682E-03  5786   0.504E-02    0.205E-02
RMM:   7    -0.413164581669E+03   -0.22107E-04   -0.33492E-04  5939   0.151E-02    0.150E-02
RMM:   8    -0.413164587201E+03   -0.55316E-05   -0.45362E-05  4851   0.625E-03    0.828E-03
RMM:   9    -0.413164591101E+03   -0.39001E-05   -0.91833E-06  3364   0.332E-03    0.540E-03
RMM:  10    -0.413164596488E+03   -0.53872E-05   -0.20643E-06  2566   0.203E-03    0.322E-03
RMM:  11    -0.413164602432E+03   -0.59440E-05   -0.15558E-06  2554   0.182E-03    0.156E-03
RMM:  12    -0.413164606653E+03   -0.42206E-05   -0.94467E-07  2479   0.146E-03    0.484E-04
RMM:  13    -0.413164607503E+03   -0.84963E-06   -0.34928E-07  2060   0.974E-04
    5 T=    61. E= -.41286643E+03 F= -.41316461E+03 E0= -.41314213E+03  EK= 0.29818E+00 SP= 0.00E+00 SK= 0.00E+00
       N       E                     dE             d eps       ncg     rms          rms(c)
RMM:   1    -0.413156756124E+03    0.78505E-02   -0.11031E+01  4252   0.715E-01    0.906E-01
RMM:   2    -0.413166461122E+03   -0.97050E-02   -0.13271E-01  4085   0.983E-02    0.636E-01
RMM:   3    -0.413165439350E+03    0.10218E-02   -0.71492E-03  4835   0.400E-02    0.161E-01
RMM:   4    -0.413193433413E+03   -0.27994E-01   -0.28264E-02  5161   0.140E-01    0.698E-01
RMM:   5    -0.413164994366E+03    0.28439E-01   -0.13791E-02  4820   0.116E-01    0.377E-02
RMM:   6    -0.413165162135E+03   -0.16777E-03   -0.22416E-03  5801   0.454E-02    0.213E-02
RMM:   7    -0.413165172152E+03   -0.10017E-04   -0.27342E-04  5902   0.141E-02    0.148E-02
RMM:   8    -0.413165172501E+03   -0.34914E-06   -0.40109E-05  4756   0.604E-03    0.807E-03
RMM:   9    -0.413165171542E+03    0.95920E-06   -0.81819E-06  3304   0.326E-03
    6 T=    61. E= -.41286670E+03 F= -.41316517E+03 E0= -.41314271E+03  EK= 0.29847E+00 SP= 0.00E+00 SK= 0.00E+00
       N       E                     dE             d eps       ncg     rms          rms(c)
RMM:   1    -0.413156423263E+03    0.87492E-02   -0.10972E+01  4275   0.715E-01    0.901E-01
RMM:   2    -0.413165974660E+03   -0.95514E-02   -0.13190E-01  4291   0.981E-02    0.629E-01
RMM:   3    -0.413170366739E+03   -0.43921E-02   -0.11579E-02  5154   0.770E-02    0.350E-01
RMM:   4    -0.413186708200E+03   -0.16341E-01   -0.35624E-02  5096   0.161E-01    0.619E-01
RMM:   5    -0.413164800508E+03    0.21908E-01   -0.84712E-03  4690   0.102E-01    0.531E-02
RMM:   6    -0.413164785235E+03    0.15273E-04   -0.15076E-03  5456   0.387E-02    0.203E-02
RMM:   7    -0.413164801318E+03   -0.16082E-04   -0.24212E-04  6013   0.145E-02    0.134E-02
RMM:   8    -0.413164801502E+03   -0.18468E-06   -0.37636E-05  5069   0.641E-03    0.680E-03
RMM:   9    -0.413164799257E+03    0.22450E-05   -0.85879E-06  3386   0.378E-03    0.360E-03
RMM:  10    -0.413164799255E+03    0.21682E-08   -0.13141E-06  2530   0.196E-03
    7 T=    61. E= -.41286630E+03 F= -.41316480E+03 E0= -.41314235E+03  EK= 0.29850E+00 SP= 0.00E+00 SK= 0.00E+00
       N       E                     dE             d eps       ncg     rms          rms(c)
RMM:   1    -0.413156557553E+03    0.82417E-02   -0.10969E+01  4265   0.721E-01    0.883E-01
RMM:   2    -0.413167048470E+03   -0.10491E-01   -0.13469E-01  4134   0.965E-02    0.638E-01
RMM:   3    -0.413165748865E+03    0.12996E-02   -0.69126E-03  4936   0.393E-02    0.160E-01
RMM:   4    -0.413196641417E+03   -0.30893E-01   -0.31513E-02  5156   0.148E-01    0.732E-01
RMM:   5    -0.413165261675E+03    0.31380E-01   -0.15218E-02  4815   0.122E-01    0.391E-02
RMM:   6    -0.413165444213E+03   -0.18254E-03   -0.24600E-03  5775   0.476E-02    0.200E-02
RMM:   7    -0.413165462494E+03   -0.18281E-04   -0.30702E-04  5902   0.145E-02    0.143E-02
RMM:   8    -0.413165466888E+03   -0.43942E-05   -0.38738E-05  4624   0.584E-03    0.747E-03
RMM:   9    -0.413165469837E+03   -0.29490E-05   -0.83176E-06  3242   0.313E-03    0.501E-03
RMM:  10    -0.413165473500E+03   -0.36628E-05   -0.18274E-06  2551   0.195E-03    0.303E-03
RMM:  11    -0.413165477794E+03   -0.42940E-05   -0.15084E-06  2559   0.178E-03    0.138E-03
RMM:  12    -0.413165480489E+03   -0.26947E-05   -0.89204E-07  2456   0.139E-03    0.448E-04
RMM:  13    -0.413165480916E+03   -0.42692E-06   -0.31166E-07  1971   0.916E-04
    8 T=    61. E= -.41286664E+03 F= -.41316548E+03 E0= -.41314305E+03  EK= 0.29884E+00 SP= 0.00E+00 SK= 0.00E+00
       N       E                     dE             d eps       ncg     rms          rms(c)
RMM:   1    -0.413156976717E+03    0.85038E-02   -0.11034E+01  4287   0.723E-01    0.900E-01
RMM:   2    -0.413166983762E+03   -0.10007E-01   -0.13391E-01  4188   0.100E-01    0.639E-01
RMM:   3    -0.413165838906E+03    0.11449E-02   -0.70856E-03  4797   0.389E-02    0.158E-01
RMM:   4    -0.413191934877E+03   -0.26096E-01   -0.26426E-02  5157   0.136E-01    0.675E-01
RMM:   5    -0.413165395094E+03    0.26540E-01   -0.12935E-02  4819   0.112E-01    0.359E-02
RMM:   6    -0.413165555020E+03   -0.15993E-03   -0.20812E-03  5807   0.436E-02    0.205E-02
RMM:   7    -0.413165564899E+03   -0.98800E-05   -0.25239E-04  5862   0.137E-02    0.143E-02
RMM:   8    -0.413165565470E+03   -0.57001E-06   -0.37465E-05  4710   0.594E-03    0.786E-03
RMM:   9    -0.413165564834E+03    0.63504E-06   -0.76083E-06  3235   0.320E-03
    9 T=    61. E= -.41286649E+03 F= -.41316556E+03 E0= -.41314316E+03  EK= 0.29907E+00 SP= 0.00E+00 SK= 0.00E+00
       N       E                     dE             d eps       ncg     rms          rms(c)
RMM:   1    -0.413157339117E+03    0.82264E-02   -0.11016E+01  4293   0.729E-01    0.909E-01
RMM:   2    -0.413166732596E+03   -0.93935E-02   -0.13212E-01  4313   0.982E-02    0.631E-01
RMM:   3    -0.413171481782E+03   -0.47492E-02   -0.11987E-02  5151   0.785E-02    0.358E-01
RMM:   4    -0.413186489240E+03   -0.15007E-01   -0.35008E-02  5083   0.160E-01    0.606E-01
RMM:   5    -0.413165697373E+03    0.20792E-01   -0.80014E-03  4677   0.100E-01    0.523E-02
RMM:   6    -0.413165677732E+03    0.19641E-04   -0.14300E-03  5438   0.374E-02    0.207E-02
RMM:   7    -0.413165691065E+03   -0.13333E-04   -0.23066E-04  6003   0.141E-02    0.135E-02
RMM:   8    -0.413165689610E+03    0.14550E-05   -0.36302E-05  5049   0.630E-03    0.674E-03
RMM:   9    -0.413165685272E+03    0.43383E-05   -0.80725E-06  3294   0.365E-03    0.353E-03
RMM:  10    -0.413165684465E+03    0.80659E-06   -0.12716E-06  2523   0.193E-03
   10 T=    61. E= -.41286633E+03 F= -.41316568E+03 E0= -.41314330E+03  EK= 0.29936E+00 SP= 0.00E+00 SK= 0.00E+00
       N       E                     dE             d eps       ncg     rms          rms(c)
RMM:   1    -0.413157589589E+03    0.80957E-02   -0.10970E+01  4300   0.728E-01    0.884E-01
RMM:   2    -0.413168077319E+03   -0.10488E-01   -0.13381E-01  4207   0.964E-02    0.635E-01
RMM:   3    -0.413166883167E+03    0.11942E-02   -0.68895E-03  4924   0.406E-02    0.165E-01
RMM:   4    -0.413201362430E+03   -0.34479E-01   -0.35541E-02  5154   0.156E-01    0.773E-01
RMM:   5    -0.413166234333E+03    0.35128E-01   -0.17181E-02  4810   0.129E-01    0.410E-02
RMM:   6    -0.413166419058E+03   -0.18473E-03   -0.26297E-03  5771   0.500E-02    0.208E-02
RMM:   7    -0.413166434675E+03   -0.15617E-04   -0.33283E-04  5923   0.151E-02    0.149E-02
RMM:   8    -0.413166436651E+03   -0.19759E-05   -0.42993E-05  4768   0.615E-03    0.783E-03
RMM:   9    -0.413166436989E+03   -0.33782E-06   -0.91835E-06  3320   0.326E-03
   11 T=    61. E= -.41286655E+03 F= -.41316644E+03 E0= -.41314408E+03  EK= 0.29988E+00 SP= 0.00E+00 SK= 0.00E+00
       N       E                     dE             d eps       ncg     rms          rms(c)
RMM:   1    -0.413157861708E+03    0.85749E-02   -0.11053E+01  4302   0.743E-01    0.896E-01
RMM:   2    -0.413167832550E+03   -0.99708E-02   -0.13530E-01  4288   0.960E-02    0.642E-01
RMM:   3    -0.413171322895E+03   -0.34903E-02   -0.10965E-02  5155   0.739E-02    0.334E-01
RMM:   4    -0.413193532843E+03   -0.22210E-01   -0.41223E-02  5102   0.172E-01    0.686E-01
RMM:   5    -0.413166246536E+03    0.27286E-01   -0.10980E-02  4709   0.113E-01    0.544E-02
RMM:   6    -0.413166269328E+03   -0.22792E-04   -0.19140E-03  5524   0.430E-02    0.190E-02
RMM:   7    -0.413166292565E+03   -0.23236E-04   -0.28168E-04  6031   0.151E-02    0.133E-02
RMM:   8    -0.413166295926E+03   -0.33608E-05   -0.42694E-05  5111   0.654E-03    0.704E-03
RMM:   9    -0.413166297042E+03   -0.11161E-05   -0.88947E-06  3314   0.378E-03    0.367E-03
RMM:  10    -0.413166298330E+03   -0.12885E-05   -0.16433E-06  2546   0.202E-03    0.220E-03
RMM:  11    -0.413166300107E+03   -0.17768E-05   -0.13687E-06  2548   0.177E-03    0.139E-03
RMM:  12    -0.413166300691E+03   -0.58411E-06   -0.58512E-07  2387   0.123E-03
   12 T=    61. E= -.41286619E+03 F= -.41316630E+03 E0= -.41314397E+03  EK= 0.30011E+00 SP= 0.00E+00 SK= 0.00E+00
       N       E                     dE             d eps       ncg     rms          rms(c)
RMM:   1    -0.413158648555E+03    0.76516E-02   -0.11065E+01  4294   0.743E-01    0.914E-01
RMM:   2    -0.413167990453E+03   -0.93419E-02   -0.13239E-01  4215   0.928E-02    0.633E-01
RMM:   3    -0.413167448560E+03    0.54189E-03   -0.75226E-03  5023   0.405E-02    0.179E-01
RMM:   4    -0.413206129218E+03   -0.38681E-01   -0.40493E-02  5147   0.167E-01    0.818E-01
RMM:   5    -0.413166726026E+03    0.39403E-01   -0.19103E-02  4797   0.136E-01    0.446E-02
RMM:   6    -0.413166931243E+03   -0.20522E-03   -0.29723E-03  5769   0.532E-02    0.231E-02
RMM:   7    -0.413166943513E+03   -0.12270E-04   -0.36916E-04  5923   0.162E-02    0.164E-02
RMM:   8    -0.413166940797E+03    0.27163E-05   -0.52361E-05  5004   0.680E-03    0.918E-03
RMM:   9    -0.413166935401E+03    0.53966E-05   -0.10231E-05  3452   0.351E-03    0.576E-03
RMM:  10    -0.413166931874E+03    0.35263E-05   -0.22098E-06  2567   0.213E-03    0.337E-03
RMM:  11    -0.413166928327E+03    0.35474E-05   -0.15365E-06  2532   0.188E-03    0.154E-03
RMM:  12    -0.413166925103E+03    0.32238E-05   -0.92021E-07  2482   0.150E-03    0.473E-04
RMM:  13    -0.413166924386E+03    0.71671E-06   -0.35549E-07  2123   0.101E-03
   13 T=    61. E= -.41286636E+03 F= -.41316692E+03 E0= -.41314462E+03  EK= 0.30057E+00 SP= 0.00E+00 SK= 0.00E+00
       N       E                     dE             d eps       ncg     rms          rms(c)
RMM:   1    -0.413159332257E+03    0.75928E-02   -0.10986E+01  4295   0.752E-01    0.888E-01
RMM:   2    -0.413168898860E+03   -0.95666E-02   -0.13392E-01  4227   0.949E-02    0.633E-01
RMM:   3    -0.413167851872E+03    0.10470E-02   -0.69316E-03  4910   0.380E-02    0.163E-01
RMM:   4    -0.413197978257E+03   -0.30126E-01   -0.30898E-02  5148   0.146E-01    0.724E-01
RMM:   5    -0.413167318576E+03    0.30660E-01   -0.15070E-02  4807   0.120E-01    0.376E-02
RMM:   6    -0.413167489233E+03   -0.17066E-03   -0.23135E-03  5802   0.466E-02    0.209E-02
RMM:   7    -0.413167498762E+03   -0.95286E-05   -0.28183E-04  5880   0.144E-02    0.146E-02
RMM:   8    -0.413167497868E+03    0.89315E-06   -0.43393E-05  4836   0.627E-03    0.839E-03
RMM:   9    -0.413167495143E+03    0.27255E-05   -0.88056E-06  3351   0.337E-03    0.556E-03
RMM:  10    -0.413167494503E+03    0.63961E-06   -0.17935E-06  2549   0.199E-03
   14 T=    61. E= -.41286645E+03 F= -.41316749E+03 E0= -.41314523E+03  EK= 0.30105E+00 SP= 0.00E+00 SK= 0.00E+00
       N       E                     dE             d eps       ncg     rms          rms(c)
RMM:   1    -0.413158743938E+03    0.87512E-02   -0.11069E+01  4307   0.751E-01    0.892E-01
RMM:   2    -0.413169564598E+03   -0.10821E-01   -0.13647E-01  4285   0.990E-02    0.644E-01
RMM:   3    -0.413170522479E+03   -0.95788E-03   -0.90988E-03  5109   0.621E-02    0.270E-01
RMM:   4    -0.413205805089E+03   -0.35283E-01   -0.48240E-02  5117   0.184E-01    0.807E-01
RMM:   5    -0.413167512321E+03    0.38293E-01   -0.16720E-02  4748   0.133E-01    0.521E-02
RMM:   6    -0.413167636526E+03   -0.12420E-03   -0.27347E-03  5658   0.512E-02    0.184E-02
RMM:   7    -0.413167662974E+03   -0.26448E-04   -0.35422E-04  6019   0.156E-02    0.139E-02
RMM:   8    -0.413167666124E+03   -0.31496E-05   -0.49072E-05  5075   0.668E-03    0.730E-03
RMM:   9    -0.413167665956E+03    0.16757E-06   -0.89643E-06  3172   0.336E-03
   15 T=    61. E= -.41286624E+03 F= -.41316767E+03 E0= -.41314543E+03  EK= 0.30143E+00 SP= 0.00E+00 SK= 0.00E+00
       N       E                     dE             d eps       ncg     rms          rms(c)
RMM:   1    -0.413160505200E+03    0.71609E-02   -0.11108E+01  4301   0.758E-01    0.915E-01
RMM:   2    -0.413169874326E+03   -0.93691E-02   -0.13365E-01  4261   0.100E-01    0.636E-01
RMM:   3    -0.413169096325E+03    0.77800E-03   -0.74849E-03  4949   0.427E-02    0.174E-01
RMM:   4    -0.413205430938E+03   -0.36335E-01   -0.37628E-02  5143   0.161E-01    0.793E-01
RMM:   5    -0.413168413660E+03    0.37017E-01   -0.18082E-02  4809   0.132E-01    0.430E-02
RMM:   6    -0.413168607328E+03   -0.19367E-03   -0.28150E-03  5814   0.516E-02    0.230E-02
RMM:   7    -0.413168615843E+03   -0.85148E-05   -0.35322E-04  5937   0.160E-02    0.161E-02
RMM:   8    -0.413168611461E+03    0.43822E-05   -0.47080E-05  4887   0.648E-03    0.862E-03
RMM:   9    -0.413168605844E+03    0.56169E-05   -0.10043E-05  3436   0.343E-03    0.568E-03
RMM:  10    -0.413168601963E+03    0.38811E-05   -0.20226E-06  2553   0.206E-03    0.336E-03
RMM:  11    -0.413168597671E+03    0.42916E-05   -0.15348E-06  2537   0.187E-03    0.154E-03
RMM:  12    -0.413168593767E+03    0.39047E-05   -0.90243E-07  2480   0.149E-03    0.485E-04
RMM:  13    -0.413168592881E+03    0.88557E-06   -0.33745E-07  2103   0.979E-04
   16 T=    62. E= -.41286648E+03 F= -.41316859E+03 E0= -.41314639E+03  EK= 0.30211E+00 SP= 0.00E+00 SK= 0.00E+00
       N       E                     dE             d eps       ncg     rms          rms(c)
RMM:   1    -0.413160341052E+03    0.82527E-02   -0.11020E+01  4298   0.752E-01    0.895E-01
RMM:   2    -0.413170536595E+03   -0.10196E-01   -0.13417E-01  4270   0.100E-01    0.633E-01
RMM:   3    -0.413169382865E+03    0.11537E-02   -0.70812E-03  4907   0.434E-02    0.170E-01
RMM:   4    -0.413203977185E+03   -0.34594E-01   -0.35618E-02  5147   0.157E-01    0.773E-01
RMM:   5    -0.413168818240E+03    0.35159E-01   -0.17311E-02  4803   0.129E-01    0.405E-02
RMM:   6    -0.413169013261E+03   -0.19502E-03   -0.26732E-03  5802   0.499E-02    0.222E-02
RMM:   7    -0.413169022762E+03   -0.95014E-05   -0.32270E-04  5899   0.154E-02    0.156E-02
RMM:   8    -0.413169020197E+03    0.25651E-05   -0.47980E-05  4923   0.652E-03    0.890E-03
RMM:   9    -0.413169015560E+03    0.46370E-05   -0.98116E-06  3440   0.346E-03    0.582E-03
RMM:  10    -0.413169012869E+03    0.26912E-05   -0.19833E-06  2550   0.206E-03    0.344E-03
RMM:  11    -0.413169009763E+03    0.31063E-05   -0.17205E-06  2553   0.197E-03    0.157E-03
RMM:  12    -0.413169007223E+03    0.25395E-05   -0.86166E-07  2469   0.149E-03    0.523E-04
RMM:  13    -0.413169006713E+03    0.51056E-06   -0.32436E-07  2087   0.971E-04
   17 T=    62. E= -.41286635E+03 F= -.41316901E+03 E0= -.41314685E+03  EK= 0.30266E+00 SP= 0.00E+00 SK= 0.00E+00
       N       E                     dE             d eps       ncg     rms          rms(c)
RMM:   1    -0.413160837916E+03    0.81693E-02   -0.11099E+01  4299   0.770E-01    0.890E-01
RMM:   2    -0.413171474765E+03   -0.10637E-01   -0.13696E-01  4273   0.101E-01    0.645E-01
RMM:   3    -0.413170000480E+03    0.14743E-02   -0.70317E-03  4948   0.403E-02    0.166E-01
RMM:   4    -0.413205994787E+03   -0.35994E-01   -0.37390E-02  5145   0.160E-01    0.789E-01
RMM:   5    -0.413169322760E+03    0.36672E-01   -0.18033E-02  4801   0.132E-01    0.406E-02
RMM:   6    -0.413169526355E+03   -0.20360E-03   -0.27932E-03  5800   0.509E-02    0.216E-02
RMM:   7    -0.413169539800E+03   -0.13445E-04   -0.33167E-04  5903   0.155E-02    0.154E-02
RMM:   8    -0.413169540260E+03   -0.45921E-06   -0.49388E-05  4941   0.655E-03    0.889E-03
RMM:   9    -0.413169538243E+03    0.20166E-05   -0.10228E-05  3476   0.352E-03    0.577E-03
RMM:  10    -0.413169538473E+03   -0.22978E-06   -0.21192E-06  2555   0.210E-03
   18 T=    62. E= -.41286620E+03 F= -.41316954E+03 E0= -.41314742E+03  EK= 0.30334E+00 SP= 0.00E+00 SK= 0.00E+00
       N       E                     dE             d eps       ncg     rms          rms(c)
RMM:   1    -0.413162381217E+03    0.71570E-02   -0.11152E+01  4300   0.764E-01    0.915E-01
RMM:   2    -0.413171927414E+03   -0.95462E-02   -0.13525E-01  4310   0.962E-02    0.640E-01
RMM:   3    -0.413174376392E+03   -0.24490E-02   -0.10116E-02  5120   0.675E-02    0.300E-01
RMM:   4    -0.413201105637E+03   -0.26729E-01   -0.42175E-02  5099   0.173E-01    0.725E-01
RMM:   5    -0.413170553460E+03    0.30552E-01   -0.12860E-02  4713   0.120E-01    0.509E-02
RMM:   6    -0.413170637873E+03   -0.84413E-04   -0.21890E-03  5620   0.453E-02    0.201E-02
RMM:   7    -0.413170653629E+03   -0.15756E-04   -0.28603E-04  5994   0.146E-02    0.138E-02
RMM:   8    -0.413170650847E+03    0.27817E-05   -0.43419E-05  5061   0.654E-03    0.700E-03
RMM:   9    -0.413170643576E+03    0.72705E-05   -0.79460E-06  3079   0.332E-03    0.309E-03
RMM:  10    -0.413170640866E+03    0.27104E-05   -0.18358E-06  2543   0.194E-03    0.194E-03
RMM:  11    -0.413170636748E+03    0.41178E-05   -0.10163E-06  2515   0.154E-03    0.112E-03
RMM:  12    -0.413170633933E+03    0.28156E-05   -0.49586E-07  2181   0.113E-03    0.493E-04
RMM:  13    -0.413170631735E+03    0.21976E-05   -0.28047E-07  1815   0.884E-04    0.227E-04
RMM:  14    -0.413170630035E+03    0.16997E-05   -0.18126E-07  1464   0.742E-04    0.144E-04
RMM:  15    -0.413170626694E+03    0.33409E-05   -0.22217E-07  1700   0.772E-04    0.157E-04
RMM:  16    -0.413170625305E+03    0.13896E-05   -0.10887E-07  1211   0.620E-04    0.123E-04
RMM:  17    -0.413170623185E+03    0.21199E-05   -0.96824E-08  1202   0.611E-04    0.493E-05
RMM:  18    -0.413170621790E+03    0.13952E-05   -0.61522E-08  1014   0.563E-04    0.398E-05
RMM:  19    -0.413170621128E+03    0.66143E-06   -0.33315E-08   834   0.527E-04
   19 T=    62. E= -.41286639E+03 F= -.41317062E+03 E0= -.41314854E+03  EK= 0.30423E+00 SP= 0.00E+00 SK= 0.00E+00
       N       E                     dE             d eps       ncg     rms          rms(c)
RMM:   1    -0.413162645512E+03    0.79763E-02   -0.11094E+01  4296   0.773E-01    0.904E-01
RMM:   2    -0.413172443578E+03   -0.97981E-02   -0.13464E-01  4262   0.100E-01    0.634E-01
RMM:   3    -0.413171692431E+03    0.75115E-03   -0.72819E-03  4969   0.427E-02    0.180E-01
RMM:   4    -0.413210894945E+03   -0.39203E-01   -0.41175E-02  5148   0.168E-01    0.822E-01
RMM:   5    -0.413170933461E+03    0.39961E-01   -0.19517E-02  4796   0.137E-01    0.442E-02
RMM:   6    -0.413171142098E+03   -0.20864E-03   -0.30764E-03  5797   0.532E-02    0.234E-02
RMM:   7    -0.413171151078E+03   -0.89797E-05   -0.36778E-04  5891   0.163E-02    0.165E-02
RMM:   8    -0.413171146846E+03    0.42317E-05   -0.53146E-05  5030   0.684E-03    0.929E-03
RMM:   9    -0.413171140231E+03    0.66151E-05   -0.11015E-05  3550   0.364E-03    0.589E-03
RMM:  10    -0.413171135992E+03    0.42389E-05   -0.22638E-06  2573   0.215E-03    0.346E-03
RMM:  11    -0.413171131788E+03    0.42045E-05   -0.15081E-06  2521   0.190E-03    0.164E-03
RMM:  12    -0.413171128221E+03    0.35673E-05   -0.84338E-07  2471   0.151E-03    0.489E-04
RMM:  13    -0.413171127385E+03    0.83512E-06   -0.34349E-07  2143   0.101E-03
   20 T=    62. E= -.41286626E+03 F= -.41317113E+03 E0= -.41314909E+03  EK= 0.30487E+00 SP= 0.00E+00 SK= 0.00E+00
       N       E                     dE             d eps       ncg     rms          rms(c)
RMM:   1    -0.413163268826E+03    0.78594E-02   -0.11132E+01  4301   0.775E-01    0.890E-01
RMM:   2    -0.413173981990E+03   -0.10713E-01   -0.13808E-01  4268   0.100E-01    0.645E-01
RMM:   3    -0.413172592114E+03    0.13899E-02   -0.70753E-03  4949   0.417E-02    0.168E-01
RMM:   4    -0.413209291896E+03   -0.36700E-01   -0.38229E-02  5143   0.162E-01    0.796E-01
RMM:   5    -0.413171889019E+03    0.37403E-01   -0.18400E-02  4799   0.133E-01    0.411E-02
RMM:   6    -0.413172097433E+03   -0.20841E-03   -0.28938E-03  5801   0.516E-02    0.219E-02
RMM:   7    -0.413172111282E+03   -0.13849E-04   -0.33703E-04  5884   0.158E-02    0.155E-02
RMM:   8    -0.413172110846E+03    0.43617E-06   -0.51834E-05  4975   0.674E-03    0.918E-03
RMM:   9    -0.413172107260E+03    0.35859E-05   -0.10807E-05  3536   0.364E-03    0.593E-03
RMM:  10    -0.413172106267E+03    0.99358E-06   -0.22287E-06  2568   0.215E-03
   21 T=    62. E= -.41286638E+03 F= -.41317211E+03 E0= -.41315012E+03  EK= 0.30573E+00 SP= 0.00E+00 SK= 0.00E+00
       N       E                     dE             d eps       ncg     rms          rms(c)
RMM:   1    -0.413164663893E+03    0.74434E-02   -0.11203E+01  4302   0.776E-01    0.912E-01
RMM:   2    -0.413174742108E+03   -0.10078E-01   -0.13680E-01  4325   0.100E-01    0.645E-01
RMM:   3    -0.413177155337E+03   -0.24132E-02   -0.10240E-02  5115   0.689E-02    0.305E-01
RMM:   4    -0.413204473928E+03   -0.27319E-01   -0.43480E-02  5102   0.175E-01    0.733E-01
RMM:   5    -0.413173172867E+03    0.31301E-01   -0.13158E-02  4711   0.121E-01    0.508E-02
RMM:   6    -0.413173255644E+03   -0.82778E-04   -0.22447E-03  5626   0.458E-02    0.198E-02
RMM:   7    -0.413173270282E+03   -0.14637E-04   -0.29069E-04  5998   0.147E-02    0.138E-02
RMM:   8    -0.413173267382E+03    0.29002E-05   -0.44276E-05  5067   0.659E-03    0.703E-03
RMM:   9    -0.413173260146E+03    0.72355E-05   -0.82739E-06  3131   0.337E-03    0.310E-03
RMM:  10    -0.413173257502E+03    0.26440E-05   -0.18405E-06  2544   0.195E-03    0.193E-03
RMM:  11    -0.413173253462E+03    0.40405E-05   -0.10074E-06  2511   0.154E-03    0.110E-03
RMM:  12    -0.413173250538E+03    0.29232E-05   -0.49733E-07  2206   0.114E-03    0.469E-04
RMM:  13    -0.413173248292E+03    0.22466E-05   -0.27638E-07  1801   0.876E-04    0.216E-04
RMM:  14    -0.413173246163E+03    0.21285E-05   -0.18937E-07  1489   0.754E-04    0.128E-04
RMM:  15    -0.413173243015E+03    0.31481E-05   -0.18979E-07  1573   0.742E-04    0.132E-04
RMM:  16    -0.413173241507E+03    0.15086E-05   -0.10517E-07  1232   0.625E-04    0.104E-04
RMM:  17    -0.413173239330E+03    0.21771E-05   -0.88571E-08  1186   0.610E-04    0.429E-05
RMM:  18    -0.413173237854E+03    0.14758E-05   -0.58265E-08  1012   0.564E-04    0.365E-05
RMM:  19    -0.413173237308E+03    0.54543E-06   -0.30034E-08   817   0.528E-04
   22 T=    62. E= -.41286655E+03 F= -.41317324E+03 E0= -.41315129E+03  EK= 0.30668E+00 SP= 0.00E+00 SK= 0.00E+00
       N       E                     dE             d eps       ncg     rms          rms(c)
RMM:   1    -0.413165828258E+03    0.74096E-02   -0.11189E+01  4297   0.794E-01    0.914E-01
RMM:   2    -0.413175205662E+03   -0.93774E-02   -0.13562E-01  4272   0.106E-01    0.637E-01
RMM:   3    -0.413174386052E+03    0.81961E-03   -0.74940E-03  4906   0.452E-02    0.178E-01
RMM:   4    -0.413211872007E+03   -0.37486E-01   -0.39004E-02  5147   0.164E-01    0.804E-01
RMM:   5    -0.413173688355E+03    0.38184E-01   -0.18692E-02  4795   0.134E-01    0.432E-02
RMM:   6    -0.413173893163E+03   -0.20481E-03   -0.29966E-03  5799   0.522E-02    0.240E-02
RMM:   7    -0.413173900704E+03   -0.75418E-05   -0.34662E-04  5845   0.161E-02    0.166E-02
RMM:   8    -0.413173895409E+03    0.52954E-05   -0.53896E-05  5037   0.697E-03    0.965E-03
RMM:   9    -0.413173887045E+03    0.83636E-05   -0.11122E-05  3597   0.372E-03    0.621E-03
RMM:  10    -0.413173881292E+03    0.57530E-05   -0.21956E-06  2569   0.218E-03    0.369E-03
RMM:  11    -0.413173874954E+03    0.63379E-05   -0.17596E-06  2541   0.205E-03    0.170E-03
RMM:  12    -0.413173869981E+03    0.49732E-05   -0.87906E-07  2471   0.157E-03    0.538E-04
RMM:  13    -0.413173869024E+03    0.95746E-06   -0.34595E-07  2156   0.103E-03
   23 T=    63. E= -.41286633E+03 F= -.41317387E+03 E0= -.41315197E+03  EK= 0.30754E+00 SP= 0.00E+00 SK= 0.00E+00
       N       E                     dE             d eps       ncg     rms          rms(c)
RMM:   1    -0.413168134114E+03    0.57359E-02   -0.11195E+01  4296   0.797E-01    0.893E-01
RMM:   2    -0.413177380816E+03   -0.92467E-02   -0.13910E-01  4268   0.106E-01    0.645E-01
RMM:   3    -0.413175784002E+03    0.15968E-02   -0.70562E-03  4870   0.429E-02    0.167E-01
RMM:   4    -0.413209254243E+03   -0.33470E-01   -0.34560E-02  5154   0.154E-01    0.760E-01
RMM:   5    -0.413175226165E+03    0.34028E-01   -0.16762E-02  4793   0.127E-01    0.397E-02
RMM:   6    -0.413175416866E+03   -0.19070E-03   -0.27185E-03  5802   0.492E-02    0.218E-02
RMM:   7    -0.413175427729E+03   -0.10862E-04   -0.30214E-04  5879   0.151E-02    0.148E-02
RMM:   8    -0.413175426030E+03    0.16983E-05   -0.51127E-05  4962   0.670E-03    0.929E-03
RMM:   9    -0.413175420427E+03    0.56034E-05   -0.11096E-05  3685   0.373E-03    0.611E-03
RMM:  10    -0.413175418038E+03    0.23887E-05   -0.20898E-06  2571   0.216E-03    0.371E-03
RMM:  11    -0.413175415126E+03    0.29118E-05   -0.19551E-06  2563   0.212E-03    0.174E-03
RMM:  12    -0.413175412713E+03    0.24132E-05   -0.86479E-07  2475   0.156E-03    0.557E-04
RMM:  13    -0.413175412203E+03    0.51028E-06   -0.32319E-07  2123   0.989E-04
   24 T=    63. E= -.41286660E+03 F= -.41317541E+03 E0= -.41315356E+03  EK= 0.30881E+00 SP= 0.00E+00 SK= 0.00E+00
       N       E                     dE             d eps       ncg     rms          rms(c)
RMM:   1    -0.413167727648E+03    0.76851E-02   -0.11284E+01  4299   0.797E-01    0.909E-01
RMM:   2    -0.413178320667E+03   -0.10593E-01   -0.13856E-01  4276   0.106E-01    0.650E-01
RMM:   3    -0.413176836262E+03    0.14844E-02   -0.72295E-03  4850   0.435E-02    0.167E-01
RMM:   4    -0.413209083875E+03   -0.32248E-01   -0.33112E-02  5149   0.151E-01    0.747E-01
RMM:   5    -0.413176253050E+03    0.32831E-01   -0.16149E-02  4800   0.125E-01    0.392E-02
RMM:   6    -0.413176434314E+03   -0.18126E-03   -0.25906E-03  5817   0.482E-02    0.221E-02
RMM:   7    -0.413176443035E+03   -0.87210E-05   -0.28744E-04  5859   0.148E-02    0.147E-02
RMM:   8    -0.413176440383E+03    0.26518E-05   -0.50296E-05  4958   0.668E-03    0.924E-03
RMM:   9    -0.413176433807E+03    0.65764E-05   -0.11041E-05  3696   0.374E-03    0.608E-03
RMM:  10    -0.413176430283E+03    0.35242E-05   -0.19608E-06  2555   0.214E-03    0.371E-03
RMM:  11    -0.413176425812E+03    0.44706E-05   -0.19691E-06  2565   0.214E-03    0.171E-03
RMM:  12    -0.413176422367E+03    0.34453E-05   -0.83714E-07  2473   0.155E-03    0.558E-04
RMM:  13    -0.413176421704E+03    0.66260E-06   -0.31629E-07  2103   0.979E-04
   25 T=    63. E= -.41286637E+03 F= -.41317642E+03 E0= -.41315462E+03  EK= 0.31005E+00 SP= 0.00E+00 SK= 0.00E+00
       N       E                     dE             d eps       ncg     rms          rms(c)
RMM:   1    -0.413169461527E+03    0.69608E-02   -0.11310E+01  4299   0.809E-01    0.924E-01
RMM:   2    -0.413178862469E+03   -0.94009E-02   -0.13746E-01  4272   0.105E-01    0.642E-01
RMM:   3    -0.413177902902E+03    0.95957E-03   -0.74457E-03  4800   0.423E-02    0.168E-01
RMM:   4    -0.413205103295E+03   -0.27200E-01   -0.27590E-02  5153   0.139E-01    0.687E-01
RMM:   5    -0.413177531905E+03    0.27571E-01   -0.13690E-02  4806   0.114E-01    0.379E-02
RMM:   6    -0.413177674176E+03   -0.14227E-03   -0.21513E-03  5825   0.440E-02    0.218E-02
RMM:   7    -0.413177675604E+03   -0.14280E-05   -0.22761E-04  5790   0.135E-02    0.129E-02
RMM:   8    -0.413177669983E+03    0.56210E-05   -0.43282E-05  4884   0.623E-03    0.873E-03
RMM:   9    -0.413177661621E+03    0.83623E-05   -0.10616E-05  3743   0.366E-03    0.594E-03
RMM:  10    -0.413177655855E+03    0.57666E-05   -0.17074E-06  2543   0.210E-03    0.370E-03
RMM:  11    -0.413177647488E+03    0.83669E-05   -0.19443E-06  2563   0.214E-03    0.170E-03
RMM:  12    -0.413177640471E+03    0.70167E-05   -0.79519E-07  2461   0.155E-03    0.588E-04
RMM:  13    -0.413177639438E+03    0.10332E-05   -0.28887E-07  2084   0.951E-04    0.421E-04
RMM:  14    -0.413177637956E+03    0.14819E-05   -0.13411E-07  1444   0.710E-04    0.249E-04
RMM:  15    -0.413177632662E+03    0.52943E-05   -0.16858E-07  1844   0.781E-04    0.334E-04
RMM:  16    -0.413177632089E+03    0.57233E-06   -0.51872E-08   945   0.569E-04
   26 T=    63. E= -.41286625E+03 F= -.41317763E+03 E0= -.41315588E+03  EK= 0.31138E+00 SP= 0.00E+00 SK= 0.00E+00
       N       E                     dE             d eps       ncg     rms          rms(c)
RMM:   1    -0.413170559688E+03    0.70730E-02   -0.11269E+01  4294   0.804E-01    0.899E-01
RMM:   2    -0.413181034863E+03   -0.10475E-01   -0.13912E-01  4274   0.104E-01    0.645E-01
RMM:   3    -0.413179846991E+03    0.11879E-02   -0.71480E-03  4801   0.437E-02    0.167E-01
RMM:   4    -0.413209830442E+03   -0.29983E-01   -0.30506E-02  5156   0.145E-01    0.720E-01
RMM:   5    -0.413179405217E+03    0.30425E-01   -0.15173E-02  4806   0.120E-01    0.381E-02
RMM:   6    -0.413179564982E+03   -0.15976E-03   -0.23738E-03  5820   0.464E-02    0.219E-02
RMM:   7    -0.413179571719E+03   -0.67369E-05   -0.27130E-04  5843   0.144E-02    0.144E-02
RMM:   8    -0.413179568340E+03    0.33781E-05   -0.48196E-05  4936   0.663E-03    0.890E-03
RMM:   9    -0.413179561825E+03    0.65150E-05   -0.10672E-05  3671   0.372E-03    0.585E-03
RMM:  10    -0.413179558298E+03    0.35278E-05   -0.18244E-06  2544   0.210E-03    0.360E-03
RMM:  11    -0.413179553940E+03    0.43576E-05   -0.17956E-06  2546   0.206E-03    0.165E-03
RMM:  12    -0.413179550393E+03    0.35475E-05   -0.82170E-07  2469   0.153E-03    0.560E-04
RMM:  13    -0.413179549785E+03    0.60788E-06   -0.30192E-07  2061   0.960E-04
   27 T=    64. E= -.41286659E+03 F= -.41317955E+03 E0= -.41315785E+03  EK= 0.31296E+00 SP= 0.00E+00 SK= 0.00E+00
       N       E                     dE             d eps       ncg     rms          rms(c)
RMM:   1    -0.413171855754E+03    0.76946E-02   -0.11393E+01  4295   0.830E-01    0.908E-01
RMM:   2    -0.413182299383E+03   -0.10444E-01   -0.14224E-01  4270   0.109E-01    0.656E-01
RMM:   3    -0.413180839156E+03    0.14602E-02   -0.72994E-03  4688   0.443E-02    0.160E-01
RMM:   4    -0.413201807426E+03   -0.20968E-01   -0.21302E-02  5150   0.123E-01    0.606E-01
RMM:   5    -0.413180475501E+03    0.21332E-01   -0.10641E-02  4809   0.100E-01    0.330E-02
RMM:   6    -0.413180576347E+03   -0.10085E-03   -0.16536E-03  5829   0.383E-02    0.193E-02
RMM:   7    -0.413180578702E+03   -0.23547E-05   -0.16469E-04  5604   0.116E-02    0.102E-02
RMM:   8    -0.413180573399E+03    0.53028E-05   -0.24170E-05  4194   0.476E-03    0.619E-03
RMM:   9    -0.413180569671E+03    0.37274E-05   -0.35092E-06  2663   0.224E-03    0.382E-03
RMM:  10    -0.413180565856E+03    0.38154E-05   -0.16514E-06  2529   0.191E-03    0.193E-03
RMM:  11    -0.413180562161E+03    0.36945E-05   -0.10123E-06  2476   0.160E-03    0.699E-04
RMM:  12    -0.413180560885E+03    0.12768E-05   -0.39137E-07  2174   0.106E-03    0.497E-04
RMM:  13    -0.413180560424E+03    0.46028E-06   -0.18745E-07  1519   0.771E-04
   28 T=    64. E= -.41286620E+03 F= -.41318056E+03 E0= -.41315891E+03  EK= 0.31436E+00 SP= 0.00E+00 SK= 0.00E+00
       N       E                     dE             d eps       ncg     rms          rms(c)
RMM:   1    -0.413182656125E+03   -0.20952E-02   -0.11537E+01  4293   0.872E-01    0.932E-01
RMM:   2    -0.413183954020E+03   -0.12979E-02   -0.14382E-01  4272   0.111E-01    0.649E-01
RMM:   3    -0.413182773394E+03    0.11806E-02   -0.76369E-03  4474   0.435E-02    0.166E-01
RMM:   4    -0.413192975318E+03   -0.10202E-01   -0.10477E-02  5165   0.865E-02    0.423E-01
RMM:   5    -0.413182759496E+03    0.10216E-01   -0.51049E-03  4829   0.693E-02    0.299E-02
RMM:   6    -0.413182792813E+03   -0.33318E-04   -0.85121E-04  5853   0.269E-02    0.194E-02
RMM:   7    -0.413182789045E+03    0.37682E-05   -0.13551E-04  5519   0.112E-02    0.118E-02
RMM:   8    -0.413182775949E+03    0.13096E-04   -0.19211E-05  4229   0.504E-03    0.506E-03
RMM:   9    -0.413182770901E+03    0.50479E-05   -0.38113E-06  2838   0.257E-03    0.392E-03
RMM:  10    -0.413182765349E+03    0.55523E-05   -0.82711E-07  2491   0.160E-03    0.241E-03
RMM:  11    -0.413182757497E+03    0.78520E-05   -0.72253E-07  2468   0.143E-03    0.108E-03
RMM:  12    -0.413182751105E+03    0.63912E-05   -0.39283E-07  2206   0.105E-03    0.357E-04
RMM:  13    -0.413182749610E+03    0.14956E-05   -0.15969E-07  1469   0.734E-04    0.209E-04
RMM:  14    -0.413182747264E+03    0.23459E-05   -0.97103E-08  1165   0.657E-04    0.136E-04
RMM:  15    -0.413182741739E+03    0.55252E-05   -0.11171E-07  1425   0.698E-04    0.149E-04
RMM:  16    -0.413182741323E+03    0.41525E-06   -0.42838E-08   880   0.575E-04
   29 T=    64. E= -.41286658E+03 F= -.41318274E+03 E0= -.41316114E+03  EK= 0.31616E+00 SP= 0.00E+00 SK= 0.00E+00
       N       E                     dE             d eps       ncg     rms          rms(c)
RMM:   1    -0.413175519345E+03    0.72224E-02   -0.11399E+01  4290   0.831E-01    0.909E-01
RMM:   2    -0.413186214774E+03   -0.10695E-01   -0.14196E-01  4268   0.111E-01    0.648E-01
RMM:   3    -0.413184600853E+03    0.16139E-02   -0.72836E-03  4448   0.448E-02    0.159E-01
RMM:   4    -0.413192538333E+03   -0.79375E-02   -0.84191E-03  5158   0.794E-02    0.375E-01
RMM:   5    -0.413184531272E+03    0.80071E-02   -0.39861E-03  4826   0.614E-02    0.275E-02
RMM:   6    -0.413184549159E+03   -0.17887E-04   -0.62970E-04  5820   0.239E-02    0.187E-02
RMM:   7    -0.413184545481E+03    0.36778E-05   -0.11674E-04  5425   0.106E-02    0.104E-02
RMM:   8    -0.413184535510E+03    0.99714E-05   -0.14587E-05  3954   0.458E-03    0.431E-03
RMM:   9    -0.413184532495E+03    0.30146E-05   -0.28299E-06  2730   0.230E-03    0.326E-03
RMM:  10    -0.413184528757E+03    0.37379E-05   -0.76335E-07  2478   0.149E-03    0.196E-03
RMM:  11    -0.413184523738E+03    0.50199E-05   -0.60899E-07  2423   0.128E-03    0.870E-04
RMM:  12    -0.413184520132E+03    0.36056E-05   -0.31816E-07  2017   0.945E-04    0.347E-04
RMM:  13    -0.413184518790E+03    0.13420E-05   -0.13914E-07  1324   0.698E-04    0.183E-04
RMM:  14    -0.413184516588E+03    0.22023E-05   -0.97586E-08  1149   0.657E-04    0.960E-05
RMM:  15    -0.413184513345E+03    0.32431E-05   -0.90342E-08  1250   0.665E-04    0.107E-04
RMM:  16    -0.413184512402E+03    0.94290E-06   -0.46948E-08   966   0.589E-04
   30 T=    65. E= -.41286650E+03 F= -.41318451E+03 E0= -.41316296E+03  EK= 0.31801E+00 SP= 0.00E+00 SK= 0.00E+00
       N       E                     dE             d eps       ncg     rms          rms(c)
RMM:   1    -0.413178200147E+03    0.63132E-02   -0.11543E+01  4292   0.878E-01    0.911E-01
RMM:   2    -0.413188666317E+03   -0.10466E-01   -0.14773E-01  4273   0.123E-01    0.662E-01
RMM:   3    -0.413186198954E+03    0.24674E-02   -0.72732E-03  4298   0.440E-02    0.155E-01
RMM:   4    -0.413187818563E+03   -0.16196E-02   -0.25082E-03  5100   0.419E-02    0.170E-01
RMM:   5    -0.413186195705E+03    0.16229E-02   -0.79350E-04  4794   0.282E-02    0.241E-02
RMM:   6    -0.413186191239E+03    0.44664E-05   -0.17574E-04  5640   0.136E-02    0.181E-02
RMM:   7    -0.413186184746E+03    0.64922E-05   -0.72951E-05  4901   0.826E-03    0.682E-03
RMM:   8    -0.413186181372E+03    0.33741E-05   -0.55234E-06  3073   0.320E-03    0.365E-03
RMM:   9    -0.413186180487E+03    0.88497E-06   -0.77216E-07  2472   0.160E-03
   31 T=    65. E= -.41286622E+03 F= -.41318618E+03 E0= -.41316468E+03  EK= 0.31996E+00 SP= 0.00E+00 SK= 0.00E+00
       N       E                     dE             d eps       ncg     rms          rms(c)
RMM:   1    -0.413189292975E+03   -0.31116E-02   -0.11713E+01  4290   0.925E-01    0.938E-01
RMM:   2    -0.413190386536E+03   -0.10936E-02   -0.14946E-01  4283   0.125E-01    0.657E-01
RMM:   3    -0.413188830010E+03    0.15565E-02   -0.77305E-03  4381   0.485E-02    0.167E-01
RMM:   4    -0.413191644674E+03   -0.28147E-02   -0.35504E-03  5123   0.545E-02    0.222E-01
RMM:   5    -0.413188909726E+03    0.27349E-02   -0.13381E-03  4803   0.369E-02    0.285E-02
RMM:   6    -0.413188889731E+03    0.19995E-04   -0.27359E-04  5623   0.173E-02    0.208E-02
RMM:   7    -0.413188875054E+03    0.14677E-04   -0.86801E-05  5056   0.925E-03    0.785E-03
RMM:   8    -0.413188867903E+03    0.71510E-05   -0.11724E-05  3892   0.421E-03    0.419E-03
RMM:   9    -0.413188865169E+03    0.27345E-05   -0.11320E-06  2518   0.179E-03    0.227E-03
RMM:  10    -0.413188856884E+03    0.82849E-05   -0.74275E-07  2433   0.137E-03    0.112E-03
RMM:  11    -0.413188850523E+03    0.63610E-05   -0.36162E-07  2073   0.982E-04    0.535E-04
RMM:  12    -0.413188845994E+03    0.45290E-05   -0.19314E-07  1445   0.779E-04    0.248E-04
RMM:  13    -0.413188841960E+03    0.40336E-05   -0.12460E-07  1146   0.687E-04    0.149E-04
RMM:  14    -0.413188836781E+03    0.51792E-05   -0.11004E-07  1247   0.679E-04    0.116E-04
RMM:  15    -0.413188831043E+03    0.57378E-05   -0.10644E-07  1365   0.666E-04    0.849E-05
RMM:  16    -0.413188829647E+03    0.13959E-05   -0.45948E-08   804   0.534E-04    0.628E-05
RMM:  17    -0.413188826814E+03    0.28337E-05   -0.48285E-08   896   0.553E-04    0.242E-05
RMM:  18    -0.413188826230E+03    0.58350E-06   -0.22992E-08   622   0.499E-04
   32 T=    66. E= -.41286653E+03 F= -.41318883E+03 E0= -.41316738E+03  EK= 0.32229E+00 SP= 0.00E+00 SK= 0.00E+00
       N       E                     dE             d eps       ncg     rms          rms(c)
RMM:   1    -0.413186690284E+03    0.21365E-02   -0.11640E+01  4289   0.924E-01    0.923E-01
RMM:   2    -0.413192581150E+03   -0.58909E-02   -0.15295E-01  4273   0.132E-01    0.654E-01
RMM:   3    -0.413190754229E+03    0.18269E-02   -0.72765E-03  4378   0.430E-02    0.172E-01
RMM:   4    -0.413194924016E+03   -0.41698E-02   -0.48796E-03  5147   0.608E-02    0.273E-01
RMM:   5    -0.413190766117E+03    0.41579E-02   -0.20699E-03  4812   0.451E-02    0.276E-02
RMM:   6    -0.413190751282E+03    0.14836E-04   -0.36869E-04  5726   0.196E-02    0.199E-02
RMM:   7    -0.413190741463E+03    0.98184E-05   -0.97871E-05  5222   0.967E-03    0.832E-03
RMM:   8    -0.413190733702E+03    0.77613E-05   -0.11636E-05  3745   0.415E-03    0.407E-03
RMM:   9    -0.413190731098E+03    0.26036E-05   -0.14560E-06  2568   0.195E-03    0.250E-03
RMM:  10    -0.413190725350E+03    0.57481E-05   -0.68376E-07  2433   0.134E-03    0.131E-03
RMM:  11    -0.413190719340E+03    0.60101E-05   -0.42980E-07  2227   0.106E-03    0.572E-04
RMM:  12    -0.413190715054E+03    0.42856E-05   -0.22292E-07  1683   0.822E-04    0.250E-04
RMM:  13    -0.413190712642E+03    0.24127E-05   -0.12093E-07  1161   0.678E-04    0.138E-04
RMM:  14    -0.413190709877E+03    0.27649E-05   -0.87470E-08  1101   0.647E-04    0.922E-05
RMM:  15    -0.413190705142E+03    0.47350E-05   -0.92086E-08  1314   0.664E-04    0.668E-05
RMM:  16    -0.413190703785E+03    0.13570E-05   -0.47668E-08   955   0.572E-04    0.578E-05
RMM:  17    -0.413190701308E+03    0.24765E-05   -0.46993E-08  1068   0.575E-04    0.288E-05
RMM:  18    -0.413190700360E+03    0.94887E-06   -0.24424E-08   765   0.521E-04
   33 T=    66. E= -.41286626E+03 F= -.41319070E+03 E0= -.41316930E+03  EK= 0.32444E+00 SP= 0.00E+00 SK= 0.00E+00
       N       E                     dE             d eps       ncg     rms          rms(c)
RMM:   1    -0.413186014429E+03    0.46869E-02   -0.11724E+01  4295   0.934E-01    0.916E-01
RMM:   2    -0.413195120219E+03   -0.91058E-02   -0.15344E-01  4269   0.133E-01    0.667E-01
RMM:   3    -0.413193354228E+03    0.17660E-02   -0.73798E-03  4400   0.520E-02    0.163E-01
RMM:   4    -0.413199532385E+03   -0.61782E-02   -0.67386E-03  5157   0.718E-02    0.332E-01
RMM:   5    -0.413193352863E+03    0.61795E-02   -0.30410E-03  4809   0.546E-02    0.279E-02
RMM:   6    -0.413193337931E+03    0.14932E-04   -0.50237E-04  5765   0.226E-02    0.195E-02
RMM:   7    -0.413193336904E+03    0.10269E-05   -0.10971E-04  5310   0.102E-02    0.917E-03
RMM:   8    -0.413193330357E+03    0.65465E-05   -0.14811E-05  4010   0.453E-03    0.430E-03
RMM:   9    -0.413193328868E+03    0.14897E-05   -0.22281E-06  2674   0.217E-03    0.276E-03
RMM:  10    -0.413193325975E+03    0.28928E-05   -0.69803E-07  2437   0.139E-03    0.158E-03
RMM:  11    -0.413193322060E+03    0.39146E-05   -0.56066E-07  2348   0.117E-03    0.697E-04
RMM:  12    -0.413193319421E+03    0.26394E-05   -0.27639E-07  1766   0.863E-04    0.292E-04
RMM:  13    -0.413193318069E+03    0.13515E-05   -0.13731E-07  1198   0.688E-04    0.154E-04
RMM:  14    -0.413193316413E+03    0.16566E-05   -0.97549E-08  1082   0.654E-04    0.885E-05
RMM:  15    -0.413193313642E+03    0.27712E-05   -0.96428E-08  1205   0.666E-04    0.822E-05
RMM:  16    -0.413193312906E+03    0.73535E-06   -0.48484E-08   924   0.592E-04
   34 T=    67. E= -.41286639E+03 F= -.41319331E+03 E0= -.41317196E+03  EK= 0.32693E+00 SP= 0.00E+00 SK= 0.00E+00
       N       E                     dE             d eps       ncg     rms          rms(c)
RMM:   1    -0.413187656787E+03    0.56569E-02   -0.11822E+01  4301   0.921E-01    0.942E-01
RMM:   2    -0.413197961569E+03   -0.10305E-01   -0.15223E-01  4264   0.133E-01    0.667E-01
RMM:   3    -0.413196181206E+03    0.17804E-02   -0.75916E-03  4377   0.464E-02    0.168E-01
RMM:   4    -0.413199029156E+03   -0.28479E-02   -0.36968E-03  5160   0.518E-02    0.228E-01
RMM:   5    -0.413196149187E+03    0.28800E-02   -0.14318E-03  4810   0.378E-02    0.280E-02
RMM:   6    -0.413196135808E+03    0.13379E-04   -0.28900E-04  5687   0.173E-02    0.206E-02
RMM:   7    -0.413196123599E+03    0.12208E-04   -0.94159E-05  5062   0.939E-03    0.770E-03
RMM:   8    -0.413196117581E+03    0.60190E-05   -0.85291E-06  3394   0.360E-03    0.396E-03
RMM:   9    -0.413196115124E+03    0.24565E-05   -0.10959E-06  2510   0.176E-03    0.236E-03
RMM:  10    -0.413196107851E+03    0.72729E-05   -0.71789E-07  2428   0.136E-03    0.112E-03
RMM:  11    -0.413196102899E+03    0.49524E-05   -0.35269E-07  2078   0.967E-04    0.552E-04
RMM:  12    -0.413196098159E+03    0.47395E-05   -0.20231E-07  1514   0.790E-04    0.202E-04
RMM:  13    -0.413196095199E+03    0.29601E-05   -0.11797E-07  1174   0.682E-04    0.129E-04
RMM:  14    -0.413196091221E+03    0.39778E-05   -0.92301E-08  1223   0.661E-04    0.103E-04
RMM:  15    -0.413196085848E+03    0.53732E-05   -0.92227E-08  1371   0.660E-04    0.684E-05
RMM:  16    -0.413196084305E+03    0.15427E-05   -0.44215E-08   928   0.556E-04    0.504E-05
RMM:  17    -0.413196081880E+03    0.24255E-05   -0.38669E-08   963   0.558E-04    0.231E-05
RMM:  18    -0.413196081167E+03    0.71336E-06   -0.20737E-08   734   0.516E-04
   35 T=    67. E= -.41286659E+03 F= -.41319608E+03 E0= -.41317477E+03  EK= 0.32949E+00 SP= 0.00E+00 SK= 0.00E+00
       N       E                     dE             d eps       ncg     rms          rms(c)
RMM:   1    -0.413195528900E+03    0.55298E-03   -0.11887E+01  4298   0.982E-01    0.941E-01
RMM:   2    -0.413199796623E+03   -0.42677E-02   -0.15486E-01  4252   0.127E-01    0.661E-01
RMM:   3    -0.413198390507E+03    0.14061E-02   -0.78137E-03  4749   0.477E-02    0.185E-01
RMM:   4    -0.413226065100E+03   -0.27675E-01   -0.27882E-02  5167   0.140E-01    0.694E-01
RMM:   5    -0.413198147001E+03    0.27918E-01   -0.14091E-02  4804   0.116E-01    0.400E-02
RMM:   6    -0.413198175247E+03   -0.28246E-04   -0.22729E-03  5851   0.448E-02    0.235E-02
RMM:   7    -0.413198185152E+03   -0.99052E-05   -0.26488E-04  5790   0.144E-02    0.145E-02
RMM:   8    -0.413198175348E+03    0.98049E-05   -0.46864E-05  4943   0.685E-03    0.870E-03
RMM:   9    -0.413198170132E+03    0.52151E-05   -0.13200E-05  4047   0.418E-03    0.571E-03
RMM:  10    -0.413198163119E+03    0.70131E-05   -0.20176E-06  2566   0.226E-03    0.334E-03
RMM:  11    -0.413198157229E+03    0.58907E-05   -0.12795E-06  2506   0.179E-03    0.187E-03
RMM:  12    -0.413198147453E+03    0.97752E-05   -0.10052E-06  2476   0.170E-03    0.735E-04
RMM:  13    -0.413198144335E+03    0.31186E-05   -0.36758E-07  2235   0.109E-03    0.505E-04
RMM:  14    -0.413198143499E+03    0.83624E-06   -0.15837E-07  1564   0.748E-04
   36 T=    68. E= -.41286632E+03 F= -.41319814E+03 E0= -.41317688E+03  EK= 0.33183E+00 SP= 0.00E+00 SK= 0.00E+00
       N       E                     dE             d eps       ncg     rms          rms(c)
RMM:   1    -0.413196107666E+03    0.20367E-02   -0.11929E+01  4305   0.997E-01    0.924E-01
RMM:   2    -0.413203633870E+03   -0.75262E-02   -0.15940E-01  4253   0.135E-01    0.672E-01
RMM:   3    -0.413201470293E+03    0.21636E-02   -0.75469E-03  4701   0.514E-02    0.181E-01
RMM:   4    -0.413228283520E+03   -0.26813E-01   -0.27127E-02  5164   0.138E-01    0.684E-01
RMM:   5    -0.413201176983E+03    0.27107E-01   -0.13666E-02  4804   0.114E-01    0.391E-02
RMM:   6    -0.413201203067E+03   -0.26084E-04   -0.21896E-03  5855   0.441E-02    0.228E-02
RMM:   7    -0.413201216082E+03   -0.13016E-04   -0.26578E-04  5811   0.143E-02    0.145E-02
RMM:   8    -0.413201207713E+03    0.83695E-05   -0.47183E-05  4990   0.693E-03    0.834E-03
RMM:   9    -0.413201204175E+03    0.35383E-05   -0.11759E-05  3874   0.403E-03    0.498E-03
RMM:  10    -0.413201199619E+03    0.45558E-05   -0.20307E-06  2571   0.215E-03    0.301E-03
RMM:  11    -0.413201195124E+03    0.44947E-05   -0.12263E-06  2505   0.173E-03    0.156E-03
RMM:  12    -0.413201189039E+03    0.60848E-05   -0.84166E-07  2444   0.151E-03    0.576E-04
RMM:  13    -0.413201187122E+03    0.19173E-05   -0.32585E-07  2103   0.100E-03    0.402E-04
RMM:  14    -0.413201186296E+03    0.82650E-06   -0.15215E-07  1424   0.727E-04
   37 T=    68. E= -.41286661E+03 F= -.41320119E+03 E0= -.41317996E+03  EK= 0.33457E+00 SP= 0.00E+00 SK= 0.00E+00
       N       E                     dE             d eps       ncg     rms          rms(c)
RMM:   1    -0.413195907868E+03    0.52793E-02   -0.12039E+01  4307   0.101E+00    0.945E-01
RMM:   2    -0.413206241402E+03   -0.10334E-01   -0.15836E-01  4250   0.127E-01    0.676E-01
RMM:   3    -0.413204039852E+03    0.22016E-02   -0.79501E-03  4771   0.506E-02    0.187E-01
RMM:   4    -0.413237207463E+03   -0.33168E-01   -0.33656E-02  5154   0.153E-01    0.759E-01
RMM:   5    -0.413203610048E+03    0.33597E-01   -0.16981E-02  4802   0.127E-01    0.426E-02
RMM:   6    -0.413203663181E+03   -0.53133E-04   -0.26976E-03  5837   0.486E-02    0.242E-02
RMM:   7    -0.413203677483E+03   -0.14301E-04   -0.31523E-04  5836   0.154E-02    0.154E-02
RMM:   8    -0.413203668597E+03    0.88851E-05   -0.53611E-05  5041   0.728E-03    0.930E-03
RMM:   9    -0.413203664001E+03    0.45961E-05   -0.14944E-05  4144   0.437E-03    0.560E-03
RMM:  10    -0.413203657897E+03    0.61044E-05   -0.24565E-06  2610   0.233E-03    0.333E-03
RMM:  11    -0.413203652652E+03    0.52448E-05   -0.13291E-06  2496   0.183E-03    0.182E-03
RMM:  12    -0.413203644647E+03    0.80056E-05   -0.98035E-07  2473   0.166E-03    0.660E-04
RMM:  13    -0.413203641742E+03    0.29042E-05   -0.38098E-07  2239   0.110E-03    0.475E-04
RMM:  14    -0.413203641007E+03    0.73576E-06   -0.17315E-07  1617   0.764E-04
   38 T=    69. E= -.41286655E+03 F= -.41320364E+03 E0= -.41318246E+03  EK= 0.33709E+00 SP= 0.00E+00 SK= 0.00E+00
       N       E                     dE             d eps       ncg     rms          rms(c)
RMM:   1    -0.413204608339E+03   -0.96660E-03   -0.12139E+01  4305   0.109E+00    0.958E-01
RMM:   2    -0.413208011459E+03   -0.34031E-02   -0.16215E-01  4265   0.126E-01    0.670E-01
RMM:   3    -0.413206961549E+03    0.10499E-02   -0.85756E-03  5037   0.542E-02    0.224E-01
RMM:   4    -0.413257828916E+03   -0.50867E-01   -0.55139E-02  5138   0.195E-01    0.936E-01
RMM:   5    -0.413205872998E+03    0.51956E-01   -0.25701E-02  4786   0.158E-01    0.525E-02
RMM:   6    -0.413205999953E+03   -0.12696E-03   -0.40633E-03  5821   0.603E-02    0.271E-02
RMM:   7    -0.413206018737E+03   -0.18784E-04   -0.43446E-04  5820   0.178E-02    0.166E-02
RMM:   8    -0.413206014510E+03    0.42277E-05   -0.64466E-05  5056   0.732E-03    0.101E-02
RMM:   9    -0.413206005027E+03    0.94823E-05   -0.22463E-05  4516   0.493E-03    0.645E-03
RMM:  10    -0.413205998078E+03    0.69490E-05   -0.46928E-06  2850   0.297E-03    0.351E-03
RMM:  11    -0.413205991538E+03    0.65400E-05   -0.17359E-06  2525   0.211E-03    0.208E-03
RMM:  12    -0.413205981419E+03    0.10119E-04   -0.97350E-07  2481   0.173E-03    0.644E-04
RMM:  13    -0.413205977296E+03    0.41238E-05   -0.41741E-07  2312   0.116E-03    0.436E-04
RMM:  14    -0.413205974770E+03    0.25257E-05   -0.18918E-07  1795   0.813E-04    0.288E-04
RMM:  15    -0.413205968417E+03    0.63523E-05   -0.12274E-07  1468   0.720E-04    0.184E-04
RMM:  16    -0.413205966806E+03    0.16113E-05   -0.64239E-08  1046   0.611E-04    0.936E-05
RMM:  17    -0.413205963495E+03    0.33108E-05   -0.54577E-08  1083   0.615E-04    0.717E-05
RMM:  18    -0.413205959239E+03    0.42567E-05   -0.58424E-08  1280   0.634E-04    0.501E-05
RMM:  19    -0.413205957965E+03    0.12733E-05   -0.27388E-08   912   0.557E-04    0.389E-05
RMM:  20    -0.413205957435E+03    0.52997E-06   -0.17840E-08   801   0.535E-04
   39 T=    69. E= -.41286638E+03 F= -.41320596E+03 E0= -.41318481E+03  EK= 0.33958E+00 SP= 0.00E+00 SK= 0.00E+00
       N       E                     dE             d eps       ncg     rms          rms(c)
RMM:   1    -0.413206763928E+03   -0.80596E-03   -0.12141E+01  4312   0.112E+00    0.935E-01
RMM:   2    -0.413211557353E+03   -0.47934E-02   -0.16070E-01  4264   0.129E-01    0.676E-01
RMM:   3    -0.413210487234E+03    0.10701E-02   -0.86828E-03  5037   0.580E-02    0.234E-01
RMM:   4    -0.413263278864E+03   -0.52792E-01   -0.59535E-02  5136   0.203E-01    0.956E-01
RMM:   5    -0.413208910557E+03    0.54368E-01   -0.26488E-02  4776   0.161E-01    0.538E-02
RMM:   6    -0.413209044749E+03   -0.13419E-03   -0.42351E-03  5809   0.614E-02    0.269E-02
RMM:   7    -0.413209065297E+03   -0.20549E-04   -0.47370E-04  5912   0.185E-02    0.182E-02
RMM:   8    -0.413209065956E+03   -0.65853E-06   -0.87603E-05  5241   0.862E-03    0.122E-02
RMM:   9    -0.413209055312E+03    0.10644E-04   -0.20594E-05  4420   0.508E-03    0.591E-03
RMM:  10    -0.413209050513E+03    0.47988E-05   -0.44180E-06  2747   0.281E-03    0.334E-03
RMM:  11    -0.413209046696E+03    0.38173E-05   -0.15572E-06  2505   0.201E-03    0.190E-03
RMM:  12    -0.413209041217E+03    0.54782E-05   -0.89725E-07  2472   0.163E-03    0.648E-04
RMM:  13    -0.413209038529E+03    0.26888E-05   -0.41076E-07  2282   0.113E-03    0.366E-04
RMM:  14    -0.413209036636E+03    0.18921E-05   -0.20561E-07  1782   0.815E-04    0.240E-04
RMM:  15    -0.413209032565E+03    0.40709E-05   -0.13566E-07  1372   0.719E-04    0.164E-04
RMM:  16    -0.413209031691E+03    0.87472E-06   -0.74083E-08  1062   0.626E-04
   40 T=    70. E= -.41286678E+03 F= -.41320903E+03 E0= -.41318792E+03  EK= 0.34225E+00 SP= 0.00E+00 SK= 0.00E+00
       N       E                     dE             d eps       ncg     rms          rms(c)
RMM:   1    -0.413225975871E+03   -0.16943E-01   -0.12457E+01  4305   0.127E+00    0.948E-01
RMM:   2    -0.413213339558E+03    0.12636E-01   -0.17547E-01  4270   0.140E-01    0.687E-01
RMM:   3    -0.413212616295E+03    0.72326E-03   -0.89802E-03  5052   0.605E-02    0.259E-01
RMM:   4    -0.413267650849E+03   -0.55035E-01   -0.63529E-02  5131   0.210E-01    0.978E-01
RMM:   5    -0.413210665615E+03    0.56985E-01   -0.27536E-02  4770   0.165E-01    0.563E-02
RMM:   6    -0.413210808211E+03   -0.14260E-03   -0.44492E-03  5805   0.628E-02    0.272E-02
RMM:   7    -0.413210830980E+03   -0.22769E-04   -0.50333E-04  5931   0.190E-02    0.190E-02
RMM:   8    -0.413210831442E+03   -0.46235E-06   -0.93572E-05  5264   0.896E-03    0.124E-02
RMM:   9    -0.413210820269E+03    0.11174E-04   -0.20510E-05  4399   0.517E-03    0.562E-03
RMM:  10    -0.413210815343E+03    0.49259E-05   -0.47912E-06  2800   0.285E-03    0.321E-03
RMM:  11    -0.413210811403E+03    0.39399E-05   -0.15132E-06  2505   0.198E-03    0.180E-03
RMM:  12    -0.413210805987E+03    0.54155E-05   -0.82136E-07  2466   0.156E-03    0.649E-04
RMM:  13    -0.413210803074E+03    0.29137E-05   -0.38992E-07  2246   0.108E-03    0.333E-04
RMM:  14    -0.413210800662E+03    0.24113E-05   -0.20530E-07  1706   0.806E-04    0.216E-04
RMM:  15    -0.413210796728E+03    0.39344E-05   -0.13609E-07  1317   0.710E-04    0.125E-04
RMM:  16    -0.413210795466E+03    0.12623E-05   -0.82349E-08  1125   0.641E-04    0.691E-05
RMM:  17    -0.413210793411E+03    0.20547E-05   -0.65865E-08  1100   0.629E-04    0.571E-05
RMM:  18    -0.413210790610E+03    0.28006E-05   -0.57524E-08  1117   0.626E-04    0.339E-05
RMM:  19    -0.413210789436E+03    0.11746E-05   -0.37612E-08   985   0.589E-04    0.249E-05
RMM:  20    -0.413210788839E+03    0.59719E-06   -0.22025E-08   819   0.558E-04
   41 T=    70. E= -.41286634E+03 F= -.41321079E+03 E0= -.41318971E+03  EK= 0.34445E+00 SP= 0.00E+00 SK= 0.00E+00
       N       E                     dE             d eps       ncg     rms          rms(c)
RMM:   1    -0.413241286443E+03   -0.30497E-01   -0.12638E+01  4311   0.133E+00    0.972E-01
RMM:   2    -0.413215433872E+03    0.25853E-01   -0.18011E-01  4298   0.145E-01    0.681E-01
RMM:   3    -0.413217238987E+03   -0.18051E-02   -0.11150E-02  5117   0.742E-02    0.329E-01
RMM:   4    -0.413252953723E+03   -0.35715E-01   -0.51885E-02  5094   0.191E-01    0.827E-01
RMM:   5    -0.413213404678E+03    0.39549E-01   -0.17828E-02  4735   0.138E-01    0.548E-02
RMM:   6    -0.413213449093E+03   -0.44415E-04   -0.29975E-03  5746   0.521E-02    0.266E-02
RMM:   7    -0.413213458613E+03   -0.95205E-05   -0.37299E-04  5862   0.170E-02    0.189E-02
RMM:   8    -0.413213454410E+03    0.42032E-05   -0.82722E-05  5190   0.879E-03    0.108E-02
RMM:   9    -0.413213440572E+03    0.13838E-04   -0.16980E-05  4171   0.499E-03    0.418E-03
RMM:  10    -0.413213434694E+03    0.58782E-05   -0.35068E-06  2704   0.246E-03    0.250E-03
RMM:  11    -0.413213428031E+03    0.66625E-05   -0.11969E-06  2505   0.176E-03    0.130E-03
RMM:  12    -0.413213421298E+03    0.67333E-05   -0.55111E-07  2390   0.130E-03    0.555E-04
RMM:  13    -0.413213417083E+03    0.42155E-05   -0.28338E-07  1865   0.915E-04    0.249E-04
RMM:  14    -0.413213413165E+03    0.39172E-05   -0.16945E-07  1406   0.753E-04    0.142E-04
RMM:  15    -0.413213407103E+03    0.60629E-05   -0.13844E-07  1417   0.726E-04    0.108E-04
RMM:  16    -0.413213405319E+03    0.17839E-05   -0.86270E-08  1189   0.644E-04    0.785E-05
RMM:  17    -0.413213401096E+03    0.42230E-05   -0.82113E-08  1363   0.651E-04    0.605E-05
RMM:  18    -0.413213398662E+03    0.24338E-05   -0.52312E-08  1088   0.586E-04    0.410E-05
RMM:  19    -0.413213398046E+03    0.61567E-06   -0.30254E-08   849   0.541E-04
   42 T=    71. E= -.41286654E+03 F= -.41321340E+03 E0= -.41319235E+03  EK= 0.34686E+00 SP= 0.00E+00 SK= 0.00E+00
       N       E                     dE             d eps       ncg     rms          rms(c)
RMM:   1    -0.413216047658E+03   -0.26490E-02   -0.12322E+01  4312   0.131E+00    0.947E-01
RMM:   2    -0.413217568464E+03   -0.15208E-02   -0.16990E-01  4298   0.151E-01    0.680E-01
RMM:   3    -0.413220200544E+03   -0.26321E-02   -0.11662E-02  5102   0.797E-02    0.346E-01
RMM:   4    -0.413252273666E+03   -0.32073E-01   -0.50718E-02  5078   0.190E-01    0.797E-01
RMM:   5    -0.413215535631E+03    0.36738E-01   -0.16161E-02  4715   0.133E-01    0.531E-02
RMM:   6    -0.413215568961E+03   -0.33329E-04   -0.27190E-03  5739   0.499E-02    0.258E-02
RMM:   7    -0.413215577276E+03   -0.83153E-05   -0.33962E-04  5840   0.165E-02    0.184E-02
RMM:   8    -0.413215574577E+03    0.26994E-05   -0.76908E-05  5164   0.858E-03    0.103E-02
RMM:   9    -0.413215563472E+03    0.11104E-04   -0.16358E-05  4136   0.492E-03    0.397E-03
RMM:  10    -0.413215559234E+03    0.42384E-05   -0.32851E-06  2693   0.239E-03    0.235E-03
RMM:  11    -0.413215554125E+03    0.51089E-05   -0.11975E-06  2501   0.173E-03    0.123E-03
RMM:  12    -0.413215549314E+03    0.48113E-05   -0.54292E-07  2383   0.127E-03    0.521E-04
RMM:  13    -0.413215546159E+03    0.31553E-05   -0.27988E-07  1757   0.892E-04    0.236E-04
RMM:  14    -0.413215543287E+03    0.28719E-05   -0.17231E-07  1369   0.749E-04    0.132E-04
RMM:  15    -0.413215538516E+03    0.47710E-05   -0.14466E-07  1361   0.722E-04    0.947E-05
RMM:  16    -0.413215536940E+03    0.15754E-05   -0.88147E-08  1158   0.648E-04    0.679E-05
RMM:  17    -0.413215533835E+03    0.31056E-05   -0.78468E-08  1261   0.644E-04    0.564E-05
RMM:  18    -0.413215531509E+03    0.23253E-05   -0.57933E-08  1140   0.596E-04    0.424E-05
RMM:  19    -0.413215530968E+03    0.54093E-06   -0.29128E-08   809   0.540E-04
   43 T=    71. E= -.41286656E+03 F= -.41321553E+03 E0= -.41319452E+03  EK= 0.34898E+00 SP= 0.00E+00 SK= 0.00E+00
       N       E                     dE             d eps       ncg     rms          rms(c)
RMM:   1    -0.413262379825E+03   -0.46848E-01   -0.12895E+01  4312   0.156E+00    0.949E-01
RMM:   2    -0.413219223365E+03    0.43156E-01   -0.20891E-01  4309   0.174E-01    0.699E-01
RMM:   3    -0.413222873009E+03   -0.36496E-02   -0.12415E-02  5106   0.884E-02    0.407E-01
RMM:   4    -0.413252392823E+03   -0.29520E-01   -0.52394E-02  5057   0.194E-01    0.792E-01
RMM:   5    -0.413216808017E+03    0.35585E-01   -0.15689E-02  4697   0.134E-01    0.572E-02
RMM:   6    -0.413216818149E+03   -0.10131E-04   -0.26312E-03  5690   0.492E-02    0.264E-02
RMM:   7    -0.413216825383E+03   -0.72344E-05   -0.34015E-04  5886   0.167E-02    0.193E-02
RMM:   8    -0.413216821760E+03    0.36233E-05   -0.74368E-05  5173   0.851E-03    0.104E-02
RMM:   9    -0.413216812032E+03    0.97276E-05   -0.18395E-05  4189   0.524E-03    0.419E-03
RMM:  10    -0.413216808983E+03    0.30487E-05   -0.34607E-06  2714   0.241E-03    0.241E-03
RMM:  11    -0.413216805132E+03    0.38511E-05   -0.16440E-06  2554   0.191E-03    0.135E-03
RMM:  12    -0.413216802108E+03    0.30246E-05   -0.57110E-07  2452   0.134E-03    0.622E-04
RMM:  13    -0.413216799549E+03    0.25591E-05   -0.31135E-07  1691   0.905E-04    0.294E-04
RMM:  14    -0.413216797295E+03    0.22539E-05   -0.20041E-07  1392   0.775E-04    0.155E-04
RMM:  15    -0.413216794663E+03    0.26318E-05   -0.15052E-07  1372   0.724E-04    0.855E-05
RMM:  16    -0.413216792603E+03    0.20598E-05   -0.10525E-07  1210   0.665E-04    0.580E-05
RMM:  17    -0.413216790840E+03    0.17628E-05   -0.78392E-08  1183   0.629E-04    0.471E-05
RMM:  18    -0.413216788687E+03    0.21535E-05   -0.63106E-08  1116   0.599E-04    0.384E-05
RMM:  19    -0.413216788046E+03    0.64064E-06   -0.35478E-08   856   0.546E-04
   44 T=    71. E= -.41286624E+03 F= -.41321679E+03 E0= -.41319580E+03  EK= 0.35055E+00 SP= 0.00E+00 SK= 0.00E+00
       N       E                     dE             d eps       ncg     rms          rms(c)
RMM:   1    -0.413241704949E+03   -0.24916E-01   -0.12707E+01  4309   0.155E+00    0.980E-01
RMM:   2    -0.413220193109E+03    0.21512E-01   -0.17499E-01  4366   0.177E-01    0.688E-01
RMM:   3    -0.413231017811E+03   -0.10825E-01   -0.19326E-02  5130   0.115E-01    0.511E-01
RMM:   4    -0.413235938999E+03   -0.49212E-02   -0.39364E-02  5014   0.173E-01    0.563E-01
RMM:   5    -0.413218749508E+03    0.17189E-01   -0.64175E-03  4584   0.965E-02    0.479E-02
RMM:   6    -0.413218706966E+03    0.42542E-04   -0.12109E-03  5425   0.340E-02    0.241E-02
RMM:   7    -0.413218704804E+03    0.21619E-05   -0.16423E-04  5618   0.125E-02    0.169E-02
RMM:   8    -0.413218698720E+03    0.60844E-05   -0.73132E-05  5099   0.869E-03    0.878E-03
RMM:   9    -0.413218684601E+03    0.14118E-04   -0.13532E-05  4015   0.489E-03    0.352E-03
RMM:  10    -0.413218680774E+03    0.38270E-05   -0.20631E-06  2618   0.207E-03    0.196E-03
RMM:  11    -0.413218673209E+03    0.75653E-05   -0.10600E-06  2482   0.165E-03    0.111E-03
RMM:  12    -0.413218667536E+03    0.56734E-05   -0.45713E-07  2362   0.119E-03    0.523E-04
RMM:  13    -0.413218663879E+03    0.36566E-05   -0.21591E-07  1621   0.806E-04    0.262E-04
RMM:  14    -0.413218660192E+03    0.36869E-05   -0.12702E-07  1222   0.678E-04    0.140E-04
RMM:  15    -0.413218654220E+03    0.59716E-05   -0.11682E-07  1262   0.681E-04    0.121E-04
RMM:  16    -0.413218652112E+03    0.21087E-05   -0.66191E-08  1038   0.607E-04    0.103E-04
RMM:  17    -0.413218649197E+03    0.29150E-05   -0.56915E-08  1106   0.598E-04    0.566E-05
RMM:  18    -0.413218645598E+03    0.35989E-05   -0.53979E-08  1156   0.596E-04    0.523E-05
RMM:  19    -0.413218645287E+03    0.31095E-06   -0.20803E-08   715   0.506E-04
   45 T=    72. E= -.41286659E+03 F= -.41321865E+03 E0= -.41319768E+03  EK= 0.35206E+00 SP= 0.00E+00 SK= 0.00E+00
       N       E                     dE             d eps       ncg     rms          rms(c)
RMM:   1    -0.413234794915E+03   -0.16149E-01   -0.12537E+01  4308   0.161E+00    0.960E-01
RMM:   2    -0.413220632259E+03    0.14163E-01   -0.18290E-01  4406   0.188E-01    0.686E-01
RMM:   3    -0.413233894862E+03   -0.13263E-01   -0.21104E-02  5128   0.124E-01    0.558E-01
RMM:   4    -0.413234015239E+03   -0.12038E-03   -0.39066E-02  5003   0.173E-01    0.531E-01
RMM:   5    -0.413219177451E+03    0.14838E-01   -0.57128E-03  4558   0.940E-02    0.484E-02
RMM:   6    -0.413219115039E+03    0.62412E-04   -0.97173E-04  5228   0.316E-02    0.238E-02
RMM:   7    -0.413219111884E+03    0.31550E-05   -0.13364E-04  5668   0.113E-02    0.154E-02
RMM:   8    -0.413219109931E+03    0.19533E-05   -0.81907E-05  5183   0.904E-03    0.100E-02
RMM:   9    -0.413219094440E+03    0.15491E-04   -0.18752E-05  4387   0.555E-03    0.388E-03
RMM:  10    -0.413219091424E+03    0.30156E-05   -0.25485E-06  2675   0.222E-03    0.213E-03
RMM:  11    -0.413219085342E+03    0.60819E-05   -0.13719E-06  2484   0.187E-03    0.127E-03
RMM:  12    -0.413219080910E+03    0.44319E-05   -0.52024E-07  2400   0.131E-03    0.662E-04
RMM:  13    -0.413219077356E+03    0.35539E-05   -0.23358E-07  1672   0.866E-04    0.330E-04
RMM:  14    -0.413219073734E+03    0.36226E-05   -0.12915E-07  1299   0.705E-04    0.163E-04
RMM:  15    -0.413219069220E+03    0.45142E-05   -0.10286E-07  1190   0.663E-04    0.129E-04
RMM:  16    -0.413219067326E+03    0.18937E-05   -0.55790E-08   926   0.580E-04    0.107E-04
RMM:  17    -0.413219064225E+03    0.31013E-05   -0.53557E-08   995   0.584E-04    0.649E-05
RMM:  18    -0.413219061512E+03    0.27130E-05   -0.44298E-08   971   0.569E-04    0.451E-05
RMM:  19    -0.413219060955E+03    0.55622E-06   -0.17213E-08   653   0.509E-04
   46 T=    72. E= -.41286646E+03 F= -.41321906E+03 E0= -.41319811E+03  EK= 0.35260E+00 SP= 0.00E+00 SK= 0.00E+00
       N       E                     dE             d eps       ncg     rms          rms(c)
RMM:   1    -0.413249079141E+03   -0.30018E-01   -0.12718E+01  4310   0.175E+00    0.949E-01
RMM:   2    -0.413221084193E+03    0.27995E-01   -0.20442E-01  4382   0.212E-01    0.701E-01
RMM:   3    -0.413234346052E+03   -0.13262E-01   -0.21211E-02  5128   0.128E-01    0.579E-01
RMM:   4    -0.413235508660E+03   -0.11626E-02   -0.41763E-02  5003   0.179E-01    0.561E-01
RMM:   5    -0.413218995717E+03    0.16513E-01   -0.66980E-03  4558   0.101E-01    0.518E-02
RMM:   6    -0.413218923831E+03    0.71885E-04   -0.11101E-03  5275   0.338E-02    0.251E-02
RMM:   7    -0.413218920387E+03    0.34446E-05   -0.15773E-04  5724   0.122E-02    0.176E-02
RMM:   8    -0.413218916288E+03    0.40984E-05   -0.81121E-05  5192   0.900E-03    0.992E-03
RMM:   9    -0.413218902550E+03    0.13738E-04   -0.18726E-05  4352   0.559E-03    0.402E-03
RMM:  10    -0.413218900264E+03    0.22861E-05   -0.27281E-06  2694   0.223E-03    0.223E-03
RMM:  11    -0.413218896175E+03    0.40892E-05   -0.14987E-06  2509   0.190E-03    0.139E-03
RMM:  12    -0.413218893144E+03    0.30312E-05   -0.52793E-07  2412   0.134E-03    0.689E-04
RMM:  13    -0.413218890370E+03    0.27732E-05   -0.25654E-07  1715   0.885E-04    0.315E-04
RMM:  14    -0.413218887887E+03    0.24831E-05   -0.15753E-07  1376   0.729E-04    0.167E-04
RMM:  15    -0.413218884603E+03    0.32840E-05   -0.13063E-07  1253   0.682E-04    0.112E-04
RMM:  16    -0.413218882913E+03    0.16906E-05   -0.72505E-08   994   0.598E-04    0.862E-05
RMM:  17    -0.413218880849E+03    0.20640E-05   -0.61981E-08   998   0.589E-04    0.537E-05
RMM:  18    -0.413218879285E+03    0.15637E-05   -0.43884E-08   893   0.565E-04    0.361E-05
RMM:  19    -0.413218878821E+03    0.46372E-06   -0.22331E-08   693   0.525E-04
   47 T=    72. E= -.41286646E+03 F= -.41321888E+03 E0= -.41319794E+03  EK= 0.35242E+00 SP= 0.00E+00 SK= 0.00E+00
       N       E                     dE             d eps       ncg     rms          rms(c)
RMM:   1    -0.413284184809E+03   -0.65306E-01   -0.13043E+01  4306   0.198E+00    0.976E-01
RMM:   2    -0.413219990712E+03    0.64194E-01   -0.21368E-01  4462   0.216E-01    0.697E-01
RMM:   3    -0.413241462618E+03   -0.21472E-01   -0.28642E-02  5148   0.150E-01    0.691E-01
RMM:   4    -0.413228103836E+03    0.13359E-01   -0.38895E-02  4966   0.177E-01    0.457E-01
RMM:   5    -0.413218434823E+03    0.96690E-02   -0.49016E-03  4536   0.913E-02    0.567E-02
RMM:   6    -0.413218289250E+03    0.14557E-03   -0.51666E-04  4782   0.285E-02    0.270E-02
RMM:   7    -0.413218290111E+03   -0.86166E-06   -0.17998E-04  5938   0.135E-02    0.180E-02
RMM:   8    -0.413218273717E+03    0.16395E-04   -0.75180E-05  5119   0.945E-03    0.105E-02
RMM:   9    -0.413218261563E+03    0.12154E-04   -0.14680E-05  4061   0.496E-03    0.502E-03
RMM:  10    -0.413218256926E+03    0.46368E-05   -0.24497E-06  2582   0.249E-03    0.244E-03
RMM:  11    -0.413218251628E+03    0.52984E-05   -0.19721E-06  2534   0.215E-03    0.168E-03
RMM:  12    -0.413218247263E+03    0.43650E-05   -0.62683E-07  2406   0.147E-03    0.878E-04
RMM:  13    -0.413218242933E+03    0.43298E-05   -0.29896E-07  1954   0.957E-04    0.475E-04
RMM:  14    -0.413218237889E+03    0.50441E-05   -0.19806E-07  1721   0.782E-04    0.269E-04
RMM:  15    -0.413218233497E+03    0.43917E-05   -0.12865E-07  1251   0.645E-04    0.143E-04
RMM:  16    -0.413218231055E+03    0.24424E-05   -0.81295E-08  1105   0.587E-04    0.101E-04
RMM:  17    -0.413218228209E+03    0.28460E-05   -0.68648E-08  1064   0.577E-04    0.586E-05
RMM:  18    -0.413218226564E+03    0.16446E-05   -0.40901E-08   880   0.541E-04    0.492E-05
RMM:  19    -0.413218225897E+03    0.66773E-06   -0.23107E-08   737   0.514E-04
   48 T=    72. E= -.41286688E+03 F= -.41321823E+03 E0= -.41319730E+03  EK= 0.35135E+00 SP= 0.00E+00 SK= 0.00E+00
       N       E                     dE             d eps       ncg     rms          rms(c)
RMM:   1    -0.413284146423E+03   -0.65920E-01   -0.12887E+01  4306   0.210E+00    0.967E-01
RMM:   2    -0.413217107533E+03    0.67039E-01   -0.21778E-01  4485   0.230E-01    0.688E-01
RMM:   3    -0.413244087755E+03   -0.26980E-01   -0.33579E-02  5158   0.164E-01    0.761E-01
RMM:   4    -0.413222464727E+03    0.21623E-01   -0.38275E-02  4941   0.178E-01    0.410E-01
RMM:   5    -0.413215607062E+03    0.68577E-02   -0.51500E-03  4695   0.923E-02    0.676E-02
RMM:   6    -0.413215370671E+03    0.23639E-03   -0.50460E-04  4670   0.309E-02    0.310E-02
RMM:   7    -0.413215367579E+03    0.30922E-05   -0.17114E-04  5800   0.138E-02    0.210E-02
RMM:   8    -0.413215345613E+03    0.21965E-04   -0.54425E-05  4993   0.811E-03    0.977E-03
RMM:   9    -0.413215333010E+03    0.12603E-04   -0.14268E-05  3680   0.451E-03    0.440E-03
RMM:  10    -0.413215327597E+03    0.54138E-05   -0.23489E-06  2598   0.239E-03    0.245E-03
RMM:  11    -0.413215320917E+03    0.66793E-05   -0.11896E-06  2493   0.177E-03    0.154E-03
RMM:  12    -0.413215316613E+03    0.43045E-05   -0.45382E-07  2406   0.121E-03    0.743E-04
RMM:  13    -0.413215311244E+03    0.53690E-05   -0.29888E-07  1751   0.892E-04    0.376E-04
RMM:  14    -0.413215306783E+03    0.44612E-05   -0.21094E-07  1610   0.782E-04    0.298E-04
RMM:  15    -0.413215301989E+03    0.47939E-05   -0.17374E-07  1350   0.714E-04    0.142E-04
RMM:  16    -0.413215299754E+03    0.22346E-05   -0.99964E-08  1199   0.633E-04    0.977E-05
RMM:  17    -0.413215297131E+03    0.26235E-05   -0.85701E-08  1193   0.620E-04    0.501E-05
RMM:  18    -0.413215295943E+03    0.11873E-05   -0.50562E-08   986   0.563E-04    0.449E-05
RMM:  19    -0.413215295288E+03    0.65502E-06   -0.31047E-08   828   0.535E-04
   49 T=    71. E= -.41286660E+03 F= -.41321530E+03 E0= -.41319437E+03  EK= 0.34870E+00 SP= 0.00E+00 SK= 0.00E+00
       N       E                     dE             d eps       ncg     rms          rms(c)
RMM:   1    -0.413244336946E+03   -0.29041E-01   -0.12386E+01  4305   0.207E+00    0.937E-01
RMM:   2    -0.413214209187E+03    0.30128E-01   -0.21268E-01  4493   0.238E-01    0.695E-01
RMM:   3    -0.413240203333E+03   -0.25994E-01   -0.32745E-02  5163   0.165E-01    0.760E-01
RMM:   4    -0.413219695989E+03    0.20507E-01   -0.39440E-02  4943   0.181E-01    0.422E-01
RMM:   5    -0.413212073817E+03    0.76222E-02   -0.56044E-03  4709   0.963E-02    0.700E-02
RMM:   6    -0.413211816170E+03    0.25765E-03   -0.54215E-04  4666   0.322E-02    0.316E-02
RMM:   7    -0.413211813634E+03    0.25357E-05   -0.18166E-04  5812   0.141E-02    0.213E-02
RMM:   8    -0.413211792577E+03    0.21058E-04   -0.56404E-05  5051   0.814E-03    0.101E-02
RMM:   9    -0.413211782220E+03    0.10357E-04   -0.15916E-05  3785   0.475E-03    0.448E-03
RMM:  10    -0.413211777865E+03    0.43546E-05   -0.27308E-06  2636   0.252E-03    0.256E-03
RMM:  11    -0.413211773320E+03    0.45453E-05   -0.12351E-06  2498   0.182E-03    0.160E-03
RMM:  12    -0.413211770294E+03    0.30258E-05   -0.48259E-07  2431   0.124E-03    0.787E-04
RMM:  13    -0.413211766522E+03    0.37724E-05   -0.34453E-07  1838   0.935E-04    0.407E-04
RMM:  14    -0.413211763461E+03    0.30604E-05   -0.24945E-07  1704   0.811E-04    0.353E-04
RMM:  15    -0.413211760546E+03    0.29154E-05   -0.20138E-07  1357   0.723E-04    0.147E-04
RMM:  16    -0.413211759083E+03    0.14633E-05   -0.11774E-07  1196   0.646E-04    0.939E-05
RMM:  17    -0.413211757852E+03    0.12301E-05   -0.90916E-08  1159   0.625E-04    0.541E-05
RMM:  18    -0.413211757086E+03    0.76626E-06   -0.61354E-08  1028   0.586E-04
   50 T=    70. E= -.41286695E+03 F= -.41321176E+03 E0= -.41319084E+03  EK= 0.34481E+00 SP= 0.00E+00 SK= 0.00E+00
       N       E                     dE             d eps       ncg     rms          rms(c)
RMM:   1    -0.413244761800E+03   -0.33004E-01   -0.12286E+01  4301   0.222E+00    0.952E-01
RMM:   2    -0.413208156905E+03    0.36605E-01   -0.21260E-01  4563   0.251E-01    0.692E-01
RMM:   3    -0.413244222653E+03   -0.36066E-01   -0.42391E-02  5172   0.187E-01    0.866E-01
RMM:   4    -0.413210959219E+03    0.33263E-01   -0.40935E-02  4920   0.188E-01    0.364E-01
RMM:   5    -0.413206409730E+03    0.45495E-02   -0.69216E-03  5078   0.103E-01    0.915E-02
RMM:   6    -0.413205925424E+03    0.48431E-03   -0.92066E-04  4723   0.411E-02    0.367E-02
RMM:   7    -0.413205917779E+03    0.76452E-05   -0.24036E-04  5733   0.167E-02    0.237E-02
RMM:   8    -0.413205895397E+03    0.22382E-04   -0.50482E-05  5009   0.794E-03    0.111E-02
RMM:   9    -0.413205882894E+03    0.12503E-04   -0.17519E-05  3803   0.487E-03    0.457E-03
RMM:  10    -0.413205876403E+03    0.64910E-05   -0.37211E-06  2760   0.283E-03    0.299E-03
RMM:  11    -0.413205869893E+03    0.65102E-05   -0.13575E-06  2506   0.199E-03    0.158E-03
RMM:  12    -0.413205866502E+03    0.33910E-05   -0.54814E-07  2448   0.129E-03    0.757E-04
RMM:  13    -0.413205861589E+03    0.49131E-05   -0.45774E-07  2125   0.103E-03    0.548E-04
RMM:  14    -0.413205858323E+03    0.32664E-05   -0.27598E-07  1573   0.826E-04    0.286E-04
[...]
RMM:  15    -0.413444294462E+03   -0.22434E-05   -0.73931E-07  2344   0.123E-03    0.303E-04
RMM:  16    -0.413444295710E+03   -0.12487E-05   -0.42029E-07  1873   0.916E-04    0.188E-04
RMM:  17    -0.413444297089E+03   -0.13792E-05   -0.45114E-07  2048   0.944E-04    0.154E-04
RMM:  18    -0.413444298009E+03   -0.91992E-06   -0.26708E-07  1449   0.751E-04
  140 T=   118. E= -.41286685E+03 F= -.41344430E+03 E0= -.41342130E+03  EK= 0.57744E+00 SP= 0.00E+00 SK= 0.00E+00
       N       E                     dE             d eps       ncg     rms          rms(c)
RMM:   1    -0.413633398356E+03   -0.18910E+00   -0.12745E+01  4265   0.661E+00    0.112E+00
RMM:   2    -0.413575431039E+03    0.57967E-01   -0.42990E-01  5385   0.788E-01    0.102E+00
RMM:   3    -0.413577058210E+03   -0.16272E-02   -0.70523E-02  5276   0.321E-01    0.749E-01
RMM:   4    -0.413613240355E+03   -0.36182E-01   -0.71711E-02  5466   0.263E-01    0.976E-01
RMM:   5    -0.413568018727E+03    0.45222E-01   -0.40100E-02  4663   0.254E-01    0.191E-01
RMM:   6    -0.413567399906E+03    0.61882E-03   -0.17874E-02  5424   0.152E-01    0.132E-01
RMM:   7    -0.413566311900E+03    0.10880E-02   -0.31235E-03  5176   0.704E-02    0.581E-02
RMM:   8    -0.413566280201E+03    0.31699E-04   -0.62912E-04  5518   0.303E-02    0.338E-02
RMM:   9    -0.413566254677E+03    0.25523E-04   -0.16854E-04  4801   0.173E-02    0.159E-02
RMM:  10    -0.413566257208E+03   -0.25314E-05   -0.57729E-05  5434   0.921E-03    0.958E-03
RMM:  11    -0.413566261766E+03   -0.45579E-05   -0.17965E-05  4614   0.505E-03    0.532E-03
RMM:  12    -0.413566268465E+03   -0.66987E-05   -0.38958E-06  2913   0.311E-03    0.333E-03
RMM:  13    -0.413566277408E+03   -0.89427E-05   -0.24198E-06  2700   0.260E-03    0.177E-03
RMM:  14    -0.413566284809E+03   -0.74008E-05   -0.14492E-06  2584   0.183E-03    0.999E-04
RMM:  15    -0.413566291207E+03   -0.63982E-05   -0.97122E-07  2521   0.141E-03    0.578E-04
RMM:  16    -0.413566297785E+03   -0.65781E-05   -0.93515E-07  2319   0.127E-03    0.408E-04
RMM:  17    -0.413566305740E+03   -0.79552E-05   -0.13324E-06  2536   0.140E-03    0.316E-04
RMM:  18    -0.413566311308E+03   -0.55681E-05   -0.93499E-07  2005   0.112E-03    0.197E-04
RMM:  19    -0.413566315189E+03   -0.38804E-05   -0.58306E-07  1906   0.940E-04    0.125E-04
RMM:  20    -0.413566317735E+03   -0.25461E-05   -0.28925E-07  1534   0.746E-04    0.884E-05
RMM:  21    -0.413566319430E+03   -0.16956E-05   -0.14263E-07  1209   0.635E-04    0.552E-05
RMM:  22    -0.413566320336E+03   -0.90517E-06   -0.76022E-08  1072   0.587E-04
  141 T=   140. E= -.41287985E+03 F= -.41356632E+03 E0= -.41354370E+03  EK= 0.68647E+00 SP= 0.00E+00 SK= 0.00E+00
       N       E                     dE             d eps       ncg     rms          rms(c)
RMM:   1    -0.413617918134E+03   -0.51599E-01   -0.15441E+01  4267   0.736E+00    0.165E+00
RMM:   2    -0.413554928624E+03    0.62990E-01   -0.56415E-01  5347   0.913E-01    0.151E+00
RMM:   3    -0.413612879091E+03   -0.57950E-01   -0.15437E-01  5531   0.429E-01    0.150E+00
RMM:   4    -0.413563511649E+03    0.49367E-01   -0.11198E-01  5215   0.359E-01    0.952E-01
RMM:   5    -0.413545692824E+03    0.17819E-01   -0.69492E-02  4681   0.349E-01    0.329E-01
RMM:   6    -0.413540525885E+03    0.51669E-02   -0.19312E-02  4946   0.179E-01    0.159E-01
RMM:   7    -0.413539278404E+03    0.12475E-02   -0.20319E-03  4438   0.731E-02    0.726E-02
RMM:   8    -0.413539159691E+03    0.11871E-03   -0.79738E-04  5188   0.376E-02    0.378E-02
RMM:   9    -0.413539140362E+03    0.19329E-04   -0.35505E-04  5484   0.226E-02    0.210E-02
RMM:  10    -0.413539139904E+03    0.45805E-06   -0.77118E-05  5693   0.106E-02    0.113E-02
RMM:  11    -0.413539147447E+03   -0.75432E-05   -0.24757E-05  4858   0.609E-03    0.682E-03
RMM:  12    -0.413539158262E+03   -0.10814E-04   -0.56485E-06  3145   0.363E-03    0.365E-03
RMM:  13    -0.413539172735E+03   -0.14473E-04   -0.32601E-06  2829   0.289E-03    0.187E-03
RMM:  14    -0.413539185609E+03   -0.12874E-04   -0.18438E-06  2654   0.207E-03    0.104E-03
RMM:  15    -0.413539197732E+03   -0.12123E-04   -0.15874E-06  2627   0.173E-03    0.740E-04
RMM:  16    -0.413539212968E+03   -0.15236E-04   -0.24358E-06  2743   0.190E-03    0.487E-04
RMM:  17    -0.413539224806E+03   -0.11839E-04   -0.23369E-06  2594   0.174E-03    0.307E-04
RMM:  18    -0.413539231591E+03   -0.67847E-05   -0.12087E-06  2155   0.123E-03    0.205E-04
RMM:  19    -0.413539236425E+03   -0.48340E-05   -0.65040E-07  1888   0.975E-04    0.137E-04
RMM:  20    -0.413539239277E+03   -0.28522E-05   -0.30448E-07  1538   0.764E-04    0.841E-05
RMM:  21    -0.413539241596E+03   -0.23190E-05   -0.18527E-07  1372   0.686E-04    0.607E-05
RMM:  22    -0.413539242691E+03   -0.10949E-05   -0.95780E-08  1125   0.606E-04    0.421E-05
RMM:  23    -0.413539243789E+03   -0.10978E-05   -0.71005E-08  1163   0.593E-04    0.216E-05
RMM:  24    -0.413539244072E+03   -0.28290E-06   -0.31969E-08   924   0.540E-04
  142 T=   132. E= -.41289233E+03 F= -.41353924E+03 E0= -.41351693E+03  EK= 0.64691E+00 SP= 0.00E+00 SK= 0.00E+00
       N       E                     dE             d eps       ncg     rms          rms(c)
RMM:   1    -0.413287575635E+03    0.25167E+00   -0.11385E+01  4270   0.650E+00    0.175E+00
RMM:   2    -0.413288003712E+03   -0.42808E-03   -0.42708E-01  5339   0.803E-01    0.162E+00
RMM:   3    -0.413337339509E+03   -0.49336E-01   -0.15347E-01  5503   0.409E-01    0.169E+00
RMM:   4    -0.413270404893E+03    0.66935E-01   -0.11195E-01  5170   0.389E-01    0.781E-01
RMM:   5    -0.413265208799E+03    0.51961E-02   -0.66038E-02  4771   0.338E-01    0.348E-01
RMM:   6    -0.413260386854E+03    0.48219E-02   -0.13143E-02  5000   0.152E-01    0.153E-01
RMM:   7    -0.413259679292E+03    0.70756E-03   -0.14618E-03  4612   0.598E-02    0.766E-02
RMM:   8    -0.413259522261E+03    0.15703E-03   -0.83074E-04  4920   0.387E-02    0.318E-02
RMM:   9    -0.413259521140E+03    0.11204E-05   -0.32436E-04  5799   0.212E-02    0.188E-02
RMM:  10    -0.413259520541E+03    0.59941E-06   -0.61444E-05  5639   0.930E-03    0.101E-02
RMM:  11    -0.413259528401E+03   -0.78602E-05   -0.21096E-05  4748   0.574E-03    0.635E-03
RMM:  12    -0.413259540161E+03   -0.11760E-04   -0.50646E-06  3059   0.359E-03    0.307E-03
RMM:  13    -0.413259552066E+03   -0.11904E-04   -0.22707E-06  2716   0.239E-03    0.167E-03
RMM:  14    -0.413259563562E+03   -0.11496E-04   -0.14347E-06  2594   0.183E-03    0.905E-04
RMM:  15    -0.413259575531E+03   -0.11970E-04   -0.15154E-06  2627   0.167E-03    0.648E-04
RMM:  16    -0.413259589449E+03   -0.13918E-04   -0.21221E-06  2724   0.179E-03    0.417E-04
RMM:  17    -0.413259598158E+03   -0.87090E-05   -0.13581E-06  2254   0.134E-03    0.281E-04
RMM:  18    -0.413259605725E+03   -0.75667E-05   -0.11624E-06  2346   0.126E-03    0.169E-04
RMM:  19    -0.413259609400E+03   -0.36746E-05   -0.50273E-07  1745   0.859E-04    0.128E-04
RMM:  20    -0.413259612323E+03   -0.29239E-05   -0.27410E-07  1458   0.720E-04    0.767E-05
RMM:  21    -0.413259614115E+03   -0.17915E-05   -0.15467E-07  1260   0.643E-04    0.527E-05
RMM:  22    -0.413259615292E+03   -0.11767E-05   -0.95349E-08  1157   0.601E-04    0.365E-05
RMM:  23    -0.413259615937E+03   -0.64514E-06   -0.58831E-08  1062   0.571E-04
  143 T=    80. E= -.41286888E+03 F= -.41325962E+03 E0= -.41323749E+03  EK= 0.39073E+00 SP= 0.00E+00 SK= 0.00E+00
       N       E                     dE             d eps       ncg     rms          rms(c)
RMM:   1    -0.413093715930E+03    0.16590E+00   -0.33238E+00  4279   0.369E+00    0.725E-01
RMM:   2    -0.413100580908E+03   -0.68650E-02   -0.93088E-02  5336   0.378E-01    0.672E-01
RMM:   3    -0.413109046894E+03   -0.84660E-02   -0.29257E-02  5571   0.178E-01    0.716E-01
RMM:   4    -0.413096980189E+03    0.12067E-01   -0.20223E-02  5165   0.166E-01    0.326E-01
RMM:   5    -0.413096257179E+03    0.72301E-03   -0.13158E-02  4815   0.152E-01    0.153E-01
RMM:   6    -0.413095183122E+03    0.10741E-02   -0.26606E-03  4901   0.687E-02    0.637E-02
RMM:   7    -0.413095061235E+03    0.12189E-03   -0.34197E-04  4874   0.279E-02    0.293E-02
RMM:   8    -0.413095041939E+03    0.19297E-04   -0.13631E-04  5067   0.154E-02    0.116E-02
RMM:   9    -0.413095041836E+03    0.10305E-06   -0.41960E-05  5533   0.754E-03    0.705E-03
RMM:  10    -0.413095043157E+03   -0.13217E-05   -0.75309E-06  3447   0.357E-03    0.374E-03
RMM:  11    -0.413095047088E+03   -0.39309E-05   -0.23827E-06  2674   0.258E-03    0.210E-03
RMM:  12    -0.413095051092E+03   -0.40034E-05   -0.11180E-06  2507   0.182E-03    0.108E-03
RMM:  13    -0.413095055093E+03   -0.40012E-05   -0.74918E-07  2456   0.136E-03    0.585E-04
RMM:  14    -0.413095059000E+03   -0.39075E-05   -0.58597E-07  2230   0.112E-03    0.398E-04
RMM:  15    -0.413095063832E+03   -0.48315E-05   -0.70041E-07  2329   0.115E-03    0.243E-04
RMM:  16    -0.413095067335E+03   -0.35035E-05   -0.48436E-07  1905   0.933E-04    0.154E-04
RMM:  17    -0.413095070490E+03   -0.31545E-05   -0.41259E-07  1870   0.881E-04    0.121E-04
RMM:  18    -0.413095072371E+03   -0.18811E-05   -0.22411E-07  1453   0.708E-04    0.820E-05
RMM:  19    -0.413095074228E+03   -0.18571E-05   -0.16142E-07  1337   0.663E-04    0.429E-05
RMM:  20    -0.413095075126E+03   -0.89807E-06   -0.85401E-08  1094   0.594E-04
  144 T=    50. E= -.41284755E+03 F= -.41309508E+03 E0= -.41307300E+03  EK= 0.24752E+00 SP= 0.00E+00 SK= 0.00E+00
       N       E                     dE             d eps       ncg     rms          rms(c)
RMM:   1    -0.413323395562E+03   -0.22832E+00   -0.47328E+00  4296   0.415E+00    0.117E+00
RMM:   2    -0.413343420722E+03   -0.20025E-01   -0.16408E-01  5422   0.482E-01    0.110E+00
RMM:   3    -0.413341835783E+03    0.15849E-02   -0.71858E-02  5312   0.289E-01    0.104E+00
RMM:   4    -0.413322547634E+03    0.19288E-01   -0.72852E-02  5262   0.308E-01    0.465E-01
RMM:   5    -0.413315889193E+03    0.66584E-02   -0.35373E-02  4950   0.236E-01    0.182E-01
RMM:   6    -0.413313946535E+03    0.19427E-02   -0.78856E-03  5211   0.114E-01    0.745E-02
RMM:   7    -0.413313814190E+03    0.13234E-03   -0.68971E-04  5243   0.377E-02    0.373E-02
RMM:   8    -0.413313787228E+03    0.26962E-04   -0.17188E-04  4662   0.185E-02    0.166E-02
RMM:   9    -0.413313794335E+03   -0.71064E-05   -0.86248E-05  5650   0.110E-02    0.125E-02
RMM:  10    -0.413313794300E+03    0.34830E-07   -0.16842E-05  4509   0.513E-03    0.600E-03
RMM:  11    -0.413313797319E+03   -0.30193E-05   -0.11295E-05  4169   0.415E-03    0.349E-03
RMM:  12    -0.413313799447E+03   -0.21284E-05   -0.18639E-06  2596   0.244E-03    0.179E-03
RMM:  13    -0.413313800031E+03   -0.58307E-06   -0.78153E-07  2487   0.149E-03
  145 T=    88. E= -.41287969E+03 F= -.41331380E+03 E0= -.41329168E+03  EK= 0.43411E+00 SP= 0.00E+00 SK= 0.00E+00
       N       E                     dE             d eps       ncg     rms          rms(c)
RMM:   1    -0.413554469948E+03   -0.24067E+00   -0.11655E+01  4300   0.668E+00    0.170E+00
RMM:   2    -0.413602890549E+03   -0.48421E-01   -0.44869E-01  5410   0.810E-01    0.181E+00
RMM:   3    -0.413542337215E+03    0.60553E-01   -0.16054E-01  5310   0.447E-01    0.148E+00
RMM:   4    -0.413510916098E+03    0.31421E-01   -0.13652E-01  5299   0.422E-01    0.758E-01
RMM:   5    -0.413504863159E+03    0.60529E-02   -0.82987E-02  5023   0.355E-01    0.351E-01
RMM:   6    -0.413497550864E+03    0.73123E-02   -0.25755E-02  5038   0.205E-01    0.137E-01
RMM:   7    -0.413496951420E+03    0.59944E-03   -0.16871E-03  4735   0.677E-02    0.652E-02
RMM:   8    -0.413496912225E+03    0.39196E-04   -0.45374E-04  4797   0.299E-02    0.339E-02
RMM:   9    -0.413496939664E+03   -0.27439E-04   -0.23990E-04  5320   0.195E-02    0.190E-02
RMM:  10    -0.413496947122E+03   -0.74585E-05   -0.54516E-05  5551   0.886E-03    0.989E-03
RMM:  11    -0.413496958394E+03   -0.11271E-04   -0.30363E-05  5188   0.658E-03    0.594E-03
RMM:  12    -0.413496967952E+03   -0.95588E-05   -0.72602E-06  3390   0.397E-03    0.374E-03
RMM:  13    -0.413496971404E+03   -0.34513E-05   -0.29558E-06  2754   0.260E-03    0.195E-03
RMM:  14    -0.413496972968E+03   -0.15640E-05   -0.25675E-06  2735   0.224E-03    0.911E-04
RMM:  15    -0.413496972060E+03    0.90772E-06   -0.18839E-06  2545   0.175E-03
  146 T=   124. E= -.41288809E+03 F= -.41349697E+03 E0= -.41347476E+03  EK= 0.60888E+00 SP= 0.00E+00 SK= 0.00E+00
       N       E                     dE             d eps       ncg     rms          rms(c)
RMM:   1    -0.413502156253E+03   -0.51833E-02   -0.12654E+01  4300   0.702E+00    0.129E+00
RMM:   2    -0.413532830344E+03   -0.30674E-01   -0.43956E-01  5415   0.790E-01    0.151E+00
RMM:   3    -0.413476624524E+03    0.56206E-01   -0.11825E-01  5428   0.388E-01    0.117E+00
RMM:   4    -0.413453775222E+03    0.22849E-01   -0.68890E-02  5347   0.306E-01    0.648E-01
RMM:   5    -0.413454237767E+03   -0.46255E-03   -0.55653E-02  5013   0.290E-01    0.348E-01
RMM:   6    -0.413448719058E+03    0.55187E-02   -0.24743E-02  5027   0.193E-01    0.155E-01
RMM:   7    -0.413447806672E+03    0.91239E-03   -0.18055E-03  4526   0.703E-02    0.757E-02
RMM:   8    -0.413447785253E+03    0.21419E-04   -0.80984E-04  5395   0.352E-02    0.434E-02
RMM:   9    -0.413447805617E+03   -0.20364E-04   -0.29303E-04  4742   0.222E-02    0.176E-02
RMM:  10    -0.413447821795E+03   -0.16178E-04   -0.77554E-05  5607   0.109E-02    0.100E-02
RMM:  11    -0.413447834341E+03   -0.12546E-04   -0.26154E-05  4868   0.650E-03    0.677E-03
RMM:  12    -0.413447847026E+03   -0.12685E-04   -0.87364E-06  3520   0.423E-03    0.392E-03
RMM:  13    -0.413447852792E+03   -0.57660E-05   -0.44887E-06  2962   0.300E-03    0.201E-03
RMM:  14    -0.413447855201E+03   -0.24091E-05   -0.33784E-06  2812   0.248E-03    0.125E-03
RMM:  15    -0.413447854133E+03    0.10683E-05   -0.31080E-06  2746   0.216E-03    0.776E-04
RMM:  16    -0.413447849184E+03    0.49494E-05   -0.35160E-06  2760   0.212E-03    0.575E-04
RMM:  17    -0.413447841347E+03    0.78370E-05   -0.26078E-06  2529   0.175E-03    0.409E-04
RMM:  18    -0.413447833866E+03    0.74803E-05   -0.13466E-06  2212   0.129E-03    0.222E-04
RMM:  19    -0.413447827204E+03    0.66625E-05   -0.66133E-07  1911   0.982E-04    0.137E-04
RMM:  20    -0.413447822639E+03    0.45653E-05   -0.30003E-07  1543   0.774E-04    0.876E-05
RMM:  21    -0.413447819749E+03    0.28900E-05   -0.16155E-07  1344   0.676E-04    0.682E-05
RMM:  22    -0.413447817979E+03    0.17693E-05   -0.95733E-08  1219   0.616E-04    0.422E-05
RMM:  23    -0.413447817135E+03    0.84454E-06   -0.54421E-08  1044   0.566E-04
  147 T=   117. E= -.41287381E+03 F= -.41344782E+03 E0= -.41342554E+03  EK= 0.57401E+00 SP= 0.00E+00 SK= 0.00E+00
       N       E                     dE             d eps       ncg     rms          rms(c)
RMM:   1    -0.413352057312E+03    0.95761E-01   -0.95611E+00  4298   0.604E+00    0.796E-01
RMM:   2    -0.413352351007E+03   -0.29369E-03   -0.27304E-01  5419   0.616E-01    0.921E-01
RMM:   3    -0.413338623858E+03    0.13727E-01   -0.57073E-02  5635   0.262E-01    0.777E-01
RMM:   4    -0.413326245331E+03    0.12379E-01   -0.22586E-02  5295   0.181E-01    0.451E-01
RMM:   5    -0.413326821461E+03   -0.57613E-03   -0.23822E-02  4800   0.195E-01    0.238E-01
RMM:   6    -0.413324682145E+03    0.21393E-02   -0.12895E-02  4994   0.137E-01    0.117E-01
RMM:   7    -0.413324111804E+03    0.57034E-03   -0.13137E-03  4836   0.549E-02    0.652E-02
RMM:   8    -0.413324082154E+03    0.29650E-04   -0.53654E-04  5356   0.285E-02    0.355E-02
RMM:   9    -0.413324093697E+03   -0.11542E-04   -0.23438E-04  4643   0.196E-02    0.133E-02
RMM:  10    -0.413324104581E+03   -0.10884E-04   -0.57277E-05  5625   0.914E-03    0.911E-03
RMM:  11    -0.413324111097E+03   -0.65166E-05   -0.15690E-05  4310   0.531E-03    0.536E-03
RMM:  12    -0.413324118557E+03   -0.74601E-05   -0.49729E-06  3051   0.326E-03    0.298E-03
RMM:  13    -0.413324122602E+03   -0.40442E-05   -0.28641E-06  2772   0.245E-03    0.164E-03
RMM:  14    -0.413324123777E+03   -0.11750E-05   -0.18293E-06  2606   0.189E-03    0.102E-03
RMM:  15    -0.413324123450E+03    0.32699E-06   -0.16719E-06  2536   0.162E-03
  148 T=    94. E= -.41286451E+03 F= -.41332412E+03 E0= -.41330181E+03  EK= 0.45962E+00 SP= 0.00E+00 SK= 0.00E+00
       N       E                     dE             d eps       ncg     rms          rms(c)
RMM:   1    -0.413275955489E+03    0.48168E-01   -0.69578E+00  4277   0.498E+00    0.570E-01
RMM:   2    -0.413262858155E+03    0.13097E-01   -0.17466E-01  5432   0.490E-01    0.553E-01
RMM:   3    -0.413269350113E+03   -0.64920E-02   -0.31006E-02  5774   0.181E-01    0.570E-01
RMM:   4    -0.413261898774E+03    0.74513E-02   -0.10786E-02  5241   0.115E-01    0.366E-01
RMM:   5    -0.413260969302E+03    0.92947E-03   -0.14736E-02  4381   0.163E-01    0.136E-01
RMM:   6    -0.413260219841E+03    0.74946E-03   -0.37604E-03  5072   0.775E-02    0.825E-02
RMM:   7    -0.413259935732E+03    0.28411E-03   -0.63779E-04  4966   0.351E-02    0.492E-02
RMM:   8    -0.413259890040E+03    0.45692E-04   -0.30418E-04  4780   0.220E-02    0.227E-02
RMM:   9    -0.413259901430E+03   -0.11390E-04   -0.17802E-04  5123   0.160E-02    0.135E-02
RMM:  10    -0.413259898382E+03    0.30474E-05   -0.22519E-05  4537   0.610E-03    0.753E-03
RMM:  11    -0.413259898567E+03   -0.18459E-06   -0.10031E-05  3836   0.434E-03    0.329E-03
RMM:  12    -0.413259899899E+03   -0.13321E-05   -0.19505E-06  2640   0.232E-03    0.154E-03
RMM:  13    -0.413259900001E+03   -0.10235E-06   -0.10070E-06  2508   0.154E-03
  149 T=    81. E= -.41286344E+03 F= -.41325990E+03 E0= -.41323759E+03  EK= 0.39646E+00 SP= 0.00E+00 SK= 0.00E+00
       N       E                     dE             d eps       ncg     rms          rms(c)
RMM:   1    -0.413287769858E+03   -0.27870E-01   -0.65464E+00  4264   0.478E+00    0.643E-01
RMM:   2    -0.413278129627E+03    0.96402E-02   -0.16008E-01  5401   0.484E-01    0.647E-01
RMM:   3    -0.413281661967E+03   -0.35323E-02   -0.32398E-02  5832   0.181E-01    0.643E-01
RMM:   4    -0.413274155493E+03    0.75065E-02   -0.94130E-03  5004   0.121E-01    0.372E-01
RMM:   5    -0.413274027027E+03    0.12847E-03   -0.14985E-02  4319   0.168E-01    0.149E-01
RMM:   6    -0.413273242769E+03    0.78426E-03   -0.16489E-03  4639   0.588E-02    0.633E-02
RMM:   7    -0.413273153541E+03    0.89229E-04   -0.55080E-04  5503   0.282E-02    0.447E-02
RMM:   8    -0.413273099901E+03    0.53639E-04   -0.27850E-04  4553   0.216E-02    0.170E-02
RMM:   9    -0.413273098838E+03    0.10631E-05   -0.92206E-05  5498   0.118E-02    0.987E-03
RMM:  10    -0.413273098615E+03    0.22315E-06   -0.15867E-05  4240   0.483E-03    0.577E-03
RMM:  11    -0.413273099916E+03   -0.13010E-05   -0.45882E-06  3005   0.322E-03    0.300E-03
RMM:  12    -0.413273102132E+03   -0.22154E-05   -0.14944E-06  2574   0.212E-03    0.147E-03
RMM:  13    -0.413273104305E+03   -0.21739E-05   -0.78813E-07  2446   0.147E-03    0.685E-04
RMM:  14    -0.413273106655E+03   -0.23498E-05   -0.59455E-07  2279   0.120E-03    0.444E-04
RMM:  15    -0.413273109299E+03   -0.26439E-05   -0.53550E-07  2078   0.107E-03    0.283E-04
RMM:  16    -0.413273110853E+03   -0.15538E-05   -0.29745E-07  1671   0.836E-04    0.158E-04
RMM:  17    -0.413273113495E+03   -0.26416E-05   -0.37230E-07  1995   0.916E-04    0.139E-04
RMM:  18    -0.413273115365E+03   -0.18702E-05   -0.23530E-07  1485   0.737E-04    0.913E-05
RMM:  19    -0.413273116385E+03   -0.10199E-05   -0.12824E-07  1204   0.646E-04    0.459E-05
RMM:  20    -0.413273117704E+03   -0.13196E-05   -0.11855E-07  1307   0.643E-04    0.351E-05
RMM:  21    -0.413273117924E+03   -0.22006E-06   -0.50237E-08   955   0.574E-04
  150 T=    83. E= -.41286776E+03 F= -.41327312E+03 E0= -.41325083E+03  EK= 0.40536E+00 SP= 0.00E+00 SK= 0.00E+00
