       N       E                     dE             d eps       ncg     rms          rms(c)
RMM:   1     0.220100929803E+04    0.22010E+04   -0.52446E+04  2132   0.654E+02
RMM:   2     0.705169036698E+03   -0.14958E+04   -0.16265E+04  2132   0.177E+02
RMM:   3     0.137617504516E+03   -0.56755E+03   -0.65710E+03  2132   0.117E+02
RMM:   4    -0.159408326622E+03   -0.29703E+03   -0.27828E+03  2132   0.936E+01
RMM:   5    -0.287297252413E+03   -0.12789E+03   -0.11427E+03  2132   0.595E+01
RMM:   6    -0.349744896816E+03   -0.62448E+02   -0.55187E+02  2132   0.423E+01
RMM:   7    -0.382689021821E+03   -0.32944E+02   -0.30454E+02  2132   0.293E+01
RMM:   8    -0.404220677564E+03   -0.21532E+02   -0.18443E+02  2132   0.234E+01
RMM:   9    -0.435979688025E+03   -0.31759E+02   -0.30635E+02  6098   0.173E+01
RMM:  10    -0.441250886916E+03   -0.52712E+01   -0.63183E+01  6395   0.540E+00
RMM:  11    -0.442488770333E+03   -0.12379E+01   -0.11237E+01  6221   0.174E+00
RMM:  12    -0.442874832176E+03   -0.38606E+00   -0.27337E+00  6375   0.603E-01    0.134E+02
RMM:  13    -0.425650827602E+03    0.17224E+02   -0.81166E+01  4673   0.119E+01    0.712E+01
RMM:  14    -0.500690284431E+03   -0.75039E+02   -0.54763E+02  5423   0.234E+01    0.309E+01
RMM:  15    -0.414869592401E+03    0.85821E+02   -0.19830E+02  5064   0.164E+01    0.642E+00
RMM:  16    -0.414020152611E+03    0.84944E+00   -0.39495E+01  6079   0.609E+00    0.425E+00
RMM:  17    -0.413221413872E+03    0.79874E+00   -0.23789E+00  5371   0.182E+00    0.246E+00
RMM:  18    -0.413167995424E+03    0.53418E-01   -0.85207E-01  5959   0.950E-01    0.161E+00
RMM:  19    -0.413167301681E+03    0.69374E-03   -0.30028E-01  5734   0.580E-01    0.849E-01
RMM:  20    -0.413180986029E+03   -0.13684E-01   -0.18542E-01  5388   0.472E-01    0.489E-01
RMM:  21    -0.413168522505E+03    0.12464E-01   -0.30994E-02  5033   0.212E-01    0.238E-01
RMM:  22    -0.413166867889E+03    0.16546E-02   -0.12651E-02  6165   0.928E-02    0.148E-01
RMM:  23    -0.413165020760E+03    0.18471E-02   -0.54175E-03  5773   0.694E-02    0.830E-02
RMM:  24    -0.413163333651E+03    0.16871E-02   -0.17081E-03  5517   0.419E-02    0.375E-02
RMM:  25    -0.413162976242E+03    0.35741E-03   -0.78927E-04  5690   0.252E-02    0.292E-02
RMM:  26    -0.413163135991E+03   -0.15975E-03   -0.60636E-04  5839   0.260E-02    0.328E-02
RMM:  27    -0.413163520773E+03   -0.38478E-03   -0.18831E-04  4583   0.202E-02    0.161E-02
RMM:  28    -0.413163986857E+03   -0.46608E-03   -0.19340E-04  5359   0.203E-02    0.994E-03
RMM:  29    -0.413164307897E+03   -0.32104E-03   -0.89690E-05  4382   0.140E-02    0.483E-03
RMM:  30    -0.413164530555E+03   -0.22266E-03   -0.77154E-05  4104   0.105E-02    0.266E-03
RMM:  31    -0.413164619174E+03   -0.88619E-04   -0.45648E-05  3216   0.586E-03    0.266E-03
RMM:  32    -0.413164639373E+03   -0.20199E-04   -0.18468E-05  2908   0.305E-03    0.118E-03
RMM:  33    -0.413164643372E+03   -0.39991E-05   -0.78491E-06  2744   0.191E-03    0.479E-04
RMM:  34    -0.413164642359E+03    0.10139E-05   -0.38093E-06  2657   0.163E-03    0.915E-04
RMM:  35    -0.413164640234E+03    0.21243E-05   -0.17401E-06  2224   0.108E-03    0.551E-04
RMM:  36    -0.413164638840E+03    0.13938E-05   -0.35714E-06  1331   0.777E-04    0.405E-04
RMM:  37    -0.413164637992E+03    0.84830E-06   -0.91044E-07  1644   0.786E-04
    1 T=    61. E= -.41286686E+03 F= -.41316464E+03 E0= -.41314214E+03  EK= 0.29778E+00 SP= 0.00E+00 SK= 0.00E+00
       N       E                     dE             d eps       ncg     rms          rms(c)
RMM:   1    -0.413174868996E+03   -0.10230E-01   -0.60406E+00  3967   0.479E-01    0.913E-01
RMM:   2    -0.413171724279E+03    0.31447E-02   -0.78879E-02  3970   0.716E-02    0.665E-01
RMM:   3    -0.413168902605E+03    0.28217E-02   -0.55658E-02  5100   0.843E-02    0.350E-01
RMM:   4    -0.413183933469E+03   -0.15031E-01   -0.28118E-02  5151   0.144E-01    0.597E-01
RMM:   5    -0.413164236181E+03    0.19697E-01   -0.10415E-02  4714   0.101E-01    0.434E-02
RMM:   6    -0.413164369742E+03   -0.13356E-03   -0.16713E-03  5644   0.396E-02    0.292E-02
RMM:   7    -0.413164376120E+03   -0.63786E-05   -0.29239E-04  5605   0.161E-02    0.199E-02
RMM:   8    -0.413164376575E+03   -0.45466E-06   -0.40248E-05  4897   0.753E-03    0.722E-03
RMM:   9    -0.413164379743E+03   -0.31680E-05   -0.82193E-06  3213   0.320E-03    0.450E-03
RMM:  10    -0.413164385205E+03   -0.54615E-05   -0.15453E-06  2545   0.192E-03    0.276E-03
RMM:  11    -0.413164389241E+03   -0.40361E-05   -0.91275E-07  2474   0.138E-03    0.141E-03
RMM:  12    -0.413164395254E+03   -0.60135E-05   -0.10395E-06  2502   0.138E-03    0.724E-04
RMM:  13    -0.413164397876E+03   -0.26221E-05   -0.48105E-07  2043   0.994E-04    0.460E-04
RMM:  14    -0.413164398187E+03   -0.31044E-06   -0.25098E-07  1484   0.741E-04
    2 T=    61. E= -.41286667E+03 F= -.41316440E+03 E0= -.41314190E+03  EK= 0.29772E+00 SP= 0.00E+00 SK= 0.00E+00
       N       E                     dE             d eps       ncg     rms          rms(c)
RMM:   1    -0.413175984139E+03   -0.11586E-01   -0.59875E+00  4187   0.477E-01    0.929E-01
RMM:   2    -0.413171914926E+03    0.40692E-02   -0.79263E-02  4014   0.712E-02    0.664E-01
RMM:   3    -0.413169371312E+03    0.25436E-02   -0.51736E-02  5114   0.828E-02    0.324E-01
RMM:   4    -0.413184969645E+03   -0.15598E-01   -0.28691E-02  5128   0.146E-01    0.599E-01
RMM:   5    -0.413164827174E+03    0.20142E-01   -0.98354E-03  4709   0.100E-01    0.447E-02
RMM:   6    -0.413164934683E+03   -0.10751E-03   -0.16434E-03  5643   0.397E-02    0.303E-02
RMM:   7    -0.413164935931E+03   -0.12475E-05   -0.29068E-04  5611   0.163E-02    0.206E-02
RMM:   8    -0.413164929248E+03    0.66832E-05   -0.41908E-05  4948   0.753E-03    0.754E-03
RMM:   9    -0.413164928158E+03    0.10895E-05   -0.78177E-06  3183   0.322E-03    0.442E-03
RMM:  10    -0.413164928223E+03   -0.64640E-07   -0.14541E-06  2532   0.194E-03
    3 T=    61. E= -.41286694E+03 F= -.41316493E+03 E0= -.41314243E+03  EK= 0.29799E+00 SP= 0.00E+00 SK= 0.00E+00
       N       E                     dE             d eps       ncg     rms          rms(c)
RMM:   1    -0.413175221115E+03   -0.10293E-01   -0.59533E+00  4216   0.484E-01    0.914E-01
RMM:   2    -0.413171637726E+03    0.35834E-02   -0.78695E-02  4130   0.709E-02    0.658E-01
RMM:   3    -0.413172631071E+03   -0.99334E-03   -0.54216E-02  5160   0.984E-02    0.411E-01
RMM:   4    -0.413179021288E+03   -0.63902E-02   -0.27686E-02  5075   0.145E-01    0.518E-01
RMM:   5    -0.413164638624E+03    0.14383E-01   -0.73897E-03  4602   0.862E-02    0.440E-02
RMM:   6    -0.413164684849E+03   -0.46225E-04   -0.11387E-03  5419   0.325E-02    0.285E-02
RMM:   7    -0.413164688053E+03   -0.32037E-05   -0.21106E-04  5513   0.140E-02    0.183E-02
RMM:   8    -0.413164685415E+03    0.26377E-05   -0.31347E-05  4713   0.675E-03    0.596E-03
RMM:   9    -0.413164685740E+03   -0.32514E-06   -0.46516E-06  2827   0.263E-03
    4 T=    61. E= -.41286663E+03 F= -.41316469E+03 E0= -.41314220E+03  EK= 0.29805E+00 SP= 0.00E+00 SK= 0.00E+00
       N       E                     dE             d eps       ncg     rms          rms(c)
RMM:   1    -0.413175144127E+03   -0.10459E-01   -0.60447E+00  4237   0.492E-01    0.911E-01
RMM:   2    -0.413171982419E+03    0.31617E-02   -0.79024E-02  4105   0.687E-02    0.664E-01
RMM:   3    -0.413173417534E+03   -0.14351E-02   -0.57850E-02  5168   0.100E-01    0.438E-01
RMM:   4    -0.413178754925E+03   -0.53374E-02   -0.27545E-02  5076   0.145E-01    0.520E-01
RMM:   5    -0.413164767884E+03    0.13987E-01   -0.79275E-03  4596   0.866E-02    0.434E-02
RMM:   6    -0.413164816854E+03   -0.48970E-04   -0.10883E-03  5438   0.317E-02    0.274E-02
RMM:   7    -0.413164833750E+03   -0.16895E-04   -0.20368E-04  5469   0.139E-02    0.172E-02
RMM:   8    -0.413164837902E+03   -0.41521E-05   -0.28987E-05  4602   0.655E-03    0.533E-03
RMM:   9    -0.413164841104E+03   -0.32026E-05   -0.43048E-06  2817   0.252E-03    0.332E-03
RMM:  10    -0.413164845942E+03   -0.48382E-05   -0.11681E-06  2523   0.165E-03    0.198E-03
RMM:  11    -0.413164849267E+03   -0.33244E-05   -0.69403E-07  2319   0.120E-03    0.937E-04
RMM:  12    -0.413164853451E+03   -0.41841E-05   -0.75435E-07  2363   0.115E-03    0.491E-04
RMM:  13    -0.413164855719E+03   -0.22676E-05   -0.44642E-07  1792   0.887E-04    0.308E-04
RMM:  14    -0.413164856524E+03   -0.80538E-06   -0.25470E-07  1351   0.740E-04
    5 T=    61. E= -.41286663E+03 F= -.41316486E+03 E0= -.41314238E+03  EK= 0.29823E+00 SP= 0.00E+00 SK= 0.00E+00
       N       E                     dE             d eps       ncg     rms          rms(c)
RMM:   1    -0.413176257488E+03   -0.11402E-01   -0.60097E+00  4248   0.491E-01    0.926E-01
RMM:   2    -0.413172358510E+03    0.38990E-02   -0.79110E-02  4057   0.685E-02    0.665E-01
RMM:   3    -0.413170340904E+03    0.20176E-02   -0.52740E-02  5122   0.829E-02    0.344E-01
RMM:   4    -0.413184242365E+03   -0.13901E-01   -0.28592E-02  5102   0.145E-01    0.585E-01
RMM:   5    -0.413165220753E+03    0.19022E-01   -0.94982E-03  4690   0.975E-02    0.443E-02
RMM:   6    -0.413165329359E+03   -0.10861E-03   -0.15153E-03  5591   0.381E-02    0.298E-02
RMM:   7    -0.413165329564E+03   -0.20587E-06   -0.27044E-04  5589   0.156E-02    0.201E-02
RMM:   8    -0.413165323889E+03    0.56755E-05   -0.38258E-05  4849   0.754E-03    0.707E-03
RMM:   9    -0.413165323695E+03    0.19356E-06   -0.71539E-06  3084   0.310E-03
    6 T=    61. E= -.41286690E+03 F= -.41316532E+03 E0= -.41314286E+03  EK= 0.29843E+00 SP= 0.00E+00 SK= 0.00E+00
       N       E                     dE             d eps       ncg     rms          rms(c)
RMM:   1    -0.413175789095E+03   -0.10465E-01   -0.59674E+00  4268   0.496E-01    0.920E-01
RMM:   2    -0.413172033578E+03    0.37555E-02   -0.78894E-02  4228   0.698E-02    0.659E-01
RMM:   3    -0.413175305135E+03   -0.32716E-02   -0.54826E-02  5162   0.106E-01    0.451E-01
RMM:   4    -0.413177248311E+03   -0.19432E-02   -0.27796E-02  5057   0.146E-01    0.479E-01
RMM:   5    -0.413165115380E+03    0.12133E-01   -0.62908E-03  4559   0.802E-02    0.440E-02
RMM:   6    -0.413165128362E+03   -0.12981E-04   -0.92020E-04  5349   0.294E-02    0.284E-02
RMM:   7    -0.413165139223E+03   -0.10862E-04   -0.17860E-04  5406   0.132E-02    0.173E-02
RMM:   8    -0.413165136471E+03    0.27519E-05   -0.27369E-05  4596   0.661E-03    0.532E-03
RMM:   9    -0.413165135467E+03    0.10041E-05   -0.37667E-06  2727   0.241E-03    0.298E-03
RMM:  10    -0.413165134750E+03    0.71737E-06   -0.10770E-06  2500   0.159E-03
    7 T=    61. E= -.41286675E+03 F= -.41316513E+03 E0= -.41314269E+03  EK= 0.29839E+00 SP= 0.00E+00 SK= 0.00E+00
       N       E                     dE             d eps       ncg     rms          rms(c)
RMM:   1    -0.413176094798E+03   -0.10959E-01   -0.60352E+00  4273   0.511E-01    0.908E-01
RMM:   2    -0.413172941084E+03    0.31537E-02   -0.79430E-02  4134   0.725E-02    0.662E-01
RMM:   3    -0.413171356339E+03    0.15847E-02   -0.55569E-02  5078   0.894E-02    0.374E-01
RMM:   4    -0.413183799338E+03   -0.12443E-01   -0.28073E-02  5084   0.144E-01    0.579E-01
RMM:   5    -0.413165589922E+03    0.18209E-01   -0.96438E-03  4683   0.961E-02    0.432E-02
RMM:   6    -0.413165689891E+03   -0.99969E-04   -0.14749E-03  5609   0.370E-02    0.288E-02
RMM:   7    -0.413165687378E+03    0.25126E-05   -0.26320E-04  5552   0.155E-02    0.193E-02
RMM:   8    -0.413165689188E+03   -0.18103E-05   -0.36044E-05  4798   0.714E-03    0.670E-03
RMM:   9    -0.413165691045E+03   -0.18568E-05   -0.63610E-06  3018   0.296E-03    0.408E-03
RMM:  10    -0.413165694266E+03   -0.32213E-05   -0.12906E-06  2517   0.182E-03    0.247E-03
RMM:  11    -0.413165696392E+03   -0.21258E-05   -0.76148E-07  2434   0.132E-03    0.122E-03
RMM:  12    -0.413165699101E+03   -0.27088E-05   -0.90173E-07  2478   0.130E-03    0.651E-04
RMM:  13    -0.413165699901E+03   -0.80017E-06   -0.40721E-07  1940   0.946E-04
    8 T=    61. E= -.41286705E+03 F= -.41316570E+03 E0= -.41314327E+03  EK= 0.29865E+00 SP= 0.00E+00 SK= 0.00E+00
       N       E                     dE             d eps       ncg     rms          rms(c)
RMM:   1    -0.413176591453E+03   -0.10892E-01   -0.60351E+00  4283   0.506E-01    0.922E-01
RMM:   2    -0.413173094044E+03    0.34974E-02   -0.79144E-02  4168   0.731E-02    0.666E-01
RMM:   3    -0.413170592170E+03    0.25019E-02   -0.53545E-02  5065   0.851E-02    0.342E-01
RMM:   4    -0.413185484840E+03   -0.14893E-01   -0.28291E-02  5089   0.144E-01    0.596E-01
RMM:   5    -0.413165793199E+03    0.19692E-01   -0.99819E-03  4691   0.990E-02    0.433E-02
RMM:   6    -0.413165904803E+03   -0.11160E-03   -0.16110E-03  5629   0.388E-02    0.300E-02
RMM:   7    -0.413165903712E+03    0.10915E-05   -0.28224E-04  5557   0.162E-02    0.203E-02
RMM:   8    -0.413165898399E+03    0.53121E-05   -0.38659E-05  4819   0.757E-03    0.734E-03
RMM:   9    -0.413165898357E+03    0.41902E-07   -0.75859E-06  3129   0.318E-03
    9 T=    61. E= -.41286699E+03 F= -.41316590E+03 E0= -.41314349E+03  EK= 0.29891E+00 SP= 0.00E+00 SK= 0.00E+00
       N       E                     dE             d eps       ncg     rms          rms(c)
RMM:   1    -0.413176791185E+03   -0.10893E-01   -0.59941E+00  4293   0.509E-01    0.926E-01
RMM:   2    -0.413172867591E+03    0.39236E-02   -0.79512E-02  4296   0.730E-02    0.662E-01
RMM:   3    -0.413177525950E+03   -0.46584E-02   -0.55527E-02  5152   0.113E-01    0.475E-01
RMM:   4    -0.413177041819E+03    0.48413E-03   -0.27923E-02  5035   0.147E-01    0.460E-01
RMM:   5    -0.413165959661E+03    0.11082E-01   -0.57321E-03  4532   0.772E-02    0.438E-02
RMM:   6    -0.413165956349E+03    0.33119E-05   -0.81952E-04  5304   0.278E-02    0.286E-02
RMM:   7    -0.413165946708E+03    0.96406E-05   -0.16980E-04  5322   0.132E-02    0.170E-02
RMM:   8    -0.413165943441E+03    0.32676E-05   -0.26722E-05  4530   0.651E-03    0.509E-03
RMM:   9    -0.413165941448E+03    0.19926E-05   -0.34855E-06  2676   0.235E-03    0.282E-03
RMM:  10    -0.413165939394E+03    0.20547E-05   -0.10595E-06  2477   0.155E-03    0.165E-03
RMM:  11    -0.413165937423E+03    0.19710E-05   -0.64723E-07  2162   0.115E-03    0.770E-04
RMM:  12    -0.413165934335E+03    0.30878E-05   -0.62404E-07  2256   0.107E-03    0.447E-04
RMM:  13    -0.413165931712E+03    0.26232E-05   -0.32745E-07  1596   0.820E-04    0.298E-04
RMM:  14    -0.413165929066E+03    0.26456E-05   -0.25206E-07  1414   0.749E-04    0.180E-04
RMM:  15    -0.413165925439E+03    0.36273E-05   -0.31373E-07  1679   0.785E-04    0.291E-04
RMM:  16    -0.413165921018E+03    0.44206E-05   -0.31705E-07  1463   0.726E-04    0.139E-04
RMM:  17    -0.413165920247E+03    0.77113E-06   -0.81815E-08   891   0.538E-04
   10 T=    61. E= -.41286671E+03 F= -.41316592E+03 E0= -.41314354E+03  EK= 0.29921E+00 SP= 0.00E+00 SK= 0.00E+00
       N       E                     dE             d eps       ncg     rms          rms(c)
RMM:   1    -0.413177935630E+03   -0.12015E-01   -0.60382E+00  4291   0.537E-01    0.908E-01
RMM:   2    -0.413173887709E+03    0.40479E-02   -0.80309E-02  4213   0.741E-02    0.661E-01
RMM:   3    -0.413171573023E+03    0.23147E-02   -0.54039E-02  5072   0.855E-02    0.352E-01
RMM:   4    -0.413186350468E+03   -0.14777E-01   -0.28776E-02  5086   0.146E-01    0.598E-01
RMM:   5    -0.413166579594E+03    0.19771E-01   -0.10174E-02  4686   0.994E-02    0.436E-02
RMM:   6    -0.413166690620E+03   -0.11103E-03   -0.16176E-03  5598   0.387E-02    0.296E-02
RMM:   7    -0.413166692165E+03   -0.15458E-05   -0.27825E-04  5522   0.160E-02    0.199E-02
RMM:   8    -0.413166691922E+03    0.24367E-06   -0.38457E-05  4840   0.727E-03    0.712E-03
RMM:   9    -0.413166692878E+03   -0.95677E-06   -0.71899E-06  3088   0.313E-03
   11 T=    61. E= -.41286692E+03 F= -.41316669E+03 E0= -.41314433E+03  EK= 0.29977E+00 SP= 0.00E+00 SK= 0.00E+00
       N       E                     dE             d eps       ncg     rms          rms(c)
RMM:   1    -0.413177275261E+03   -0.10583E-01   -0.60786E+00  4297   0.528E-01    0.919E-01
RMM:   2    -0.413173801039E+03    0.34742E-02   -0.80399E-02  4309   0.736E-02    0.667E-01
RMM:   3    -0.413178871858E+03   -0.50708E-02   -0.58876E-02  5156   0.115E-01    0.498E-01
RMM:   4    -0.413177774923E+03    0.10969E-02   -0.28309E-02  5025   0.148E-01    0.470E-01
RMM:   5    -0.413166651016E+03    0.11124E-01   -0.64883E-03  4506   0.781E-02    0.430E-02
RMM:   6    -0.413166674481E+03   -0.23465E-04   -0.82299E-04  5250   0.276E-02    0.275E-02
RMM:   7    -0.413166686735E+03   -0.12254E-04   -0.16690E-04  5281   0.128E-02    0.162E-02
RMM:   8    -0.413166686800E+03   -0.65425E-07   -0.25470E-05  4436   0.625E-03    0.470E-03
RMM:   9    -0.413166687836E+03   -0.10360E-05   -0.31690E-06  2656   0.229E-03    0.286E-03
RMM:  10    -0.413166689647E+03   -0.18110E-05   -0.99280E-07  2462   0.149E-03    0.163E-03
RMM:  11    -0.413166690626E+03   -0.97874E-06   -0.57878E-07  2049   0.109E-03
   12 T=    61. E= -.41286667E+03 F= -.41316669E+03 E0= -.41314436E+03  EK= 0.30002E+00 SP= 0.00E+00 SK= 0.00E+00
       N       E                     dE             d eps       ncg     rms          rms(c)
RMM:   1    -0.413178327956E+03   -0.11638E-01   -0.60334E+00  4290   0.521E-01    0.931E-01
RMM:   2    -0.413174163788E+03    0.41642E-02   -0.79812E-02  4264   0.698E-02    0.665E-01
RMM:   3    -0.413172146641E+03    0.20171E-02   -0.51273E-02  5109   0.824E-02    0.333E-01
RMM:   4    -0.413186692258E+03   -0.14546E-01   -0.29255E-02  5086   0.147E-01    0.590E-01
RMM:   5    -0.413167146357E+03    0.19546E-01   -0.93917E-03  4685   0.979E-02    0.444E-02
RMM:   6    -0.413167258863E+03   -0.11251E-03   -0.15937E-03  5609   0.385E-02    0.307E-02
RMM:   7    -0.413167254378E+03    0.44853E-05   -0.28172E-04  5545   0.161E-02    0.209E-02
RMM:   8    -0.413167249032E+03    0.53453E-05   -0.39575E-05  4878   0.745E-03    0.762E-03
RMM:   9    -0.413167245865E+03    0.31677E-05   -0.73285E-06  3100   0.318E-03    0.439E-03
RMM:  10    -0.413167243122E+03    0.27431E-05   -0.14314E-06  2521   0.193E-03    0.263E-03
RMM:  11    -0.413167240627E+03    0.24945E-05   -0.79252E-07  2467   0.138E-03    0.136E-03
RMM:  12    -0.413167235887E+03    0.47405E-05   -0.95812E-07  2492   0.140E-03    0.756E-04
RMM:  13    -0.413167232837E+03    0.30496E-05   -0.39495E-07  2040   0.999E-04    0.494E-04
RMM:  14    -0.413167231878E+03    0.95893E-06   -0.17264E-07  1455   0.736E-04
   13 T=    61. E= -.41286682E+03 F= -.41316723E+03 E0= -.41314493E+03  EK= 0.30041E+00 SP= 0.00E+00 SK= 0.00E+00
       N       E                     dE             d eps       ncg     rms          rms(c)
RMM:   1    -0.413178317032E+03   -0.11084E-01   -0.60299E+00  4294   0.530E-01    0.911E-01
RMM:   2    -0.413175000375E+03    0.33167E-02   -0.79074E-02  4266   0.707E-02    0.660E-01
RMM:   3    -0.413173255448E+03    0.17449E-02   -0.53534E-02  5104   0.846E-02    0.357E-01
RMM:   4    -0.413186769452E+03   -0.13514E-01   -0.28723E-02  5076   0.145E-01    0.585E-01
RMM:   5    -0.413167855237E+03    0.18914E-01   -0.96073E-03  4677   0.972E-02    0.439E-02
RMM:   6    -0.413167962641E+03   -0.10740E-03   -0.15308E-03  5586   0.375E-02    0.295E-02
RMM:   7    -0.413167976448E+03   -0.13808E-04   -0.26851E-04  5547   0.157E-02    0.199E-02
RMM:   8    -0.413167971971E+03    0.44774E-05   -0.37798E-05  4828   0.727E-03    0.697E-03
RMM:   9    -0.413167971090E+03    0.88076E-06   -0.67004E-06  3044   0.307E-03
   14 T=    61. E= -.41286708E+03 F= -.41316797E+03 E0= -.41314570E+03  EK= 0.30089E+00 SP= 0.00E+00 SK= 0.00E+00
       N       E                     dE             d eps       ncg     rms          rms(c)
RMM:   1    -0.413178443197E+03   -0.10471E-01   -0.61172E+00  4299   0.534E-01    0.917E-01
RMM:   2    -0.413175316477E+03    0.31267E-02   -0.79914E-02  4323   0.724E-02    0.668E-01
RMM:   3    -0.413179907394E+03   -0.45909E-02   -0.59474E-02  5145   0.114E-01    0.496E-01
RMM:   4    -0.413179340083E+03    0.56731E-03   -0.28142E-02  5027   0.148E-01    0.476E-01
RMM:   5    -0.413167982759E+03    0.11357E-01   -0.67454E-03  4516   0.792E-02    0.425E-02
RMM:   6    -0.413168009248E+03   -0.26489E-04   -0.86683E-04  5326   0.278E-02    0.274E-02
RMM:   7    -0.413168009685E+03   -0.43706E-06   -0.17374E-04  5228   0.133E-02    0.164E-02
RMM:   8    -0.413168011990E+03   -0.23049E-05   -0.25819E-05  4393   0.637E-03    0.476E-03
RMM:   9    -0.413168012852E+03   -0.86182E-06   -0.33759E-06  2688   0.232E-03
   15 T=    61. E= -.41286683E+03 F= -.41316801E+03 E0= -.41314578E+03  EK= 0.30118E+00 SP= 0.00E+00 SK= 0.00E+00
       N       E                     dE             d eps       ncg     rms          rms(c)
RMM:   1    -0.413180089075E+03   -0.12077E-01   -0.60714E+00  4297   0.540E-01    0.932E-01
RMM:   2    -0.413176110899E+03    0.39782E-02   -0.80688E-02  4285   0.750E-02    0.666E-01
RMM:   3    -0.413176149014E+03   -0.38115E-04   -0.52693E-02  5106   0.970E-02    0.386E-01
RMM:   4    -0.413185164213E+03   -0.90152E-02   -0.28836E-02  5064   0.147E-01    0.542E-01
RMM:   5    -0.413169032495E+03    0.16132E-01   -0.77688E-03  4635   0.900E-02    0.444E-02
RMM:   6    -0.413169097336E+03   -0.64841E-04   -0.12944E-03  5546   0.341E-02    0.298E-02
RMM:   7    -0.413169090028E+03    0.73084E-05   -0.23242E-04  5478   0.152E-02    0.192E-02
RMM:   8    -0.413169080247E+03    0.97809E-05   -0.33485E-05  4739   0.711E-03    0.638E-03
RMM:   9    -0.413169077295E+03    0.29521E-05   -0.57085E-06  2909   0.284E-03    0.361E-03
RMM:  10    -0.413169074110E+03    0.31847E-05   -0.12940E-06  2512   0.180E-03    0.220E-03
RMM:  11    -0.413169071241E+03    0.28694E-05   -0.70232E-07  2365   0.128E-03    0.111E-03
RMM:  12    -0.413169065864E+03    0.53769E-05   -0.77931E-07  2442   0.124E-03    0.611E-04
RMM:  13    -0.413169061370E+03    0.44933E-05   -0.37599E-07  1855   0.922E-04    0.404E-04
RMM:  14    -0.413169059291E+03    0.20795E-05   -0.16334E-07  1311   0.712E-04    0.218E-04
RMM:  15    -0.413169052668E+03    0.66228E-05   -0.26975E-07  1746   0.814E-04    0.391E-04
RMM:  16    -0.413169046724E+03    0.59444E-05   -0.19621E-07  1352   0.682E-04    0.269E-04
RMM:  17    -0.413169045705E+03    0.10191E-05   -0.67702E-08   880   0.543E-04    0.203E-04
RMM:  18    -0.413169043773E+03    0.19319E-05   -0.55502E-08   926   0.559E-04    0.872E-05
RMM:  19    -0.413169042499E+03    0.12736E-05   -0.46302E-08   943   0.566E-04    0.681E-05
RMM:  20    -0.413169042500E+03   -0.69485E-09   -0.13792E-08   650   0.517E-04
   16 T=    61. E= -.41286714E+03 F= -.41316904E+03 E0= -.41314685E+03  EK= 0.30191E+00 SP= 0.00E+00 SK= 0.00E+00
       N       E                     dE             d eps       ncg     rms          rms(c)
RMM:   1    -0.413180011779E+03   -0.10969E-01   -0.60505E+00  4294   0.540E-01    0.916E-01
RMM:   2    -0.413176672869E+03    0.33389E-02   -0.79800E-02  4274   0.759E-02    0.661E-01
RMM:   3    -0.413174595863E+03    0.20770E-02   -0.52591E-02  5054   0.874E-02    0.345E-01
RMM:   4    -0.413189044210E+03   -0.14448E-01   -0.29073E-02  5065   0.146E-01    0.594E-01
RMM:   5    -0.413169402376E+03    0.19642E-01   -0.97476E-03  4683   0.986E-02    0.439E-02
RMM:   6    -0.413169511497E+03   -0.10912E-03   -0.16057E-03  5629   0.381E-02    0.304E-02
RMM:   7    -0.413169514176E+03   -0.26789E-05   -0.27900E-04  5469   0.165E-02    0.204E-02
RMM:   8    -0.413169509659E+03    0.45173E-05   -0.39576E-05  4817   0.767E-03    0.731E-03
RMM:   9    -0.413169508504E+03    0.11548E-05   -0.78226E-06  3126   0.324E-03    0.434E-03
RMM:  10    -0.413169508211E+03    0.29273E-06   -0.14003E-06  2525   0.194E-03
   17 T=    62. E= -.41286696E+03 F= -.41316951E+03 E0= -.41314735E+03  EK= 0.30255E+00 SP= 0.00E+00 SK= 0.00E+00
       N       E                     dE             d eps       ncg     rms          rms(c)
RMM:   1    -0.413180327311E+03   -0.10819E-01   -0.61592E+00  4298   0.548E-01    0.916E-01
RMM:   2    -0.413177415316E+03    0.29120E-02   -0.80505E-02  4289   0.767E-02    0.669E-01
RMM:   3    -0.413178823494E+03   -0.14082E-02   -0.57925E-02  5102   0.105E-01    0.443E-01
RMM:   4    -0.413184180228E+03   -0.53567E-02   -0.28212E-02  5036   0.146E-01    0.524E-01
RMM:   5    -0.413169921169E+03    0.14259E-01   -0.79237E-03  4581   0.867E-02    0.431E-02
RMM:   6    -0.413169982413E+03   -0.61245E-04   -0.11547E-03  5450   0.316E-02    0.280E-02
RMM:   7    -0.413169978092E+03    0.43219E-05   -0.21007E-04  5364   0.142E-02    0.178E-02
RMM:   8    -0.413169976097E+03    0.19951E-05   -0.29086E-05  4558   0.677E-03    0.556E-03
RMM:   9    -0.413169977075E+03   -0.97861E-06   -0.46692E-06  2825   0.263E-03
   18 T=    62. E= -.41286678E+03 F= -.41316998E+03 E0= -.41314786E+03  EK= 0.30320E+00 SP= 0.00E+00 SK= 0.00E+00
       N       E                     dE             d eps       ncg     rms          rms(c)
RMM:   1    -0.413182109447E+03   -0.12133E-01   -0.61230E+00  4294   0.546E-01    0.933E-01
RMM:   2    -0.413178311511E+03    0.37979E-02   -0.80849E-02  4294   0.755E-02    0.669E-01
RMM:   3    -0.413179834907E+03   -0.15234E-02   -0.54154E-02  5125   0.101E-01    0.420E-01
RMM:   4    -0.413185664322E+03   -0.58294E-02   -0.28830E-02  5047   0.148E-01    0.517E-01
RMM:   5    -0.413171207472E+03    0.14457E-01   -0.71111E-03  4587   0.862E-02    0.443E-02
RMM:   6    -0.413171264986E+03   -0.57514E-04   -0.11488E-03  5447   0.320E-02    0.292E-02
RMM:   7    -0.413171259564E+03    0.54218E-05   -0.21249E-04  5399   0.147E-02    0.185E-02
RMM:   8    -0.413171253326E+03    0.62384E-05   -0.30925E-05  4639   0.708E-03    0.591E-03
RMM:   9    -0.413171250410E+03    0.29156E-05   -0.52585E-06  2845   0.273E-03    0.335E-03
RMM:  10    -0.413171247360E+03    0.30504E-05   -0.12189E-06  2514   0.174E-03    0.202E-03
RMM:  11    -0.413171244611E+03    0.27489E-05   -0.66022E-07  2313   0.123E-03    0.100E-03
RMM:  12    -0.413171239495E+03    0.51166E-05   -0.70167E-07  2404   0.118E-03    0.559E-04
RMM:  13    -0.413171235143E+03    0.43516E-05   -0.33193E-07  1743   0.870E-04    0.363E-04
RMM:  14    -0.413171232486E+03    0.26567E-05   -0.15923E-07  1244   0.694E-04    0.194E-04
RMM:  15    -0.413171226156E+03    0.63302E-05   -0.21825E-07  1540   0.760E-04    0.314E-04
RMM:  16    -0.413171219503E+03    0.66532E-05   -0.18866E-07  1294   0.681E-04    0.213E-04
RMM:  17    -0.413171218405E+03    0.10981E-05   -0.59666E-08   861   0.553E-04    0.155E-04
RMM:  18    -0.413171216332E+03    0.20732E-05   -0.47586E-08   913   0.563E-04    0.687E-05
RMM:  19    -0.413171215069E+03    0.12621E-05   -0.34962E-08   866   0.556E-04    0.398E-05
RMM:  20    -0.413171214961E+03    0.10842E-06   -0.11838E-08   632   0.517E-04
   19 T=    62. E= -.41286715E+03 F= -.41317121E+03 E0= -.41314914E+03  EK= 0.30406E+00 SP= 0.00E+00 SK= 0.00E+00
       N       E                     dE             d eps       ncg     rms          rms(c)
RMM:   1    -0.413184019428E+03   -0.12804E-01   -0.61124E+00  4293   0.578E-01    0.920E-01
RMM:   2    -0.413178686354E+03    0.53331E-02   -0.85866E-02  4277   0.788E-02    0.665E-01
RMM:   3    -0.413176224005E+03    0.24623E-02   -0.50077E-02  5085   0.817E-02    0.323E-01
RMM:   4    -0.413194105686E+03   -0.17882E-01   -0.32092E-02  5085   0.153E-01    0.630E-01
RMM:   5    -0.413171515590E+03    0.22590E-01   -0.10782E-02  4700   0.105E-01    0.455E-02
RMM:   6    -0.413171643311E+03   -0.12772E-03   -0.17989E-03  5631   0.412E-02    0.310E-02
RMM:   7    -0.413171645914E+03   -0.26038E-05   -0.30208E-04  5554   0.169E-02    0.212E-02
RMM:   8    -0.413171643124E+03    0.27903E-05   -0.44411E-05  4931   0.820E-03    0.795E-03
RMM:   9    -0.413171640978E+03    0.21461E-05   -0.92870E-06  3272   0.352E-03    0.460E-03
RMM:  10    -0.413171639493E+03    0.14850E-05   -0.15794E-06  2535   0.203E-03    0.282E-03
RMM:  11    -0.413171637890E+03    0.16035E-05   -0.84136E-07  2487   0.142E-03    0.146E-03
RMM:  12    -0.413171634634E+03    0.32551E-05   -0.96040E-07  2495   0.143E-03    0.776E-04
RMM:  13    -0.413171632367E+03    0.22674E-05   -0.38867E-07  2080   0.101E-03    0.510E-04
RMM:  14    -0.413171631578E+03    0.78919E-06   -0.17860E-07  1482   0.739E-04
   20 T=    62. E= -.41286695E+03 F= -.41317163E+03 E0= -.41314960E+03  EK= 0.30468E+00 SP= 0.00E+00 SK= 0.00E+00
       N       E                     dE             d eps       ncg     rms          rms(c)
RMM:   1    -0.413183107031E+03   -0.11475E-01   -0.61933E+00  4292   0.561E-01    0.916E-01
RMM:   2    -0.413180016686E+03    0.30903E-02   -0.80783E-02  4282   0.748E-02    0.669E-01
RMM:   3    -0.413177706195E+03    0.23105E-02   -0.55213E-02  5081   0.828E-02    0.357E-01
RMM:   4    -0.413193039006E+03   -0.15333E-01   -0.29254E-02  5072   0.146E-01    0.606E-01
RMM:   5    -0.413172666773E+03    0.20372E-01   -0.10527E-02  4686   0.101E-01    0.438E-02
RMM:   6    -0.413172786183E+03   -0.11941E-03   -0.16709E-03  5652   0.391E-02    0.297E-02
RMM:   7    -0.413172788053E+03   -0.18699E-05   -0.28787E-04  5525   0.164E-02    0.202E-02
RMM:   8    -0.413172785535E+03    0.25185E-05   -0.39422E-05  4834   0.781E-03    0.737E-03
RMM:   9    -0.413172785578E+03   -0.42943E-07   -0.80180E-06  3163   0.342E-03
   21 T=    62. E= -.41286719E+03 F= -.41317279E+03 E0= -.41315080E+03  EK= 0.30560E+00 SP= 0.00E+00 SK= 0.00E+00
       N       E                     dE             d eps       ncg     rms          rms(c)
RMM:   1    -0.413185077365E+03   -0.12292E-01   -0.61910E+00  4300   0.568E-01    0.932E-01
RMM:   2    -0.413181015398E+03    0.40620E-02   -0.81417E-02  4336   0.762E-02    0.672E-01
RMM:   3    -0.413185936814E+03   -0.49214E-02   -0.57166E-02  5144   0.115E-01    0.486E-01
RMM:   4    -0.413185578370E+03    0.35844E-03   -0.29057E-02  5022   0.150E-01    0.473E-01
RMM:   5    -0.413173886787E+03    0.11692E-01   -0.61325E-03  4516   0.799E-02    0.435E-02
RMM:   6    -0.413173915045E+03   -0.28258E-04   -0.89619E-04  5340   0.284E-02    0.286E-02
RMM:   7    -0.413173922455E+03   -0.74102E-05   -0.18246E-04  5230   0.139E-02    0.175E-02
RMM:   8    -0.413173920911E+03    0.15435E-05   -0.28049E-05  4482   0.711E-03    0.521E-03
RMM:   9    -0.413173918961E+03    0.19500E-05   -0.41014E-06  2733   0.249E-03    0.293E-03
RMM:  10    -0.413173916734E+03    0.22272E-05   -0.10303E-06  2488   0.158E-03    0.171E-03
RMM:  11    -0.413173914378E+03    0.23566E-05   -0.58816E-07  2117   0.113E-03    0.818E-04
RMM:  12    -0.413173910035E+03    0.43422E-05   -0.60278E-07  2251   0.108E-03    0.476E-04
RMM:  13    -0.413173905664E+03    0.43713E-05   -0.30522E-07  1548   0.808E-04    0.292E-04
RMM:  14    -0.413173902600E+03    0.30641E-05   -0.15880E-07  1175   0.675E-04    0.166E-04
RMM:  15    -0.413173896551E+03    0.60495E-05   -0.18928E-07  1266   0.713E-04    0.249E-04
RMM:  16    -0.413173890736E+03    0.58146E-05   -0.14829E-07  1177   0.660E-04    0.155E-04
RMM:  17    -0.413173889578E+03    0.11580E-05   -0.58403E-08   838   0.562E-04    0.116E-04
RMM:  18    -0.413173887654E+03    0.19240E-05   -0.45541E-08   895   0.561E-04    0.538E-05
RMM:  19    -0.413173886494E+03    0.11604E-05   -0.31098E-08   815   0.541E-04    0.216E-05
RMM:  20    -0.413173886189E+03    0.30424E-06   -0.13782E-08   632   0.511E-04
   22 T=    62. E= -.41286733E+03 F= -.41317389E+03 E0= -.41315194E+03  EK= 0.30656E+00 SP= 0.00E+00 SK= 0.00E+00
       N       E                     dE             d eps       ncg     rms          rms(c)
RMM:   1    -0.413185499247E+03   -0.11613E-01   -0.61615E+00  4292   0.564E-01    0.931E-01
RMM:   2    -0.413181705265E+03    0.37940E-02   -0.81538E-02  4292   0.773E-02    0.668E-01
RMM:   3    -0.413179055280E+03    0.26500E-02   -0.50951E-02  5043   0.839E-02    0.319E-01
RMM:   4    -0.413196172450E+03   -0.17117E-01   -0.30241E-02  5078   0.149E-01    0.617E-01
RMM:   5    -0.413174549062E+03    0.21623E-01   -0.10402E-02  4709   0.103E-01    0.446E-02
RMM:   6    -0.413174677253E+03   -0.12819E-03   -0.17621E-03  5670   0.406E-02    0.315E-02
RMM:   7    -0.413174668545E+03    0.87075E-05   -0.30286E-04  5500   0.173E-02    0.214E-02
RMM:   8    -0.413174659805E+03    0.87400E-05   -0.43310E-05  4921   0.805E-03    0.819E-03
RMM:   9    -0.413174656817E+03    0.29886E-05   -0.92853E-06  3265   0.346E-03    0.481E-03
RMM:  10    -0.413174654410E+03    0.24063E-05   -0.14995E-06  2528   0.202E-03    0.293E-03
RMM:  11    -0.413174652059E+03    0.23511E-05   -0.84179E-07  2492   0.143E-03    0.154E-03
RMM:  12    -0.413174647497E+03    0.45623E-05   -0.10348E-06  2507   0.148E-03    0.808E-04
RMM:  13    -0.413174644148E+03    0.33491E-05   -0.42535E-07  2129   0.103E-03    0.548E-04
RMM:  14    -0.413174643631E+03    0.51667E-06   -0.17789E-07  1498   0.734E-04
   23 T=    63. E= -.41286709E+03 F= -.41317464E+03 E0= -.41315275E+03  EK= 0.30755E+00 SP= 0.00E+00 SK= 0.00E+00
       N       E                     dE             d eps       ncg     rms          rms(c)
RMM:   1    -0.413186626167E+03   -0.11982E-01   -0.62333E+00  4295   0.574E-01    0.918E-01
RMM:   2    -0.413183648747E+03    0.29774E-02   -0.81835E-02  4297   0.793E-02    0.670E-01
RMM:   3    -0.413180573794E+03    0.30750E-02   -0.54306E-02  5010   0.862E-02    0.335E-01
RMM:   4    -0.413198129205E+03   -0.17555E-01   -0.29327E-02  5080   0.147E-01    0.626E-01
RMM:   5    -0.413176111174E+03    0.22018E-01   -0.11173E-02  4718   0.106E-01    0.440E-02
RMM:   6    -0.413176233446E+03   -0.12227E-03   -0.18283E-03  5712   0.410E-02    0.303E-02
RMM:   7    -0.413176239378E+03   -0.59316E-05   -0.30772E-04  5509   0.174E-02    0.209E-02
RMM:   8    -0.413176237264E+03    0.21142E-05   -0.45001E-05  4839   0.843E-03    0.805E-03
RMM:   9    -0.413176236461E+03    0.80280E-06   -0.10428E-05  3318   0.366E-03    0.498E-03
RMM:  10    -0.413176236777E+03   -0.31647E-06   -0.15652E-06  2535   0.205E-03
   24 T=    63. E= -.41286729E+03 F= -.41317624E+03 E0= -.41315439E+03  EK= 0.30895E+00 SP= 0.00E+00 SK= 0.00E+00
       N       E                     dE             d eps       ncg     rms          rms(c)
RMM:   1    -0.413187993426E+03   -0.11757E-01   -0.62796E+00  4300   0.577E-01    0.932E-01
RMM:   2    -0.413184752594E+03    0.32408E-02   -0.82574E-02  4321   0.813E-02    0.676E-01
RMM:   3    -0.413185407328E+03   -0.65473E-03   -0.55781E-02  5073   0.105E-01    0.417E-01
RMM:   4    -0.413193214920E+03   -0.78076E-02   -0.29029E-02  5039   0.149E-01    0.544E-01
RMM:   5    -0.413177215451E+03    0.15999E-01   -0.79969E-03  4608   0.905E-02    0.440E-02
RMM:   6    -0.413177285861E+03   -0.70410E-04   -0.12950E-03  5557   0.338E-02    0.292E-02
RMM:   7    -0.413177283723E+03    0.21384E-05   -0.23558E-04  5413   0.152E-02    0.192E-02
RMM:   8    -0.413177278083E+03    0.56399E-05   -0.33686E-05  4709   0.730E-03    0.631E-03
RMM:   9    -0.413177276825E+03    0.12574E-05   -0.58903E-06  2924   0.288E-03    0.360E-03
RMM:  10    -0.413177275330E+03    0.14952E-05   -0.11795E-06  2510   0.176E-03    0.220E-03
RMM:  11    -0.413177273534E+03    0.17965E-05   -0.64783E-07  2344   0.124E-03    0.111E-03
RMM:  12    -0.413177269812E+03    0.37212E-05   -0.70431E-07  2427   0.120E-03    0.595E-04
RMM:  13    -0.413177266943E+03    0.28691E-05   -0.29415E-07  1789   0.866E-04    0.396E-04
RMM:  14    -0.413177264794E+03    0.21496E-05   -0.14819E-07  1269   0.692E-04    0.208E-04
RMM:  15    -0.413177259828E+03    0.49661E-05   -0.15929E-07  1357   0.712E-04    0.251E-04
RMM:  16    -0.413177253408E+03    0.64195E-05   -0.15721E-07  1266   0.675E-04    0.212E-04
RMM:  17    -0.413177251792E+03    0.16164E-05   -0.58147E-08   926   0.567E-04    0.154E-04
RMM:  18    -0.413177249093E+03    0.26990E-05   -0.45452E-08   938   0.571E-04    0.735E-05
RMM:  19    -0.413177247735E+03    0.13580E-05   -0.28705E-08   849   0.553E-04    0.248E-05
RMM:  20    -0.413177247363E+03    0.37159E-06   -0.12614E-08   681   0.526E-04
   25 T=    63. E= -.41286704E+03 F= -.41317725E+03 E0= -.41315545E+03  EK= 0.31021E+00 SP= 0.00E+00 SK= 0.00E+00
       N       E                     dE             d eps       ncg     rms          rms(c)
RMM:   1    -0.413189776384E+03   -0.12529E-01   -0.62547E+00  4293   0.579E-01    0.941E-01
RMM:   2    -0.413185815964E+03    0.39604E-02   -0.83135E-02  4301   0.795E-02    0.673E-01
RMM:   3    -0.413182572016E+03    0.32439E-02   -0.50570E-02  5018   0.856E-02    0.304E-01
RMM:   4    -0.413201734167E+03   -0.19162E-01   -0.30836E-02  5084   0.150E-01    0.637E-01
RMM:   5    -0.413178546523E+03    0.23188E-01   -0.11069E-02  4719   0.107E-01    0.452E-02
RMM:   6    -0.413178682263E+03   -0.13574E-03   -0.19214E-03  5733   0.419E-02    0.321E-02
RMM:   7    -0.413178677655E+03    0.46074E-05   -0.32032E-04  5511   0.178E-02    0.222E-02
RMM:   8    -0.413178671226E+03    0.64289E-05   -0.47213E-05  4931   0.845E-03    0.886E-03
RMM:   9    -0.413178667146E+03    0.40800E-05   -0.10371E-05  3403   0.372E-03    0.522E-03
RMM:  10    -0.413178663993E+03    0.31533E-05   -0.16310E-06  2536   0.211E-03    0.313E-03
RMM:  11    -0.413178661107E+03    0.28859E-05   -0.94118E-07  2503   0.151E-03    0.165E-03
RMM:  12    -0.413178655695E+03    0.54120E-05   -0.12046E-06  2512   0.159E-03    0.877E-04
RMM:  13    -0.413178652064E+03    0.36311E-05   -0.46173E-07  2193   0.107E-03    0.589E-04
RMM:  14    -0.413178651640E+03    0.42434E-06   -0.18853E-07  1537   0.750E-04
   26 T=    63. E= -.41286708E+03 F= -.41317865E+03 E0= -.41315690E+03  EK= 0.31157E+00 SP= 0.00E+00 SK= 0.00E+00
       N       E                     dE             d eps       ncg     rms          rms(c)
RMM:   1    -0.413190990977E+03   -0.12339E-01   -0.62914E+00  4293   0.589E-01    0.923E-01
RMM:   2    -0.413187911692E+03    0.30793E-02   -0.82908E-02  4291   0.808E-02    0.671E-01
RMM:   3    -0.413184196728E+03    0.37150E-02   -0.52983E-02  5018   0.811E-02    0.314E-01
RMM:   4    -0.413203666593E+03   -0.19470E-01   -0.29735E-02  5098   0.148E-01    0.640E-01
RMM:   5    -0.413180340427E+03    0.23326E-01   -0.11543E-02  4734   0.107E-01    0.443E-02
RMM:   6    -0.413180491747E+03   -0.15132E-03   -0.19414E-03  5765   0.418E-02    0.307E-02
RMM:   7    -0.413180496149E+03   -0.44016E-05   -0.31676E-04  5530   0.175E-02    0.215E-02
RMM:   8    -0.413180493841E+03    0.23078E-05   -0.48161E-05  4887   0.835E-03    0.887E-03
RMM:   9    -0.413180491666E+03    0.21745E-05   -0.10204E-05  3428   0.376E-03    0.539E-03
RMM:  10    -0.413180490764E+03    0.90213E-06   -0.16514E-06  2533   0.211E-03
   27 T=    64. E= -.41286740E+03 F= -.41318049E+03 E0= -.41315879E+03  EK= 0.31309E+00 SP= 0.00E+00 SK= 0.00E+00
       N       E                     dE             d eps       ncg     rms          rms(c)
RMM:   1    -0.413192523753E+03   -0.12032E-01   -0.63875E+00  4300   0.599E-01    0.933E-01
RMM:   2    -0.413189129047E+03    0.33947E-02   -0.85516E-02  4316   0.847E-02    0.680E-01
RMM:   3    -0.413189685114E+03   -0.55607E-03   -0.56526E-02  5106   0.102E-01    0.418E-01
RMM:   4    -0.413198727669E+03   -0.90426E-02   -0.30560E-02  5045   0.152E-01    0.564E-01
RMM:   5    -0.413181615247E+03    0.17112E-01   -0.86641E-03  4624   0.942E-02    0.446E-02
RMM:   6    -0.413181683608E+03   -0.68361E-04   -0.14013E-03  5609   0.349E-02    0.292E-02
RMM:   7    -0.413181683433E+03    0.17418E-06   -0.24424E-04  5423   0.155E-02    0.194E-02
RMM:   8    -0.413181681069E+03    0.23640E-05   -0.35317E-05  4715   0.762E-03    0.649E-03
RMM:   9    -0.413181679804E+03    0.12658E-05   -0.63795E-06  2979   0.305E-03    0.370E-03
RMM:  10    -0.413181678624E+03    0.11794E-05   -0.12760E-06  2520   0.182E-03    0.225E-03
RMM:  11    -0.413181677055E+03    0.15691E-05   -0.68878E-07  2364   0.128E-03    0.114E-03
RMM:  12    -0.413181673670E+03    0.33855E-05   -0.73340E-07  2432   0.123E-03    0.593E-04
RMM:  13    -0.413181671111E+03    0.25581E-05   -0.29950E-07  1819   0.879E-04    0.406E-04
RMM:  14    -0.413181669100E+03    0.20111E-05   -0.14836E-07  1273   0.695E-04    0.217E-04
RMM:  15    -0.413181664176E+03    0.49239E-05   -0.15923E-07  1361   0.715E-04    0.247E-04
RMM:  16    -0.413181657980E+03    0.61964E-05   -0.15356E-07  1268   0.675E-04    0.213E-04
RMM:  17    -0.413181656093E+03    0.18876E-05   -0.60249E-08   948   0.576E-04    0.158E-04
RMM:  18    -0.413181653229E+03    0.28634E-05   -0.48888E-08   992   0.579E-04    0.721E-05
RMM:  19    -0.413181651991E+03    0.12382E-05   -0.27051E-08   819   0.549E-04    0.265E-05
RMM:  20    -0.413181651495E+03    0.49646E-06   -0.15507E-08   717   0.533E-04
   28 T=    64. E= -.41286717E+03 F= -.41318165E+03 E0= -.41316000E+03  EK= 0.31448E+00 SP= 0.00E+00 SK= 0.00E+00
       N       E                     dE             d eps       ncg     rms          rms(c)
RMM:   1    -0.413194977003E+03   -0.13325E-01   -0.63594E+00  4293   0.599E-01    0.949E-01
RMM:   2    -0.413191022129E+03    0.39549E-02   -0.84851E-02  4291   0.848E-02    0.679E-01
RMM:   3    -0.413187051968E+03    0.39702E-02   -0.50376E-02  5033   0.781E-02    0.285E-01
RMM:   4    -0.413208367605E+03   -0.21316E-01   -0.31274E-02  5095   0.151E-01    0.656E-01
RMM:   5    -0.413183549080E+03    0.24819E-01   -0.11910E-02  4743   0.110E-01    0.455E-02
RMM:   6    -0.413183686759E+03   -0.13768E-03   -0.20855E-03  5778   0.433E-02    0.323E-02
RMM:   7    -0.413183691605E+03   -0.48462E-05   -0.33169E-04  5528   0.180E-02    0.225E-02
RMM:   8    -0.413183690844E+03    0.76149E-06   -0.52470E-05  4933   0.874E-03    0.974E-03
RMM:   9    -0.413183687297E+03    0.35474E-05   -0.11067E-05  3532   0.399E-03    0.577E-03
RMM:  10    -0.413183684176E+03    0.31200E-05   -0.19311E-06  2561   0.226E-03    0.342E-03
RMM:  11    -0.413183681133E+03    0.30438E-05   -0.10536E-06  2501   0.161E-03    0.179E-03
RMM:  12    -0.413183675661E+03    0.54716E-05   -0.13773E-06  2533   0.170E-03    0.995E-04
RMM:  13    -0.413183672544E+03    0.31166E-05   -0.46351E-07  2234   0.113E-03    0.661E-04
RMM:  14    -0.413183671868E+03    0.67654E-06   -0.20107E-07  1614   0.780E-04
   29 T=    64. E= -.41286741E+03 F= -.41318367E+03 E0= -.41316207E+03  EK= 0.31626E+00 SP= 0.00E+00 SK= 0.00E+00
       N       E                     dE             d eps       ncg     rms          rms(c)
RMM:   1    -0.413196407650E+03   -0.12735E-01   -0.63721E+00  4296   0.613E-01    0.930E-01
RMM:   2    -0.413193164805E+03    0.32428E-02   -0.84774E-02  4281   0.879E-02    0.675E-01
RMM:   3    -0.413188507439E+03    0.46574E-02   -0.51769E-02  4973   0.776E-02    0.285E-01
RMM:   4    -0.413209891072E+03   -0.21384E-01   -0.29364E-02  5109   0.146E-01    0.652E-01
RMM:   5    -0.413185424170E+03    0.24467E-01   -0.12077E-02  4750   0.110E-01    0.443E-02
RMM:   6    -0.413185572963E+03   -0.14879E-03   -0.20875E-03  5830   0.431E-02    0.309E-02
RMM:   7    -0.413185588612E+03   -0.15649E-04   -0.31313E-04  5551   0.178E-02    0.215E-02
RMM:   8    -0.413185586033E+03    0.25792E-05   -0.54501E-05  4867   0.896E-03    0.987E-03
RMM:   9    -0.413185583268E+03    0.27650E-05   -0.12193E-05  3615   0.420E-03    0.608E-03
RMM:  10    -0.413185581155E+03    0.21130E-05   -0.20825E-06  2579   0.236E-03    0.358E-03
RMM:  11    -0.413185578458E+03    0.26970E-05   -0.12051E-06  2506   0.174E-03    0.179E-03
RMM:  12    -0.413185574104E+03    0.43540E-05   -0.13362E-06  2522   0.171E-03    0.105E-03
RMM:  13    -0.413185571801E+03    0.23027E-05   -0.41852E-07  2220   0.111E-03    0.642E-04
RMM:  14    -0.413185570888E+03    0.91299E-06   -0.19242E-07  1592   0.771E-04
   30 T=    65. E= -.41286746E+03 F= -.41318557E+03 E0= -.41316402E+03  EK= 0.31811E+00 SP= 0.00E+00 SK= 0.00E+00
       N       E                     dE             d eps       ncg     rms          rms(c)
RMM:   1    -0.413197969128E+03   -0.12397E-01   -0.65016E+00  4300   0.622E-01    0.936E-01
RMM:   2    -0.413195244375E+03    0.27248E-02   -0.86700E-02  4285   0.946E-02    0.685E-01
RMM:   3    -0.413190152705E+03    0.50917E-02   -0.54745E-02  4923   0.825E-02    0.300E-01
RMM:   4    -0.413210821044E+03   -0.20668E-01   -0.28160E-02  5109   0.143E-01    0.645E-01
RMM:   5    -0.413186995232E+03    0.23826E-01   -0.11930E-02  4757   0.108E-01    0.436E-02
RMM:   6    -0.413187139335E+03   -0.14410E-03   -0.20045E-03  5832   0.423E-02    0.298E-02
RMM:   7    -0.413187152700E+03   -0.13365E-04   -0.29401E-04  5567   0.171E-02    0.205E-02
RMM:   8    -0.413187154291E+03   -0.15907E-05   -0.53643E-05  4900   0.847E-03    0.942E-03
RMM:   9    -0.413187152734E+03    0.15567E-05   -0.10738E-05  3601   0.402E-03    0.586E-03
RMM:  10    -0.413187152610E+03    0.12393E-06   -0.19242E-06  2558   0.225E-03
   31 T=    65. E= -.41286718E+03 F= -.41318715E+03 E0= -.41316565E+03  EK= 0.31997E+00 SP= 0.00E+00 SK= 0.00E+00
       N       E                     dE             d eps       ncg     rms          rms(c)
RMM:   1    -0.413201646004E+03   -0.14493E-01   -0.64894E+00  4301   0.649E-01    0.955E-01
RMM:   2    -0.413197519635E+03    0.41264E-02   -0.88519E-02  4300   0.101E-01    0.686E-01
RMM:   3    -0.413196268498E+03    0.12511E-02   -0.52866E-02  5036   0.106E-01    0.369E-01
RMM:   4    -0.413209865175E+03   -0.13597E-01   -0.32067E-02  5054   0.155E-01    0.599E-01
RMM:   5    -0.413189625885E+03    0.20239E-01   -0.93669E-03  4662   0.996E-02    0.460E-02
RMM:   6    -0.413189729123E+03   -0.10324E-03   -0.16822E-03  5680   0.386E-02    0.317E-02
RMM:   7    -0.413189736227E+03   -0.71041E-05   -0.28748E-04  5452   0.169E-02    0.215E-02
RMM:   8    -0.413189732580E+03    0.36475E-05   -0.41745E-05  4879   0.810E-03    0.796E-03
RMM:   9    -0.413189728116E+03    0.44637E-05   -0.86871E-06  3145   0.345E-03    0.431E-03
RMM:  10    -0.413189723642E+03    0.44740E-05   -0.15318E-06  2531   0.204E-03    0.264E-03
RMM:  11    -0.413189719301E+03    0.43411E-05   -0.82368E-07  2463   0.142E-03    0.138E-03
RMM:  12    -0.413189711671E+03    0.76304E-05   -0.88185E-07  2477   0.138E-03    0.688E-04
RMM:  13    -0.413189707747E+03    0.39241E-05   -0.36606E-07  2015   0.976E-04    0.505E-04
RMM:  14    -0.413189705022E+03    0.27243E-05   -0.18090E-07  1495   0.744E-04    0.287E-04
RMM:  15    -0.413189697604E+03    0.74184E-05   -0.17154E-07  1534   0.742E-04    0.291E-04
RMM:  16    -0.413189689692E+03    0.79118E-05   -0.12710E-07  1242   0.661E-04    0.254E-04
RMM:  17    -0.413189685870E+03    0.38224E-05   -0.70605E-08  1025   0.587E-04    0.179E-04
RMM:  18    -0.413189681924E+03    0.39458E-05   -0.59262E-08  1088   0.597E-04    0.496E-05
RMM:  19    -0.413189680825E+03    0.10985E-05   -0.30302E-08   874   0.551E-04    0.428E-05
RMM:  20    -0.413189680481E+03    0.34477E-06   -0.17693E-08   761   0.528E-04
   32 T=    66. E= -.41286742E+03 F= -.41318968E+03 E0= -.41316823E+03  EK= 0.32226E+00 SP= 0.00E+00 SK= 0.00E+00
       N       E                     dE             d eps       ncg     rms          rms(c)
RMM:   1    -0.413204368001E+03   -0.14687E-01   -0.65021E+00  4297   0.681E-01    0.941E-01
RMM:   2    -0.413199298596E+03    0.50694E-02   -0.92377E-02  4275   0.105E-01    0.682E-01
RMM:   3    -0.413193865738E+03    0.54329E-02   -0.49922E-02  4852   0.867E-02    0.253E-01
RMM:   4    -0.413217194024E+03   -0.23328E-01   -0.29066E-02  5117   0.146E-01    0.667E-01
RMM:   5    -0.413191295369E+03    0.25899E-01   -0.12707E-02  4773   0.112E-01    0.446E-02
RMM:   6    -0.413191473412E+03   -0.17804E-03   -0.21933E-03  5822   0.444E-02    0.313E-02
RMM:   7    -0.413191495951E+03   -0.22539E-04   -0.29938E-04  5562   0.178E-02    0.206E-02
RMM:   8    -0.413191496753E+03   -0.80241E-06   -0.61330E-05  4925   0.896E-03    0.105E-02
RMM:   9    -0.413191492798E+03    0.39548E-05   -0.12820E-05  3837   0.435E-03    0.658E-03
RMM:  10    -0.413191490811E+03    0.19872E-05   -0.22359E-06  2596   0.249E-03    0.388E-03
RMM:  11    -0.413191488184E+03    0.26265E-05   -0.13887E-06  2520   0.185E-03    0.198E-03
RMM:  12    -0.413191483857E+03    0.43271E-05   -0.14548E-06  2522   0.184E-03    0.114E-03
RMM:  13    -0.413191481706E+03    0.21507E-05   -0.44290E-07  2279   0.117E-03    0.711E-04
RMM:  14    -0.413191480874E+03    0.83290E-06   -0.20222E-07  1703   0.792E-04
   33 T=    66. E= -.41286711E+03 F= -.41319148E+03 E0= -.41317008E+03  EK= 0.32437E+00 SP= 0.00E+00 SK= 0.00E+00
       N       E                     dE             d eps       ncg     rms          rms(c)
RMM:   1    -0.413204934046E+03   -0.13452E-01   -0.66241E+00  4306   0.660E-01    0.941E-01
RMM:   2    -0.413201750750E+03    0.31833E-02   -0.90724E-02  4274   0.104E-01    0.690E-01
RMM:   3    -0.413196037407E+03    0.57133E-02   -0.54505E-02  4725   0.859E-02    0.273E-01
RMM:   4    -0.413212408782E+03   -0.16371E-01   -0.20782E-02  5119   0.124E-01    0.570E-01
RMM:   5    -0.413193710250E+03    0.18699E-01   -0.92872E-03  4790   0.955E-02    0.408E-02
RMM:   6    -0.413193831045E+03   -0.12079E-03   -0.16022E-03  5827   0.374E-02    0.274E-02
RMM:   7    -0.413193848844E+03   -0.17799E-04   -0.17574E-04  5460   0.146E-02    0.146E-02
RMM:   8    -0.413193851043E+03   -0.21992E-05   -0.36533E-05  4755   0.657E-03    0.826E-03
RMM:   9    -0.413193849108E+03    0.19351E-05   -0.97380E-06  3624   0.355E-03    0.583E-03
RMM:  10    -0.413193849233E+03   -0.12525E-06   -0.17119E-06  2546   0.226E-03
   34 T=    66. E= -.41286725E+03 F= -.41319385E+03 E0= -.41317249E+03  EK= 0.32660E+00 SP= 0.00E+00 SK= 0.00E+00
       N       E                     dE             d eps       ncg     rms          rms(c)
RMM:   1    -0.413209460795E+03   -0.15612E-01   -0.66418E+00  4305   0.680E-01    0.962E-01
RMM:   2    -0.413203987145E+03    0.54736E-02   -0.91194E-02  4286   0.114E-01    0.693E-01
RMM:   3    -0.413200139634E+03    0.38475E-02   -0.51897E-02  4894   0.102E-01    0.292E-01
RMM:   4    -0.413223092924E+03   -0.22953E-01   -0.32755E-02  5093   0.155E-01    0.679E-01
RMM:   5    -0.413196433853E+03    0.26659E-01   -0.12877E-02  4749   0.114E-01    0.466E-02
RMM:   6    -0.413196598194E+03   -0.16434E-03   -0.22980E-03  5765   0.449E-02    0.331E-02
RMM:   7    -0.413196610816E+03   -0.12622E-04   -0.35407E-04  5545   0.183E-02    0.229E-02
RMM:   8    -0.413196609517E+03    0.12987E-05   -0.55314E-05  4961   0.904E-03    0.990E-03
RMM:   9    -0.413196605335E+03    0.41815E-05   -0.12165E-05  3639   0.428E-03    0.582E-03
RMM:  10    -0.413196601405E+03    0.39306E-05   -0.22214E-06  2612   0.244E-03    0.351E-03
RMM:  11    -0.413196597332E+03    0.40733E-05   -0.10953E-06  2507   0.166E-03    0.187E-03
RMM:  12    -0.413196589772E+03    0.75594E-05   -0.12874E-06  2502   0.176E-03    0.100E-03
RMM:  13    -0.413196585936E+03    0.38367E-05   -0.46785E-07  2296   0.117E-03    0.731E-04
RMM:  14    -0.413196584439E+03    0.14970E-05   -0.20949E-07  1714   0.800E-04    0.429E-04
RMM:  15    -0.413196577609E+03    0.68299E-05   -0.18664E-07  1734   0.779E-04    0.333E-04
RMM:  16    -0.413196570822E+03    0.67871E-05   -0.13310E-07  1458   0.681E-04    0.417E-04
RMM:  17    -0.413196564754E+03    0.60673E-05   -0.83979E-08  1105   0.601E-04    0.351E-04
RMM:  18    -0.413196560730E+03    0.40246E-05   -0.60748E-08  1036   0.583E-04    0.101E-04
RMM:  19    -0.413196558823E+03    0.19067E-05   -0.43246E-08  1041   0.578E-04    0.843E-05
RMM:  20    -0.413196558448E+03    0.37477E-06   -0.16790E-08   724   0.524E-04
   35 T=    67. E= -.41286762E+03 F= -.41319656E+03 E0= -.41317525E+03  EK= 0.32893E+00 SP= 0.00E+00 SK= 0.00E+00
       N       E                     dE             d eps       ncg     rms          rms(c)
RMM:   1    -0.413210113187E+03   -0.13554E-01   -0.66237E+00  4306   0.698E-01    0.958E-01
RMM:   2    -0.413205953232E+03    0.41600E-02   -0.91256E-02  4267   0.118E-01    0.690E-01
RMM:   3    -0.413199813400E+03    0.61398E-02   -0.50697E-02  4456   0.923E-02    0.211E-01
RMM:   4    -0.413204230260E+03   -0.44169E-02   -0.69658E-03  5119   0.726E-02    0.318E-01
RMM:   5    -0.413198562182E+03    0.56681E-02   -0.28263E-03  4793   0.526E-02    0.374E-02
RMM:   6    -0.413198622217E+03   -0.60034E-04   -0.69877E-04  5682   0.252E-02    0.304E-02
RMM:   7    -0.413198630585E+03   -0.83679E-05   -0.21275E-04  5180   0.158E-02    0.196E-02
RMM:   8    -0.413198620003E+03    0.10581E-04   -0.24824E-05  4310   0.608E-03    0.677E-03
RMM:   9    -0.413198618508E+03    0.14953E-05   -0.40328E-06  2733   0.252E-03    0.379E-03
RMM:  10    -0.413198615542E+03    0.29658E-05   -0.12983E-06  2505   0.187E-03    0.190E-03
RMM:  11    -0.413198612129E+03    0.34129E-05   -0.76624E-07  2419   0.140E-03    0.920E-04
RMM:  12    -0.413198608727E+03    0.34024E-05   -0.40710E-07  2090   0.103E-03    0.491E-04
RMM:  13    -0.413198606256E+03    0.24707E-05   -0.19202E-07  1525   0.768E-04    0.262E-04
RMM:  14    -0.413198602113E+03    0.41427E-05   -0.12516E-07  1179   0.687E-04    0.207E-04
RMM:  15    -0.413198595888E+03    0.62250E-05   -0.10687E-07  1126   0.669E-04    0.113E-04
RMM:  16    -0.413198592693E+03    0.31957E-05   -0.63443E-08  1040   0.620E-04    0.103E-04
RMM:  17    -0.413198587198E+03    0.54948E-05   -0.68269E-08  1234   0.629E-04    0.657E-05
RMM:  18    -0.413198585156E+03    0.20419E-05   -0.32669E-08   901   0.554E-04    0.367E-05
RMM:  19    -0.413198584230E+03    0.92611E-06   -0.18294E-08   733   0.525E-04
   36 T=    67. E= -.41286741E+03 F= -.41319858E+03 E0= -.41317732E+03  EK= 0.33117E+00 SP= 0.00E+00 SK= 0.00E+00
       N       E                     dE             d eps       ncg     rms          rms(c)
RMM:   1    -0.413213361786E+03   -0.14777E-01   -0.67463E+00  4312   0.718E-01    0.947E-01
RMM:   2    -0.413209402517E+03    0.39593E-02   -0.95879E-02  4265   0.121E-01    0.695E-01
RMM:   3    -0.413203062778E+03    0.63397E-02   -0.53630E-02  4347   0.952E-02    0.236E-01
RMM:   4    -0.413201821051E+03    0.12417E-02   -0.26161E-03  4744   0.318E-02    0.598E-02
RMM:   5    -0.413201734671E+03    0.86380E-04   -0.20511E-04  4775   0.129E-02    0.405E-02
RMM:   6    -0.413201750756E+03   -0.16085E-04   -0.31590E-04  5146   0.168E-02    0.302E-02
RMM:   7    -0.413201757533E+03   -0.67774E-05   -0.14936E-04  4743   0.137E-02    0.208E-02
RMM:   8    -0.413201748734E+03    0.87992E-05   -0.29495E-05  4211   0.515E-03    0.528E-03
RMM:   9    -0.413201749731E+03   -0.99740E-06   -0.73511E-06  2414   0.222E-03
   37 T=    68. E= -.41286784E+03 F= -.41320175E+03 E0= -.41318053E+03  EK= 0.33391E+00 SP= 0.00E+00 SK= 0.00E+00
       N       E                     dE             d eps       ncg     rms          rms(c)
RMM:   1    -0.413216367258E+03   -0.14619E-01   -0.68025E+00  4311   0.741E-01    0.966E-01
RMM:   2    -0.413212280148E+03    0.40871E-02   -0.95249E-02  4266   0.115E-01    0.701E-01
RMM:   3    -0.413205660106E+03    0.66200E-02   -0.52622E-02  4448   0.880E-02    0.223E-01
RMM:   4    -0.413207168488E+03   -0.15084E-02   -0.48094E-03  5103   0.574E-02    0.227E-01
RMM:   5    -0.413204355876E+03    0.28126E-02   -0.14287E-03  4788   0.384E-02    0.381E-02
RMM:   6    -0.413204369600E+03   -0.13724E-04   -0.47166E-04  5463   0.219E-02    0.306E-02
RMM:   7    -0.413204383114E+03   -0.13514E-04   -0.18575E-04  5019   0.148E-02    0.198E-02
RMM:   8    -0.413204374905E+03    0.82097E-05   -0.29240E-05  4760   0.620E-03    0.726E-03
RMM:   9    -0.413204374005E+03    0.89936E-06   -0.63004E-06  2631   0.246E-03
   38 T=    69. E= -.41286777E+03 F= -.41320437E+03 E0= -.41318320E+03  EK= 0.33660E+00 SP= 0.00E+00 SK= 0.00E+00
       N       E                     dE             d eps       ncg     rms          rms(c)
RMM:   1    -0.413219478905E+03   -0.15104E-01   -0.68027E+00  4310   0.779E-01    0.974E-01
RMM:   2    -0.413214813322E+03    0.46656E-02   -0.95862E-02  4266   0.113E-01    0.699E-01
RMM:   3    -0.413208285134E+03    0.65282E-02   -0.50199E-02  4568   0.839E-02    0.200E-01
RMM:   4    -0.413215662501E+03   -0.73774E-02   -0.98874E-03  5135   0.854E-02    0.392E-01
RMM:   5    -0.413207066296E+03    0.85962E-02   -0.43083E-03  4812   0.653E-02    0.405E-02
RMM:   6    -0.413207077841E+03   -0.11545E-04   -0.87615E-04  5643   0.295E-02    0.314E-02
RMM:   7    -0.413207087663E+03   -0.98218E-05   -0.24598E-04  5304   0.162E-02    0.202E-02
RMM:   8    -0.413207076135E+03    0.11528E-04   -0.39082E-05  5081   0.732E-03    0.877E-03
RMM:   9    -0.413207073079E+03    0.30560E-05   -0.71082E-06  2910   0.296E-03    0.380E-03
RMM:  10    -0.413207067039E+03    0.60394E-05   -0.15258E-06  2518   0.194E-03    0.205E-03
RMM:  11    -0.413207059432E+03    0.76074E-05   -0.83097E-07  2459   0.142E-03    0.988E-04
RMM:  12    -0.413207053209E+03    0.62227E-05   -0.43151E-07  2161   0.105E-03    0.545E-04
RMM:  13    -0.413207047731E+03    0.54783E-05   -0.22031E-07  1624   0.801E-04    0.310E-04
RMM:  14    -0.413207041078E+03    0.66528E-05   -0.14984E-07  1313   0.714E-04    0.224E-04
RMM:  15    -0.413207028434E+03    0.12644E-04   -0.17225E-07  1559   0.743E-04    0.198E-04
RMM:  16    -0.413207023235E+03    0.51998E-05   -0.82790E-08  1169   0.619E-04    0.158E-04
RMM:  17    -0.413207018207E+03    0.50280E-05   -0.63511E-08  1167   0.606E-04    0.671E-05
RMM:  18    -0.413207015336E+03    0.28708E-05   -0.43214E-08  1002   0.563E-04    0.451E-05
RMM:  19    -0.413207014837E+03    0.49917E-06   -0.22190E-08   759   0.520E-04
   39 T=    69. E= -.41286758E+03 F= -.41320701E+03 E0= -.41318587E+03  EK= 0.33943E+00 SP= 0.00E+00 SK= 0.00E+00
       N       E                     dE             d eps       ncg     rms          rms(c)
RMM:   1    -0.413223235287E+03   -0.16220E-01   -0.68929E+00  4313   0.812E-01    0.958E-01
RMM:   2    -0.413218458468E+03    0.47768E-02   -0.99144E-02  4262   0.115E-01    0.701E-01
RMM:   3    -0.413212294201E+03    0.61643E-02   -0.53059E-02  4740   0.898E-02    0.246E-01
RMM:   4    -0.413231985433E+03   -0.19691E-01   -0.24035E-02  5117   0.132E-01    0.615E-01
RMM:   5    -0.413210268866E+03    0.21717E-01   -0.10655E-02  4792   0.103E-01    0.442E-02
RMM:   6    -0.413210308264E+03   -0.39398E-04   -0.18273E-03  5770   0.407E-02    0.300E-02
RMM:   7    -0.413210341186E+03   -0.32922E-04   -0.30136E-04  5578   0.167E-02    0.203E-02
RMM:   8    -0.413210333450E+03    0.77362E-05   -0.56728E-05  5053   0.819E-03    0.999E-03
RMM:   9    -0.413210334531E+03   -0.10812E-05   -0.11549E-05  3705   0.415E-03    0.546E-03
RMM:  10    -0.413210334118E+03    0.41294E-06   -0.20602E-06  2588   0.227E-03
   40 T=    70. E= -.41286786E+03 F= -.41321033E+03 E0= -.41318923E+03  EK= 0.34248E+00 SP= 0.00E+00 SK= 0.00E+00
       N       E                     dE             d eps       ncg     rms          rms(c)
RMM:   1    -0.413225893788E+03   -0.15559E-01   -0.69998E+00  4316   0.837E-01    0.970E-01
RMM:   2    -0.413221019379E+03    0.48744E-02   -0.10310E-01  4285   0.115E-01    0.711E-01
RMM:   3    -0.413217444574E+03    0.35748E-02   -0.54541E-02  4988   0.103E-01    0.326E-01
RMM:   4    -0.413242164247E+03   -0.24720E-01   -0.39040E-02  5076   0.169E-01    0.718E-01
RMM:   5    -0.413212603164E+03    0.29561E-01   -0.13754E-02  4746   0.120E-01    0.492E-02
RMM:   6    -0.413212671212E+03   -0.68048E-04   -0.23754E-03  5765   0.456E-02    0.308E-02
RMM:   7    -0.413212691916E+03   -0.20704E-04   -0.30080E-04  5638   0.168E-02    0.201E-02
RMM:   8    -0.413212695612E+03   -0.36959E-05   -0.76582E-05  5103   0.904E-03    0.113E-02
RMM:   9    -0.413212689347E+03    0.62644E-05   -0.15201E-05  4116   0.478E-03    0.553E-03
RMM:  10    -0.413212687016E+03    0.23318E-05   -0.27620E-06  2679   0.249E-03    0.324E-03
RMM:  11    -0.413212684532E+03    0.24840E-05   -0.11386E-06  2501   0.170E-03    0.181E-03
RMM:  12    -0.413212678665E+03    0.58669E-05   -0.12309E-06  2510   0.166E-03    0.954E-04
RMM:  13    -0.413212674295E+03    0.43699E-05   -0.47492E-07  2269   0.114E-03    0.605E-04
RMM:  14    -0.413212672724E+03    0.15708E-05   -0.20788E-07  1638   0.786E-04    0.333E-04
RMM:  15    -0.413212666035E+03    0.66890E-05   -0.17943E-07  1510   0.764E-04    0.292E-04
RMM:  16    -0.413212660332E+03    0.57032E-05   -0.12246E-07  1374   0.684E-04    0.318E-04
RMM:  17    -0.413212657100E+03    0.32318E-05   -0.68129E-08  1060   0.592E-04    0.224E-04
RMM:  18    -0.413212651895E+03    0.52050E-05   -0.72336E-08  1297   0.625E-04    0.118E-04
RMM:  19    -0.413212650193E+03    0.17022E-05   -0.34289E-08   899   0.545E-04    0.455E-05
RMM:  20    -0.413212649043E+03    0.11500E-05   -0.25320E-08   861   0.540E-04    0.627E-05
RMM:  21    -0.413212648681E+03    0.36194E-06   -0.13627E-08   714   0.515E-04
   41 T=    70. E= -.41286750E+03 F= -.41321265E+03 E0= -.41319158E+03  EK= 0.34515E+00 SP= 0.00E+00 SK= 0.00E+00
       N       E                     dE             d eps       ncg     rms          rms(c)
RMM:   1    -0.413231599402E+03   -0.18950E-01   -0.70093E+00  4316   0.915E-01    0.986E-01
RMM:   2    -0.413223490041E+03    0.81094E-02   -0.10677E-01  4309   0.124E-01    0.710E-01
RMM:   3    -0.413217791029E+03    0.56990E-02   -0.48801E-02  4910   0.876E-02    0.231E-01
RMM:   4    -0.413247696364E+03   -0.29905E-01   -0.36939E-02  5108   0.163E-01    0.745E-01
RMM:   5    -0.413215334398E+03    0.32362E-01   -0.15381E-02  4779   0.124E-01    0.498E-02
RMM:   6    -0.413215414313E+03   -0.79915E-04   -0.25970E-03  5782   0.478E-02    0.314E-02
RMM:   7    -0.413215448133E+03   -0.33820E-04   -0.31707E-04  5697   0.167E-02    0.188E-02
RMM:   8    -0.413215446553E+03    0.15803E-05   -0.53609E-05  5002   0.760E-03    0.993E-03
RMM:   9    -0.413215446679E+03   -0.12586E-06   -0.19268E-05  4428   0.477E-03    0.657E-03
RMM:  10    -0.413215442021E+03    0.46575E-05   -0.27975E-06  2643   0.268E-03    0.367E-03
RMM:  11    -0.413215439377E+03    0.26439E-05   -0.12418E-06  2497   0.181E-03    0.216E-03
RMM:  12    -0.413215432833E+03    0.65445E-05   -0.13639E-06  2496   0.186E-03    0.118E-03
RMM:  13    -0.413215428867E+03    0.39659E-05   -0.51453E-07  2350   0.126E-03    0.789E-04
RMM:  14    -0.413215427657E+03    0.12102E-05   -0.21474E-07  1815   0.833E-04    0.439E-04
RMM:  15    -0.413215423471E+03    0.41857E-05   -0.12666E-07  1419   0.717E-04    0.196E-04
RMM:  16    -0.413215418403E+03    0.50676E-05   -0.97381E-08  1382   0.678E-04    0.329E-04
RMM:  17    -0.413215415581E+03    0.28222E-05   -0.51087E-08   994   0.582E-04    0.277E-04
RMM:  18    -0.413215409465E+03    0.61161E-05   -0.61266E-08  1212   0.614E-04    0.172E-04
RMM:  19    -0.413215407440E+03    0.20251E-05   -0.30748E-08   903   0.547E-04    0.634E-05
RMM:  20    -0.413215406270E+03    0.11698E-05   -0.21767E-08   827   0.536E-04    0.450E-05
RMM:  21    -0.413215405930E+03    0.34035E-06   -0.14218E-08   727   0.519E-04
   42 T=    71. E= -.41286755E+03 F= -.41321541E+03 E0= -.41319437E+03  EK= 0.34786E+00 SP= 0.00E+00 SK= 0.00E+00
       N       E                     dE             d eps       ncg     rms          rms(c)
RMM:   1    -0.413232556623E+03   -0.17150E-01   -0.70295E+00  4316   0.944E-01    0.969E-01
RMM:   2    -0.413226019312E+03    0.65373E-02   -0.10369E-01  4375   0.120E-01    0.707E-01
RMM:   3    -0.413220679471E+03    0.53398E-02   -0.52054E-02  4932   0.931E-02    0.268E-01
RMM:   4    -0.413249176309E+03   -0.28497E-01   -0.37300E-02  5102   0.164E-01    0.738E-01
RMM:   5    -0.413217585492E+03    0.31591E-01   -0.15007E-02  4776   0.124E-01    0.496E-02
RMM:   6    -0.413217656666E+03   -0.71174E-04   -0.25309E-03  5768   0.471E-02    0.304E-02
RMM:   7    -0.413217689821E+03   -0.33155E-04   -0.30389E-04  5718   0.164E-02    0.181E-02
RMM:   8    -0.413217689060E+03    0.76064E-06   -0.51931E-05  4990   0.744E-03    0.943E-03
RMM:   9    -0.413217690075E+03   -0.10148E-05   -0.18445E-05  4364   0.468E-03    0.628E-03
RMM:  10    -0.413217686908E+03    0.31676E-05   -0.27809E-06  2640   0.266E-03    0.354E-03
RMM:  11    -0.413217685233E+03    0.16745E-05   -0.12229E-06  2500   0.179E-03    0.207E-03
RMM:  12    -0.413217680685E+03    0.45477E-05   -0.13707E-06  2513   0.181E-03    0.115E-03
RMM:  13    -0.413217677584E+03    0.31017E-05   -0.50848E-07  2347   0.122E-03    0.750E-04
RMM:  14    -0.413217676369E+03    0.12148E-05   -0.20663E-07  1725   0.809E-04    0.401E-04
RMM:  15    -0.413217672377E+03    0.39923E-05   -0.13583E-07  1424   0.725E-04    0.202E-04
RMM:  16    -0.413217668349E+03    0.40279E-05   -0.92821E-08  1284   0.662E-04    0.270E-04
RMM:  17    -0.413217665372E+03    0.29766E-05   -0.58029E-08  1045   0.595E-04    0.228E-04
RMM:  18    -0.413217660456E+03    0.49157E-05   -0.62235E-08  1223   0.616E-04    0.130E-04
RMM:  19    -0.413217658320E+03    0.21367E-05   -0.31991E-08   922   0.550E-04    0.480E-05
RMM:  20    -0.413217657487E+03    0.83219E-06   -0.19282E-08   790   0.526E-04
   43 T=    71. E= -.41286756E+03 F= -.41321766E+03 E0= -.41319665E+03  EK= 0.35009E+00 SP= 0.00E+00 SK= 0.00E+00
       N       E                     dE             d eps       ncg     rms          rms(c)
RMM:   1    -0.413235143844E+03   -0.17486E-01   -0.71653E+00  4316   0.102E+00    0.973E-01
RMM:   2    -0.413227463878E+03    0.76800E-02   -0.10976E-01  4400   0.133E-01    0.717E-01
RMM:   3    -0.413222678429E+03    0.47854E-02   -0.53304E-02  4956   0.986E-02    0.296E-01
RMM:   4    -0.413252351669E+03   -0.29673E-01   -0.41513E-02  5095   0.174E-01    0.761E-01
RMM:   5    -0.413218707995E+03    0.33644E-01   -0.15675E-02  4762   0.127E-01    0.508E-02
RMM:   6    -0.413218780413E+03   -0.72419E-04   -0.26626E-03  5771   0.481E-02    0.297E-02
RMM:   7    -0.413218811411E+03   -0.30997E-04   -0.29930E-04  5696   0.160E-02    0.173E-02
RMM:   8    -0.413218816136E+03   -0.47254E-05   -0.43026E-05  4811   0.669E-03    0.786E-03
RMM:   9    -0.413218815220E+03    0.91677E-06   -0.13079E-05  3906   0.398E-03    0.537E-03
RMM:  10    -0.413218814825E+03    0.39435E-06   -0.34485E-06  2767   0.255E-03
   44 T=    72. E= -.41286738E+03 F= -.41321881E+03 E0= -.41319783E+03  EK= 0.35143E+00 SP= 0.00E+00 SK= 0.00E+00
       N       E                     dE             d eps       ncg     rms          rms(c)
RMM:   1    -0.413238052887E+03   -0.19238E-01   -0.71217E+00  4316   0.107E+00    0.993E-01
RMM:   2    -0.413228649588E+03    0.94033E-02   -0.10930E-01  4442   0.135E-01    0.716E-01
RMM:   3    -0.413230079373E+03   -0.14298E-02   -0.54348E-02  5077   0.124E-01    0.427E-01
RMM:   4    -0.413241584260E+03   -0.11505E-01   -0.39363E-02  5041   0.174E-01    0.613E-01
RMM:   5    -0.413220142435E+03    0.21442E-01   -0.86030E-03  4641   0.103E-01    0.494E-02
RMM:   6    -0.413220143191E+03   -0.75560E-06   -0.16335E-03  5636   0.386E-02    0.298E-02
RMM:   7    -0.413220153919E+03   -0.10728E-04   -0.26314E-04  5522   0.164E-02    0.212E-02
RMM:   8    -0.413220151497E+03    0.24217E-05   -0.77402E-05  5032   0.973E-03    0.101E-02
RMM:   9    -0.413220144598E+03    0.68988E-05   -0.98830E-06  3562   0.439E-03    0.427E-03
RMM:  10    -0.413220139467E+03    0.51315E-05   -0.19798E-06  2604   0.217E-03    0.245E-03
RMM:  11    -0.413220134095E+03    0.53712E-05   -0.99829E-07  2480   0.156E-03    0.126E-03
RMM:  12    -0.413220125432E+03    0.86631E-05   -0.74380E-07  2385   0.131E-03    0.642E-04
RMM:  13    -0.413220120690E+03    0.47420E-05   -0.30952E-07  1907   0.924E-04    0.371E-04
RMM:  14    -0.413220116783E+03    0.39076E-05   -0.16702E-07  1313   0.723E-04    0.185E-04
RMM:  15    -0.413220105343E+03    0.11439E-04   -0.18028E-07  1590   0.774E-04    0.247E-04
RMM:  16    -0.413220101106E+03    0.42376E-05   -0.97216E-08  1256   0.640E-04    0.149E-04
RMM:  17    -0.413220095848E+03    0.52577E-05   -0.79182E-08  1277   0.629E-04    0.680E-05
RMM:  18    -0.413220091657E+03    0.41911E-05   -0.56612E-08  1192   0.591E-04    0.639E-05
RMM:  19    -0.413220091205E+03    0.45171E-06   -0.27889E-08   822   0.516E-04
   45 T=    72. E= -.41286786E+03 F= -.41322009E+03 E0= -.41319912E+03  EK= 0.35223E+00 SP= 0.00E+00 SK= 0.00E+00
       N       E                     dE             d eps       ncg     rms          rms(c)
RMM:   1    -0.413237568311E+03   -0.17477E-01   -0.70734E+00  4316   0.114E+00    0.974E-01
RMM:   2    -0.413228066021E+03    0.95023E-02   -0.11023E-01  4433   0.143E-01    0.710E-01
RMM:   3    -0.413226151130E+03    0.19149E-02   -0.51086E-02  5024   0.114E-01    0.351E-01
RMM:   4    -0.413248238556E+03   -0.22087E-01   -0.41985E-02  5073   0.178E-01    0.704E-01
RMM:   5    -0.413219604871E+03    0.28634E-01   -0.12295E-02  4711   0.118E-01    0.514E-02
RMM:   6    -0.413219631262E+03   -0.26391E-04   -0.21525E-03  5708   0.440E-02    0.290E-02
RMM:   7    -0.413219657689E+03   -0.26427E-04   -0.26374E-04  5721   0.158E-02    0.180E-02
RMM:   8    -0.413219666799E+03   -0.91098E-05   -0.82066E-05  5138   0.927E-03    0.114E-02
RMM:   9    -0.413219657790E+03    0.90091E-05   -0.17142E-05  4312   0.513E-03    0.486E-03
RMM:  10    -0.413219655098E+03    0.26924E-05   -0.32460E-06  2726   0.262E-03    0.300E-03
RMM:  11    -0.413219652341E+03    0.27571E-05   -0.12010E-06  2492   0.179E-03    0.159E-03
RMM:  12    -0.413219646935E+03    0.54057E-05   -0.82856E-07  2464   0.146E-03    0.806E-04
RMM:  13    -0.413219642451E+03    0.44839E-05   -0.36145E-07  2073   0.100E-03    0.378E-04
RMM:  14    -0.413219639943E+03    0.25081E-05   -0.17775E-07  1436   0.743E-04    0.192E-04
RMM:  15    -0.413219633839E+03    0.61043E-05   -0.13776E-07  1264   0.712E-04    0.159E-04
RMM:  16    -0.413219630194E+03    0.36448E-05   -0.93223E-08  1215   0.662E-04    0.125E-04
RMM:  17    -0.413219626328E+03    0.38661E-05   -0.76806E-08  1276   0.640E-04    0.738E-05
RMM:  18    -0.413219622512E+03    0.38160E-05   -0.56905E-08  1175   0.600E-04    0.387E-05
RMM:  19    -0.413219620612E+03    0.19000E-05   -0.33547E-08   920   0.547E-04    0.342E-05
RMM:  20    -0.413219620350E+03    0.26140E-06   -0.17974E-08   727   0.517E-04
   46 T=    72. E= -.41286785E+03 F= -.41321962E+03 E0= -.41319867E+03  EK= 0.35177E+00 SP= 0.00E+00 SK= 0.00E+00
       N       E                     dE             d eps       ncg     rms          rms(c)
RMM:   1    -0.413238890921E+03   -0.19270E-01   -0.71687E+00  4316   0.127E+00    0.964E-01
RMM:   2    -0.413227221776E+03    0.11669E-01   -0.11590E-01  4465   0.158E-01    0.716E-01
RMM:   3    -0.413228514079E+03   -0.12923E-02   -0.55195E-02  5047   0.131E-01    0.436E-01
RMM:   4    -0.413242879121E+03   -0.14365E-01   -0.43008E-02  5043   0.182E-01    0.657E-01
RMM:   5    -0.413218253139E+03    0.24626E-01   -0.10288E-02  4660   0.111E-01    0.509E-02
RMM:   6    -0.413218243911E+03    0.92276E-05   -0.17817E-03  5624   0.405E-02    0.269E-02
RMM:   7    -0.413218265036E+03   -0.21125E-04   -0.24180E-04  5670   0.155E-02    0.182E-02
RMM:   8    -0.413218272886E+03   -0.78500E-05   -0.87564E-05  5097   0.987E-03    0.102E-02
RMM:   9    -0.413218267845E+03    0.50408E-05   -0.12168E-05  3910   0.481E-03    0.426E-03
RMM:  10    -0.413218266232E+03    0.16125E-05   -0.28892E-06  2706   0.239E-03    0.262E-03
RMM:  11    -0.413218264061E+03    0.21712E-05   -0.12537E-06  2496   0.172E-03    0.125E-03
RMM:  12    -0.413218260513E+03    0.35485E-05   -0.77919E-07  2384   0.135E-03    0.640E-04
RMM:  13    -0.413218257462E+03    0.30503E-05   -0.35734E-07  1846   0.949E-04    0.288E-04
RMM:  14    -0.413218254691E+03    0.27712E-05   -0.20450E-07  1413   0.764E-04    0.155E-04
RMM:  15    -0.413218250017E+03    0.46745E-05   -0.17865E-07  1425   0.747E-04    0.124E-04
RMM:  16    -0.413218246796E+03    0.32206E-05   -0.12490E-07  1347   0.675E-04    0.957E-05
RMM:  17    -0.413218241869E+03    0.49273E-05   -0.11460E-07  1443   0.671E-04    0.533E-05
RMM:  18    -0.413218239819E+03    0.20495E-05   -0.57580E-08   999   0.562E-04    0.390E-05
RMM:  19    -0.413218239058E+03    0.76079E-06   -0.32571E-08   821   0.527E-04
   47 T=    71. E= -.41286798E+03 F= -.41321824E+03 E0= -.41319730E+03  EK= 0.35026E+00 SP= 0.00E+00 SK= 0.00E+00
       N       E                     dE             d eps       ncg     rms          rms(c)
RMM:   1    -0.413239930947E+03   -0.21691E-01   -0.70906E+00  4314   0.134E+00    0.978E-01
RMM:   2    -0.413224375866E+03    0.15555E-01   -0.11526E-01  4503   0.169E-01    0.713E-01
RMM:   3    -0.413230162044E+03   -0.57862E-02   -0.54193E-02  5082   0.144E-01    0.502E-01
RMM:   4    -0.413234153571E+03   -0.39915E-02   -0.40822E-02  5009   0.180E-01    0.566E-01
RMM:   5    -0.413215890855E+03    0.18263E-01   -0.69632E-03  4605   0.982E-02    0.508E-02
RMM:   6    -0.413215849439E+03    0.41416E-04   -0.12011E-03  5345   0.346E-02    0.264E-02
RMM:   7    -0.413215875479E+03   -0.26040E-04   -0.17666E-04  5613   0.136E-02    0.160E-02
RMM:   8    -0.413215881714E+03   -0.62355E-05   -0.83896E-05  5177   0.954E-03    0.104E-02
RMM:   9    -0.413215871738E+03    0.99762E-05   -0.11848E-05  3926   0.478E-03    0.398E-03
RMM:  10    -0.413215868745E+03    0.29936E-05   -0.28839E-06  2707   0.240E-03    0.235E-03
RMM:  11    -0.413215864346E+03    0.43985E-05   -0.12353E-06  2489   0.179E-03    0.119E-03
RMM:  12    -0.413215859824E+03    0.45225E-05   -0.57434E-07  2324   0.127E-03    0.657E-04
RMM:  13    -0.413215855755E+03    0.40685E-05   -0.26967E-07  1750   0.892E-04    0.305E-04
RMM:  14    -0.413215851159E+03    0.45956E-05   -0.16362E-07  1428   0.738E-04    0.160E-04
RMM:  15    -0.413215846363E+03    0.47964E-05   -0.11659E-07  1301   0.687E-04    0.118E-04
RMM:  16    -0.413215842462E+03    0.39008E-05   -0.82685E-08  1207   0.639E-04    0.830E-05
RMM:  17    -0.413215835488E+03    0.69742E-05   -0.91532E-08  1490   0.670E-04    0.733E-05
RMM:  18    -0.413215834562E+03    0.92632E-06   -0.31354E-08   821   0.520E-04
   48 T=    71. E= -.41286832E+03 F= -.41321583E+03 E0= -.41319490E+03  EK= 0.34752E+00 SP= 0.00E+00 SK= 0.00E+00
       N       E                     dE             d eps       ncg     rms          rms(c)
RMM:   1    -0.413235631950E+03   -0.19796E-01   -0.69532E+00  4310   0.143E+00    0.963E-01
RMM:   2    -0.413219307705E+03    0.16324E-01   -0.11582E-01  4570   0.176E-01    0.702E-01
RMM:   3    -0.413233033394E+03   -0.13726E-01   -0.56849E-02  5105   0.164E-01    0.618E-01
RMM:   4    -0.413223355743E+03    0.96777E-02   -0.40866E-02  4973   0.184E-01    0.468E-01
RMM:   5    -0.413210978768E+03    0.12377E-01   -0.48078E-03  4571   0.885E-02    0.515E-02
RMM:   6    -0.413210890717E+03    0.88052E-04   -0.64992E-04  4867   0.287E-02    0.264E-02
RMM:   7    -0.413210918895E+03   -0.28178E-04   -0.14503E-04  5698   0.131E-02    0.122E-02
RMM:   8    -0.413210917616E+03    0.12785E-05   -0.32650E-05  5119   0.704E-03    0.710E-03
RMM:   9    -0.413210915611E+03    0.20053E-05   -0.90389E-06  3632   0.357E-03    0.349E-03
RMM:  10    -0.413210911900E+03    0.37110E-05   -0.17086E-06  2547   0.215E-03    0.236E-03
RMM:  11    -0.413210906807E+03    0.50925E-05   -0.10094E-06  2468   0.170E-03    0.145E-03
RMM:  12    -0.413210903369E+03    0.34382E-05   -0.41035E-07  2365   0.112E-03    0.781E-04
RMM:  13    -0.413210898770E+03    0.45993E-05   -0.25843E-07  1814   0.875E-04    0.369E-04
RMM:  14    -0.413210892676E+03    0.60940E-05   -0.20376E-07  1729   0.787E-04    0.443E-04
RMM:  15    -0.413210888357E+03    0.43182E-05   -0.93132E-08  1034   0.610E-04    0.204E-04
RMM:  16    -0.413210884561E+03    0.37966E-05   -0.75274E-08  1152   0.616E-04    0.100E-04
RMM:  17    -0.413210880780E+03    0.37807E-05   -0.56208E-08  1061   0.584E-04    0.103E-04
RMM:  18    -0.413210878778E+03    0.20026E-05   -0.33061E-08   842   0.542E-04    0.725E-05
RMM:  19    -0.413210875011E+03    0.37664E-05   -0.40306E-08  1029   0.579E-04    0.479E-05
RMM:  20    -0.413210873828E+03    0.11834E-05   -0.18257E-08   727   0.515E-04    0.372E-05
RMM:  21    -0.413210873396E+03    0.43186E-06   -0.11324E-08   624   0.494E-04
   49 T=    70. E= -.41286801E+03 F= -.41321087E+03 E0= -.41318995E+03  EK= 0.34286E+00 SP= 0.00E+00 SK= 0.00E+00
       N       E                     dE             d eps       ncg     rms          rms(c)
RMM:   1    -0.413230626475E+03   -0.19753E-01   -0.69110E+00  4310   0.156E+00    0.933E-01
RMM:   2    -0.413213618909E+03    0.17008E-01   -0.12506E-01  4699   0.189E-01    0.701E-01
RMM:   3    -0.413238581697E+03   -0.24963E-01   -0.63325E-02  5133   0.191E-01    0.757E-01
RMM:   4    -0.413214495548E+03    0.24086E-01   -0.46384E-02  4932   0.199E-01    0.415E-01
RMM:   5    -0.413205060962E+03    0.94346E-02   -0.48539E-03  4654   0.917E-02    0.570E-02
RMM:   6    -0.413204921413E+03    0.13955E-03   -0.50466E-04  4720   0.286E-02    0.272E-02
RMM:   7    -0.413204957255E+03   -0.35842E-04   -0.23439E-04  5665   0.171E-02    0.198E-02
RMM:   8    -0.413204939862E+03    0.17393E-04   -0.60187E-05  5044   0.900E-03    0.958E-03
RMM:   9    -0.413204938293E+03    0.15682E-05   -0.18024E-05  4804   0.534E-03    0.430E-03
RMM:  10    -0.413204935437E+03    0.28565E-05   -0.25044E-06  2695   0.246E-03    0.260E-03
RMM:  11    -0.413204931412E+03    0.40252E-05   -0.12329E-06  2497   0.187E-03    0.190E-03
RMM:  12    -0.413204928137E+03    0.32750E-05   -0.47452E-07  2340   0.117E-03    0.947E-04
RMM:  13    -0.413204924828E+03    0.33090E-05   -0.32386E-07  2055   0.917E-04    0.382E-04
RMM:  14    -0.413204920785E+03    0.40430E-05   -0.23821E-07  1709   0.788E-04    0.330E-04
RMM:  15    -0.413204915704E+03    0.50805E-05   -0.17987E-07  1319   0.696E-04    0.137E-04
RMM:  16    -0.413204912775E+03    0.29291E-05   -0.10516E-07  1176   0.627E-04    0.911E-05
RMM:  17    -0.413204909013E+03    0.37627E-05   -0.98599E-08  1302   0.627E-04    0.740E-05
RMM:  18    -0.413204906356E+03    0.26569E-05   -0.62284E-08  1070   0.571E-04    0.541E-05
RMM:  19    -0.413204904430E+03    0.19260E-05   -0.42276E-08   957   0.541E-04    0.286E-05
RMM:  20    -0.413204903520E+03    0.90970E-06   -0.27796E-08   847   0.509E-04
   50 T=    69. E= -.41286832E+03 F= -.41320490E+03 E0= -.41318398E+03  EK= 0.33658E+00 SP= 0.00E+00 SK= 0.00E+00
       N       E                     dE             d eps       ncg     rms          rms(c)
RMM:   1    -0.413223592131E+03   -0.18688E-01   -0.67535E+00  4309   0.164E+00    0.934E-01
RMM:   2    -0.413204540766E+03    0.19051E-01   -0.12593E-01  4787   0.197E-01    0.695E-01
RMM:   3    -0.413240346781E+03   -0.35806E-01   -0.68100E-02  5146   0.210E-01    0.866E-01
RMM:   4    -0.413202616926E+03    0.37730E-01   -0.48865E-02  4920   0.208E-01    0.342E-01
RMM:   5    -0.413196311011E+03    0.63059E-02   -0.52113E-03  4977   0.949E-02    0.683E-02
RMM:   6    -0.413196083514E+03    0.22750E-03   -0.53061E-04  4615   0.312E-02    0.307E-02
RMM:   7    -0.413196110372E+03   -0.26857E-04   -0.26801E-04  5652   0.183E-02    0.231E-02
RMM:   8    -0.413196094652E+03    0.15719E-04   -0.72498E-05  5056   0.103E-02    0.112E-02
RMM:   9    -0.413196091017E+03    0.36353E-05   -0.20676E-05  4773   0.573E-03    0.425E-03
RMM:  10    -0.413196087201E+03    0.38161E-05   -0.35064E-06  2821   0.267E-03    0.276E-03
RMM:  11    -0.413196081980E+03    0.52214E-05   -0.97188E-07  2502   0.177E-03    0.158E-03
RMM:  12    -0.413196078033E+03    0.39468E-05   -0.46375E-07  2225   0.112E-03    0.699E-04
RMM:  13    -0.413196073697E+03    0.43360E-05   -0.41724E-07  2228   0.103E-03    0.458E-04
RMM:  14    -0.413196069591E+03    0.41064E-05   -0.24413E-07  1694   0.819E-04    0.349E-04
RMM:  15    -0.413196064616E+03    0.49747E-05   -0.16367E-07  1307   0.721E-04    0.170E-04
RMM:  16    -0.413196061076E+03    0.35394E-05   -0.11789E-07  1348   0.677E-04    0.928E-05
[...]
RMM:   1    -0.413735443268E+03   -0.31702E+00   -0.12054E+01  4265   0.603E+00    0.138E+00
RMM:   2    -0.413723448577E+03    0.11995E-01   -0.52533E-01  5400   0.816E-01    0.141E+00
RMM:   3    -0.413712028904E+03    0.11420E-01   -0.13496E-01  5316   0.405E-01    0.129E+00
RMM:   4    -0.413671765832E+03    0.40263E-01   -0.99503E-02  5215   0.370E-01    0.596E-01
RMM:   5    -0.413667604258E+03    0.41616E-02   -0.28074E-02  4743   0.234E-01    0.231E-01
RMM:   6    -0.413666046735E+03    0.15575E-02   -0.14559E-02  5050   0.147E-01    0.135E-01
RMM:   7    -0.413665200148E+03    0.84659E-03   -0.22812E-03  5011   0.665E-02    0.609E-02
RMM:   8    -0.413665172874E+03    0.27274E-04   -0.44948E-04  5291   0.270E-02    0.334E-02
RMM:   9    -0.413665164738E+03    0.81359E-05   -0.20149E-04  5198   0.178E-02    0.167E-02
RMM:  10    -0.413665161021E+03    0.37167E-05   -0.48079E-05  5440   0.813E-03    0.101E-02
RMM:  11    -0.413665159111E+03    0.19098E-05   -0.19664E-05  4814   0.536E-03    0.421E-03
RMM:  12    -0.413665158924E+03    0.18763E-06   -0.41276E-06  2884   0.282E-03
  138 T=   161. E= -.41287471E+03 F= -.41366516E+03 E0= -.41364193E+03  EK= 0.79045E+00 SP= 0.00E+00 SK= 0.00E+00
       N       E                     dE             d eps       ncg     rms          rms(c)
RMM:   1    -0.414097367362E+03   -0.43221E+00   -0.20100E+01  4278   0.755E+00    0.170E+00
RMM:   2    -0.413982937319E+03    0.11443E+00   -0.82329E-01  5391   0.102E+00    0.169E+00
RMM:   3    -0.413989668421E+03   -0.67311E-02   -0.19259E-01  5398   0.486E-01    0.162E+00
RMM:   4    -0.413930897205E+03    0.58771E-01   -0.13179E-01  5213   0.425E-01    0.787E-01
RMM:   5    -0.413924405374E+03    0.64918E-02   -0.52314E-02  4665   0.315E-01    0.287E-01
RMM:   6    -0.413921900527E+03    0.25048E-02   -0.24148E-02  5044   0.188E-01    0.173E-01
RMM:   7    -0.413920236802E+03    0.16637E-02   -0.31880E-03  4667   0.823E-02    0.710E-02
RMM:   8    -0.413920191679E+03    0.45122E-04   -0.83957E-04  5264   0.367E-02    0.360E-02
RMM:   9    -0.413920184498E+03    0.71808E-05   -0.27763E-04  5304   0.205E-02    0.187E-02
RMM:  10    -0.413920180072E+03    0.44266E-05   -0.61235E-05  5556   0.959E-03    0.101E-02
RMM:  11    -0.413920180461E+03   -0.38923E-06   -0.26078E-05  4986   0.591E-03    0.608E-03
RMM:  12    -0.413920180380E+03    0.80778E-07   -0.40685E-06  2894   0.295E-03
  139 T=   210. E= -.41288841E+03 F= -.41392018E+03 E0= -.41389691E+03  EK= 0.10318E+01 SP= 0.00E+00 SK= 0.00E+00
       N       E                     dE             d eps       ncg     rms          rms(c)
RMM:   1    -0.414208467295E+03   -0.28829E+00   -0.24806E+01  4281   0.825E+00    0.155E+00
RMM:   2    -0.414002562215E+03    0.20591E+00   -0.90968E-01  5392   0.104E+00    0.144E+00
RMM:   3    -0.414049158274E+03   -0.46596E-01   -0.18204E-01  5512   0.463E-01    0.155E+00
RMM:   4    -0.413986711580E+03    0.62447E-01   -0.99352E-02  5142   0.371E-01    0.750E-01
RMM:   5    -0.413980960609E+03    0.57510E-02   -0.55095E-02  4592   0.320E-01    0.260E-01
RMM:   6    -0.413979162464E+03    0.17981E-02   -0.18971E-02  5129   0.168E-01    0.168E-01
RMM:   7    -0.413977541103E+03    0.16214E-02   -0.35841E-03  4777   0.820E-02    0.697E-02
RMM:   8    -0.413977506505E+03    0.34598E-04   -0.11597E-03  5626   0.415E-02    0.401E-02
RMM:   9    -0.413977498410E+03    0.80948E-05   -0.30779E-04  5275   0.218E-02    0.228E-02
RMM:  10    -0.413977490878E+03    0.75323E-05   -0.82862E-05  5593   0.113E-02    0.105E-02
RMM:  11    -0.413977493736E+03   -0.28580E-05   -0.33045E-05  5197   0.639E-03    0.821E-03
RMM:  12    -0.413977493242E+03    0.49322E-06   -0.61300E-06  3245   0.351E-03
  140 T=   222. E= -.41288704E+03 F= -.41397749E+03 E0= -.41395440E+03  EK= 0.10905E+01 SP= 0.00E+00 SK= 0.00E+00
       N       E                     dE             d eps       ncg     rms          rms(c)
RMM:   1    -0.414026431821E+03   -0.48938E-01   -0.23116E+01  4281   0.799E+00    0.145E+00
RMM:   2    -0.413853800974E+03    0.17263E+00   -0.79108E-01  5378   0.928E-01    0.121E+00
RMM:   3    -0.413954782762E+03   -0.10098E+00   -0.18750E-01  5518   0.462E-01    0.155E+00
RMM:   4    -0.413863982182E+03    0.90801E-01   -0.11116E-01  5078   0.367E-01    0.634E-01
RMM:   5    -0.413853450135E+03    0.10532E-01   -0.60367E-02  4963   0.307E-01    0.231E-01
RMM:   6    -0.413851189873E+03    0.22603E-02   -0.98407E-03  5067   0.132E-01    0.119E-01
RMM:   7    -0.413850544608E+03    0.64526E-03   -0.22771E-03  4968   0.630E-02    0.581E-02
RMM:   8    -0.413850528186E+03    0.16422E-04   -0.81472E-04  5709   0.348E-02    0.392E-02
RMM:   9    -0.413850533038E+03   -0.48518E-05   -0.21847E-04  5352   0.188E-02    0.258E-02
RMM:  10    -0.413850522684E+03    0.10354E-04   -0.92471E-05  5494   0.117E-02    0.957E-03
RMM:  11    -0.413850526600E+03   -0.39168E-05   -0.34080E-05  5180   0.614E-03    0.765E-03
RMM:  12    -0.413850526754E+03   -0.15399E-06   -0.61744E-06  3241   0.354E-03
  141 T=   199. E= -.41287409E+03 F= -.41385053E+03 E0= -.41382782E+03  EK= 0.97644E+00 SP= 0.00E+00 SK= 0.00E+00
       N       E                     dE             d eps       ncg     rms          rms(c)
RMM:   1    -0.413811985648E+03    0.38541E-01   -0.18537E+01  4276   0.726E+00    0.118E+00
RMM:   2    -0.413709503525E+03    0.10248E+00   -0.61466E-01  5397   0.791E-01    0.951E-01
RMM:   3    -0.413770100265E+03   -0.60597E-01   -0.11940E-01  5490   0.383E-01    0.112E+00
RMM:   4    -0.413726937447E+03    0.43163E-01   -0.79562E-02  5116   0.296E-01    0.575E-01
RMM:   5    -0.413712897205E+03    0.14040E-01   -0.41277E-02  5128   0.249E-01    0.193E-01
RMM:   6    -0.413711013328E+03    0.18839E-02   -0.50020E-03  4741   0.102E-01    0.860E-02
RMM:   7    -0.413710801435E+03    0.21189E-03   -0.13278E-03  5241   0.466E-02    0.482E-02
RMM:   8    -0.413710806819E+03   -0.53838E-05   -0.52512E-04  5648   0.273E-02    0.341E-02
RMM:   9    -0.413710810513E+03   -0.36940E-05   -0.12757E-04  5298   0.145E-02    0.215E-02
RMM:  10    -0.413710805163E+03    0.53500E-05   -0.68608E-05  5496   0.990E-03    0.742E-03
RMM:  11    -0.413710809518E+03   -0.43553E-05   -0.22430E-05  4723   0.511E-03    0.628E-03
RMM:  12    -0.413710810939E+03   -0.14206E-05   -0.35552E-06  2807   0.297E-03    0.275E-03
RMM:  13    -0.413710812597E+03   -0.16584E-05   -0.15638E-06  2546   0.202E-03    0.135E-03
RMM:  14    -0.413710814887E+03   -0.22903E-05   -0.94020E-07  2485   0.159E-03    0.493E-04
RMM:  15    -0.413710816378E+03   -0.14906E-05   -0.50972E-07  2165   0.113E-03    0.345E-04
RMM:  16    -0.413710817776E+03   -0.13983E-05   -0.35919E-07  1874   0.938E-04    0.246E-04
RMM:  17    -0.413710818813E+03   -0.10364E-05   -0.23850E-07  1530   0.787E-04    0.175E-04
RMM:  18    -0.413710819691E+03   -0.87810E-06   -0.18279E-07  1405   0.722E-04
  142 T=   172. E= -.41286625E+03 F= -.41371082E+03 E0= -.41368847E+03  EK= 0.84457E+00 SP= 0.00E+00 SK= 0.00E+00
       N       E                     dE             d eps       ncg     rms          rms(c)
RMM:   1    -0.413762537462E+03   -0.51719E-01   -0.16146E+01  4283   0.685E+00    0.111E+00
RMM:   2    -0.413666801734E+03    0.95736E-01   -0.47202E-01  5414   0.723E-01    0.918E-01
RMM:   3    -0.413729068453E+03   -0.62267E-01   -0.11009E-01  5586   0.352E-01    0.118E+00
RMM:   4    -0.413675593973E+03    0.53474E-01   -0.66926E-02  5094   0.279E-01    0.480E-01
RMM:   5    -0.413669325152E+03    0.62688E-02   -0.38223E-02  5150   0.243E-01    0.201E-01
RMM:   6    -0.413667347973E+03    0.19772E-02   -0.59664E-03  4946   0.106E-01    0.965E-02
RMM:   7    -0.413667033658E+03    0.31431E-03   -0.10925E-03  5113   0.450E-02    0.492E-02
RMM:   8    -0.413667028229E+03    0.54290E-05   -0.55945E-04  5635   0.281E-02    0.306E-02
RMM:   9    -0.413667039050E+03   -0.10821E-04   -0.16363E-04  5591   0.153E-02    0.218E-02
RMM:  10    -0.413667032848E+03    0.62026E-05   -0.55333E-05  5391   0.937E-03    0.920E-03
RMM:  11    -0.413667035515E+03   -0.26668E-05   -0.24070E-05  4903   0.535E-03    0.533E-03
RMM:  12    -0.413667038669E+03   -0.31549E-05   -0.41490E-06  2888   0.313E-03    0.274E-03
RMM:  13    -0.413667040058E+03   -0.13891E-05   -0.10900E-06  2507   0.187E-03    0.134E-03
RMM:  14    -0.413667042068E+03   -0.20097E-05   -0.63994E-07  2438   0.133E-03    0.531E-04
RMM:  15    -0.413667043459E+03   -0.13910E-05   -0.35334E-07  1812   0.939E-04    0.325E-04
RMM:  16    -0.413667045150E+03   -0.16909E-05   -0.33549E-07  1817   0.890E-04    0.188E-04
RMM:  17    -0.413667045901E+03   -0.75059E-06   -0.18825E-07  1398   0.722E-04
  143 T=   163. E= -.41286758E+03 F= -.41366705E+03 E0= -.41364507E+03  EK= 0.79946E+00 SP= 0.00E+00 SK= 0.00E+00
       N       E                     dE             d eps       ncg     rms          rms(c)
RMM:   1    -0.413835168093E+03   -0.16812E+00   -0.16324E+01  4291   0.704E+00    0.112E+00
RMM:   2    -0.413709779371E+03    0.12539E+00   -0.41519E-01  5354   0.713E-01    0.908E-01
RMM:   3    -0.413768353149E+03   -0.58574E-01   -0.11260E-01  5587   0.352E-01    0.124E+00
RMM:   4    -0.413708740053E+03    0.59613E-01   -0.55367E-02  4995   0.276E-01    0.378E-01
RMM:   5    -0.413708497741E+03    0.24231E-03   -0.37643E-02  5122   0.235E-01    0.217E-01
RMM:   6    -0.413706137812E+03    0.23599E-02   -0.94429E-03  5083   0.122E-01    0.104E-01
RMM:   7    -0.413705751880E+03    0.38593E-03   -0.13500E-03  5171   0.500E-02    0.462E-02
RMM:   8    -0.413705758510E+03   -0.66307E-05   -0.53705E-04  5786   0.261E-02    0.285E-02
RMM:   9    -0.413705761754E+03   -0.32436E-05   -0.13390E-04  5252   0.144E-02    0.168E-02
RMM:  10    -0.413705762671E+03   -0.91748E-06   -0.43250E-05  5423   0.795E-03    0.883E-03
RMM:  11    -0.413705765992E+03   -0.33206E-05   -0.13852E-05  4162   0.444E-03    0.493E-03
RMM:  12    -0.413705770493E+03   -0.45015E-05   -0.35976E-06  2846   0.299E-03    0.240E-03
RMM:  13    -0.413705772129E+03   -0.16352E-05   -0.96142E-07  2517   0.171E-03    0.110E-03
RMM:  14    -0.413705774113E+03   -0.19843E-05   -0.63260E-07  2404   0.126E-03    0.519E-04
RMM:  15    -0.413705775771E+03   -0.16580E-05   -0.41155E-07  1804   0.961E-04    0.322E-04
RMM:  16    -0.413705777257E+03   -0.14856E-05   -0.34585E-07  1752   0.882E-04    0.186E-04
RMM:  17    -0.413705777991E+03   -0.73444E-06   -0.21917E-07  1463   0.740E-04
  144 T=   170. E= -.41287317E+03 F= -.41370578E+03 E0= -.41368417E+03  EK= 0.83261E+00 SP= 0.00E+00 SK= 0.00E+00
       N       E                     dE             d eps       ncg     rms          rms(c)
RMM:   1    -0.413907302478E+03   -0.20153E+00   -0.17478E+01  4298   0.754E+00    0.118E+00
RMM:   2    -0.413761854689E+03    0.14545E+00   -0.38841E-01  5300   0.754E-01    0.101E+00
RMM:   3    -0.413791113190E+03   -0.29259E-01   -0.10634E-01  5574   0.354E-01    0.116E+00
RMM:   4    -0.413750621261E+03    0.40492E-01   -0.57320E-02  5152   0.277E-01    0.452E-01
RMM:   5    -0.413749276157E+03    0.13451E-02   -0.41997E-02  4994   0.253E-01    0.250E-01
RMM:   6    -0.413747199941E+03    0.20762E-02   -0.13339E-02  5121   0.144E-01    0.139E-01
RMM:   7    -0.413746379076E+03    0.82086E-03   -0.15930E-03  4558   0.602E-02    0.551E-02
RMM:   8    -0.413746390691E+03   -0.11615E-04   -0.99834E-04  5783   0.346E-02    0.340E-02
RMM:   9    -0.413746387072E+03    0.36190E-05   -0.18283E-04  5047   0.171E-02    0.188E-02
RMM:  10    -0.413746389063E+03   -0.19911E-05   -0.59719E-05  5490   0.923E-03    0.882E-03
RMM:  11    -0.413746396832E+03   -0.77688E-05   -0.18730E-05  4561   0.519E-03    0.560E-03
RMM:  12    -0.413746403708E+03   -0.68758E-05   -0.44722E-06  2975   0.324E-03    0.272E-03
RMM:  13    -0.413746407107E+03   -0.33993E-05   -0.15925E-06  2618   0.195E-03    0.108E-03
RMM:  14    -0.413746410058E+03   -0.29507E-05   -0.10208E-06  2495   0.148E-03    0.580E-04
RMM:  15    -0.413746412428E+03   -0.23704E-05   -0.76289E-07  2203   0.118E-03    0.404E-04
RMM:  16    -0.413746414046E+03   -0.16175E-05   -0.62480E-07  1964   0.103E-03    0.225E-04
RMM:  17    -0.413746414743E+03   -0.69709E-06   -0.50311E-07  1900   0.932E-04
  145 T=   176. E= -.41288016E+03 F= -.41374641E+03 E0= -.41372496E+03  EK= 0.86626E+00 SP= 0.00E+00 SK= 0.00E+00
       N       E                     dE             d eps       ncg     rms          rms(c)
RMM:   1    -0.413829236624E+03   -0.82823E-01   -0.16709E+01  4298   0.760E+00    0.102E+00
RMM:   2    -0.413722690488E+03    0.10655E+00   -0.37466E-01  5308   0.764E-01    0.982E-01
RMM:   3    -0.413724997260E+03   -0.23068E-02   -0.82903E-02  5628   0.320E-01    0.969E-01
RMM:   4    -0.413702684275E+03    0.22313E-01   -0.35608E-02  5196   0.220E-01    0.488E-01
RMM:   5    -0.413703331156E+03   -0.64688E-03   -0.31758E-02  4959   0.223E-01    0.297E-01
RMM:   6    -0.413701591907E+03    0.17392E-02   -0.16749E-02  5075   0.157E-01    0.157E-01
RMM:   7    -0.413700524230E+03    0.10677E-02   -0.23974E-03  4805   0.710E-02    0.712E-02
RMM:   8    -0.413700492938E+03    0.31293E-04   -0.90539E-04  5836   0.336E-02    0.459E-02
RMM:   9    -0.413700476521E+03    0.16416E-04   -0.32949E-04  4590   0.226E-02    0.164E-02
RMM:  10    -0.413700488581E+03   -0.12059E-04   -0.74856E-05  5578   0.104E-02    0.102E-02
RMM:  11    -0.413700496160E+03   -0.75789E-05   -0.17650E-05  4378   0.548E-03    0.614E-03
RMM:  12    -0.413700506115E+03   -0.99549E-05   -0.69022E-06  3274   0.387E-03    0.351E-03
RMM:  13    -0.413700511056E+03   -0.49418E-05   -0.24934E-06  2714   0.236E-03    0.147E-03
RMM:  14    -0.413700514364E+03   -0.33072E-05   -0.16102E-06  2609   0.175E-03    0.921E-04
RMM:  15    -0.413700516336E+03   -0.19722E-05   -0.11129E-06  2411   0.139E-03    0.603E-04
RMM:  16    -0.413700517495E+03   -0.11588E-05   -0.11892E-06  2407   0.134E-03    0.399E-04
RMM:  17    -0.413700517175E+03    0.31999E-06   -0.60133E-07  1767   0.934E-04
  146 T=   168. E= -.41287715E+03 F= -.41370052E+03 E0= -.41367910E+03  EK= 0.82336E+00 SP= 0.00E+00 SK= 0.00E+00
       N       E                     dE             d eps       ncg     rms          rms(c)
RMM:   1    -0.413665368560E+03    0.35149E-01   -0.14027E+01  4296   0.718E+00    0.764E-01
RMM:   2    -0.413616415568E+03    0.48953E-01   -0.32133E-01  5323   0.696E-01    0.783E-01
RMM:   3    -0.413616317024E+03    0.98544E-04   -0.59375E-02  5673   0.268E-01    0.763E-01
RMM:   4    -0.413602045999E+03    0.14271E-01   -0.18038E-02  5167   0.161E-01    0.424E-01
RMM:   5    -0.413602758447E+03   -0.71245E-03   -0.17417E-02  4916   0.165E-01    0.270E-01
RMM:   6    -0.413601981941E+03    0.77651E-03   -0.14279E-02  5087   0.141E-01    0.139E-01
RMM:   7    -0.413601175537E+03    0.80640E-03   -0.25089E-03  5188   0.674E-02    0.775E-02
RMM:   8    -0.413601084888E+03    0.90648E-04   -0.59256E-04  5754   0.282E-02    0.499E-02
RMM:   9    -0.413601059846E+03    0.25042E-04   -0.45389E-04  4520   0.252E-02    0.138E-02
RMM:  10    -0.413601074398E+03   -0.14552E-04   -0.82567E-05  5567   0.106E-02    0.107E-02
RMM:  11    -0.413601078406E+03   -0.40080E-05   -0.16598E-05  4163   0.535E-03    0.546E-03
RMM:  12    -0.413601087990E+03   -0.95846E-05   -0.74689E-06  3286   0.386E-03    0.339E-03
RMM:  13    -0.413601093420E+03   -0.54301E-05   -0.26087E-06  2737   0.237E-03    0.154E-03
RMM:  14    -0.413601096563E+03   -0.31424E-05   -0.18215E-06  2617   0.179E-03    0.935E-04
RMM:  15    -0.413601098059E+03   -0.14960E-05   -0.11381E-06  2325   0.134E-03    0.667E-04
RMM:  16    -0.413601098835E+03   -0.77654E-06   -0.16133E-06  2569   0.151E-03
  147 T=   148. E= -.41287188E+03 F= -.41360110E+03 E0= -.41357970E+03  EK= 0.72922E+00 SP= 0.00E+00 SK= 0.00E+00
       N       E                     dE             d eps       ncg     rms          rms(c)
RMM:   1    -0.413543446679E+03    0.57651E-01   -0.11584E+01  4288   0.660E+00    0.690E-01
RMM:   2    -0.413524492699E+03    0.18954E-01   -0.27709E-01  5308   0.632E-01    0.648E-01
RMM:   3    -0.413535239781E+03   -0.10747E-01   -0.49796E-02  5710   0.240E-01    0.732E-01
RMM:   4    -0.413519662992E+03    0.15577E-01   -0.15964E-02  5124   0.150E-01    0.380E-01
RMM:   5    -0.413519970006E+03   -0.30701E-03   -0.13301E-02  4822   0.148E-01    0.204E-01
RMM:   6    -0.413519478409E+03    0.49160E-03   -0.80954E-03  5102   0.108E-01    0.996E-02
RMM:   7    -0.413519022361E+03    0.45605E-03   -0.15080E-03  5313   0.509E-02    0.592E-02
RMM:   8    -0.413518961891E+03    0.60470E-04   -0.31966E-04  5555   0.214E-02    0.381E-02
RMM:   9    -0.413518953871E+03    0.80192E-05   -0.30652E-04  4563   0.209E-02    0.124E-02
RMM:  10    -0.413518959638E+03   -0.57669E-05   -0.54174E-05  5439   0.859E-03    0.987E-03
RMM:  11    -0.413518959516E+03    0.12194E-06   -0.12810E-05  3978   0.459E-03    0.428E-03
RMM:  12    -0.413518963462E+03   -0.39457E-05   -0.52879E-06  3062   0.324E-03    0.265E-03
RMM:  13    -0.413518966116E+03   -0.26541E-05   -0.15597E-06  2596   0.199E-03    0.128E-03
RMM:  14    -0.413518967379E+03   -0.12626E-05   -0.11815E-06  2483   0.152E-03    0.655E-04
RMM:  15    -0.413518967515E+03   -0.13622E-06   -0.70940E-07  2078   0.110E-03
  148 T=   132. E= -.41287094E+03 F= -.41351897E+03 E0= -.41349756E+03  EK= 0.64803E+00 SP= 0.00E+00 SK= 0.00E+00
       N       E                     dE             d eps       ncg     rms          rms(c)
RMM:   1    -0.413483628441E+03    0.35339E-01   -0.10311E+01  4271   0.613E+00    0.846E-01
RMM:   2    -0.413471517445E+03    0.12111E-01   -0.28816E-01  5308   0.622E-01    0.728E-01
RMM:   3    -0.413494535945E+03   -0.23019E-01   -0.54942E-02  5618   0.254E-01    0.811E-01
RMM:   4    -0.413475751328E+03    0.18785E-01   -0.30576E-02  5199   0.187E-01    0.463E-01
RMM:   5    -0.413471676614E+03    0.40747E-02   -0.17330E-02  4768   0.175E-01    0.154E-01
RMM:   6    -0.413470808097E+03    0.86852E-03   -0.23335E-03  4708   0.712E-02    0.545E-02
RMM:   7    -0.413470766046E+03    0.42052E-04   -0.65983E-04  5593   0.314E-02    0.363E-02
RMM:   8    -0.413470742406E+03    0.23640E-04   -0.29658E-04  5463   0.195E-02    0.263E-02
RMM:   9    -0.413470733299E+03    0.91069E-05   -0.11043E-04  4931   0.135E-02    0.136E-02
RMM:  10    -0.413470731617E+03    0.16825E-05   -0.34388E-05  5357   0.724E-03    0.804E-03
RMM:  11    -0.413470730463E+03    0.11539E-05   -0.97938E-06  3858   0.404E-03    0.386E-03
RMM:  12    -0.413470730329E+03    0.13394E-06   -0.23985E-06  2657   0.249E-03
  149 T=   122. E= -.41287347E+03 F= -.41347073E+03 E0= -.41344922E+03  EK= 0.59726E+00 SP= 0.00E+00 SK= 0.00E+00
       N       E                     dE             d eps       ncg     rms          rms(c)
RMM:   1    -0.413443432065E+03    0.27298E-01   -0.95118E+00  4264   0.583E+00    0.110E+00
RMM:   2    -0.413433887444E+03    0.95446E-02   -0.27483E-01  5286   0.616E-01    0.918E-01
RMM:   3    -0.413435828459E+03   -0.19410E-02   -0.45840E-02  5183   0.260E-01    0.497E-01
RMM:   4    -0.413503052231E+03   -0.67224E-01   -0.84118E-02  5218   0.287E-01    0.102E+00
RMM:   5    -0.413434644959E+03    0.68407E-01   -0.41129E-02  4989   0.218E-01    0.176E-01
RMM:   6    -0.413433701131E+03    0.94383E-03   -0.84647E-03  5610   0.109E-01    0.623E-02
RMM:   7    -0.413433643308E+03    0.57823E-04   -0.17721E-03  5744   0.449E-02    0.411E-02
RMM:   8    -0.413433621495E+03    0.21813E-04   -0.42987E-04  5494   0.229E-02    0.266E-02
RMM:   9    -0.413433603909E+03    0.17586E-04   -0.91798E-05  4942   0.126E-02    0.121E-02
RMM:  10    -0.413433603862E+03    0.47268E-07   -0.34302E-05  5268   0.678E-03    0.739E-03
RMM:  11    -0.413433602767E+03    0.10944E-05   -0.74123E-06  3320   0.356E-03    0.422E-03
RMM:  12    -0.413433603504E+03   -0.73709E-06   -0.21571E-06  2648   0.246E-03
  150 T=   114. E= -.41287213E+03 F= -.41343360E+03 E0= -.41341184E+03  EK= 0.56148E+00 SP= 0.00E+00 SK= 0.00E+00
