       N       E                     dE             d eps       ncg     rms          rms(c)
RMM:   1     0.220158143015E+04    0.22016E+04   -0.52444E+04  2132   0.654E+02
RMM:   2     0.705450095904E+03   -0.14961E+04   -0.16264E+04  2132   0.177E+02
RMM:   3     0.137289433930E+03   -0.56816E+03   -0.65752E+03  2132   0.117E+02
RMM:   4    -0.159303077534E+03   -0.29659E+03   -0.27854E+03  2132   0.936E+01
RMM:   5    -0.287588150149E+03   -0.12829E+03   -0.11472E+03  2132   0.595E+01
RMM:   6    -0.349767884291E+03   -0.62180E+02   -0.55083E+02  2132   0.423E+01
RMM:   7    -0.382599141832E+03   -0.32831E+02   -0.30382E+02  2132   0.293E+01
RMM:   8    -0.404197457268E+03   -0.21598E+02   -0.18449E+02  2132   0.234E+01
RMM:   9    -0.435990855279E+03   -0.31793E+02   -0.30673E+02  6104   0.173E+01
RMM:  10    -0.441285553910E+03   -0.52947E+01   -0.63277E+01  6396   0.539E+00
RMM:  11    -0.442522237458E+03   -0.12367E+01   -0.11099E+01  6219   0.173E+00
RMM:  12    -0.442879365906E+03   -0.35713E+00   -0.26599E+00  6370   0.602E-01    0.134E+02
RMM:  13    -0.425552638384E+03    0.17327E+02   -0.80565E+01  4671   0.119E+01    0.712E+01
RMM:  14    -0.498868140665E+03   -0.73316E+02   -0.53916E+02  5428   0.232E+01    0.306E+01
RMM:  15    -0.414430715514E+03    0.84437E+02   -0.19582E+02  5072   0.163E+01    0.619E+00
RMM:  16    -0.414053519767E+03    0.37720E+00   -0.39361E+01  6078   0.603E+00    0.428E+00
RMM:  17    -0.413220753288E+03    0.83277E+00   -0.23157E+00  5346   0.181E+00    0.245E+00
RMM:  18    -0.413165384732E+03    0.55369E-01   -0.91583E-01  5955   0.983E-01    0.158E+00
RMM:  19    -0.413168485562E+03   -0.31008E-02   -0.28436E-01  5720   0.565E-01    0.855E-01
RMM:  20    -0.413183440265E+03   -0.14955E-01   -0.20152E-01  5390   0.490E-01    0.532E-01
RMM:  21    -0.413168257995E+03    0.15182E-01   -0.33415E-02  5034   0.223E-01    0.254E-01
RMM:  22    -0.413166372223E+03    0.18858E-02   -0.14713E-02  6047   0.103E-01    0.141E-01
RMM:  23    -0.413164799933E+03    0.15723E-02   -0.48223E-03  5939   0.620E-02    0.794E-02
RMM:  24    -0.413163109821E+03    0.16901E-02   -0.17761E-03  5510   0.411E-02    0.356E-02
RMM:  25    -0.413162786940E+03    0.32288E-03   -0.87094E-04  5922   0.244E-02    0.273E-02
RMM:  26    -0.413162974352E+03   -0.18741E-03   -0.64961E-04  5847   0.257E-02    0.336E-02
RMM:  27    -0.413163361793E+03   -0.38744E-03   -0.21066E-04  4590   0.202E-02    0.165E-02
RMM:  28    -0.413163821403E+03   -0.45961E-03   -0.22298E-04  5350   0.202E-02    0.905E-03
RMM:  29    -0.413164148873E+03   -0.32747E-03   -0.94279E-05  4294   0.138E-02    0.446E-03
RMM:  30    -0.413164366802E+03   -0.21793E-03   -0.81471E-05  3997   0.101E-02    0.296E-03
RMM:  31    -0.413164471584E+03   -0.10478E-03   -0.51467E-05  3116   0.625E-03    0.217E-03
RMM:  32    -0.413164491836E+03   -0.20251E-04   -0.21119E-05  2940   0.292E-03    0.119E-03
RMM:  33    -0.413164498384E+03   -0.65488E-05   -0.89841E-06  2783   0.207E-03    0.571E-04
RMM:  34    -0.413164498704E+03   -0.31954E-06   -0.44881E-06  2538   0.146E-03
    1 T=    61. E= -.41286668E+03 F= -.41316450E+03 E0= -.41314200E+03  EK= 0.29782E+00 SP= 0.00E+00 SK= 0.00E+00
       N       E                     dE             d eps       ncg     rms          rms(c)
RMM:   1    -0.413170105808E+03   -0.56074E-02   -0.71635E+00  3986   0.535E-01    0.897E-01
RMM:   2    -0.413170472791E+03   -0.36698E-03   -0.90207E-02  3924   0.783E-02    0.660E-01
RMM:   3    -0.413165883854E+03    0.45889E-02   -0.36557E-02  4977   0.667E-02    0.214E-01
RMM:   4    -0.413190225775E+03   -0.24342E-01   -0.30439E-02  5180   0.147E-01    0.669E-01
RMM:   5    -0.413163997395E+03    0.26228E-01   -0.12560E-02  4819   0.114E-01    0.505E-02
RMM:   6    -0.413164178798E+03   -0.18140E-03   -0.22997E-03  5708   0.471E-02    0.337E-02
RMM:   7    -0.413164185393E+03   -0.65957E-05   -0.42149E-04  5766   0.183E-02    0.212E-02
RMM:   8    -0.413164182951E+03    0.24425E-05   -0.48613E-05  5112   0.780E-03    0.823E-03
RMM:   9    -0.413164185534E+03   -0.25828E-05   -0.10601E-05  3446   0.337E-03    0.578E-03
RMM:  10    -0.413164190546E+03   -0.50126E-05   -0.22521E-06  2594   0.218E-03    0.342E-03
RMM:  11    -0.413164194405E+03   -0.38591E-05   -0.11957E-06  2514   0.158E-03    0.178E-03
RMM:  12    -0.413164200073E+03   -0.56674E-05   -0.12786E-06  2515   0.159E-03    0.803E-04
RMM:  13    -0.413164202820E+03   -0.27473E-05   -0.64439E-07  2292   0.115E-03    0.563E-04
RMM:  14    -0.413164203032E+03   -0.21173E-06   -0.35249E-07  1784   0.814E-04
    2 T=    61. E= -.41286641E+03 F= -.41316420E+03 E0= -.41314170E+03  EK= 0.29779E+00 SP= 0.00E+00 SK= 0.00E+00
       N       E                     dE             d eps       ncg     rms          rms(c)
RMM:   1    -0.413171162527E+03   -0.69597E-02   -0.71286E+00  4192   0.536E-01    0.912E-01
RMM:   2    -0.413170653311E+03    0.50922E-03   -0.90282E-02  3930   0.774E-02    0.658E-01
RMM:   3    -0.413166551250E+03    0.41021E-02   -0.33753E-02  5045   0.633E-02    0.201E-01
RMM:   4    -0.413193893990E+03   -0.27343E-01   -0.33657E-02  5153   0.155E-01    0.707E-01
RMM:   5    -0.413164588933E+03    0.29305E-01   -0.13515E-02  4801   0.118E-01    0.506E-02
RMM:   6    -0.413164794399E+03   -0.20547E-03   -0.25154E-03  5718   0.494E-02    0.362E-02
RMM:   7    -0.413164781162E+03    0.13238E-04   -0.45134E-04  5652   0.199E-02    0.233E-02
RMM:   8    -0.413164772590E+03    0.85719E-05   -0.58929E-05  5243   0.874E-03    0.103E-02
RMM:   9    -0.413164770325E+03    0.22649E-05   -0.11496E-05  3727   0.380E-03    0.695E-03
RMM:  10    -0.413164770285E+03    0.40087E-07   -0.21949E-06  2587   0.233E-03
    3 T=    61. E= -.41286678E+03 F= -.41316477E+03 E0= -.41314227E+03  EK= 0.29799E+00 SP= 0.00E+00 SK= 0.00E+00
       N       E                     dE             d eps       ncg     rms          rms(c)
RMM:   1    -0.413170524838E+03   -0.57545E-02   -0.70779E+00  4219   0.540E-01    0.898E-01
RMM:   2    -0.413170337031E+03    0.18781E-03   -0.89878E-02  4259   0.771E-02    0.652E-01
RMM:   3    -0.413174042236E+03   -0.37052E-02   -0.39000E-02  5177   0.103E-01    0.419E-01
RMM:   4    -0.413180469224E+03   -0.64270E-02   -0.33544E-02  5081   0.160E-01    0.530E-01
RMM:   5    -0.413164534089E+03    0.15935E-01   -0.61025E-03  4602   0.886E-02    0.527E-02
RMM:   6    -0.413164542060E+03   -0.79712E-05   -0.12158E-03  5346   0.350E-02    0.314E-02
RMM:   7    -0.413164559802E+03   -0.17742E-04   -0.24964E-04  5726   0.149E-02    0.181E-02
RMM:   8    -0.413164556758E+03    0.30441E-05   -0.39300E-05  5004   0.743E-03    0.686E-03
RMM:   9    -0.413164556399E+03    0.35848E-06   -0.44139E-06  2870   0.280E-03
    4 T=    61. E= -.41286663E+03 F= -.41316456E+03 E0= -.41314207E+03  EK= 0.29793E+00 SP= 0.00E+00 SK= 0.00E+00
       N       E                     dE             d eps       ncg     rms          rms(c)
RMM:   1    -0.413170555566E+03   -0.59988E-02   -0.71581E+00  4240   0.548E-01    0.894E-01
RMM:   2    -0.413170828559E+03   -0.27299E-03   -0.90526E-02  4129   0.770E-02    0.659E-01
RMM:   3    -0.413170121799E+03    0.70676E-03   -0.38792E-02  5127   0.862E-02    0.333E-01
RMM:   4    -0.413188102904E+03   -0.17981E-01   -0.35772E-02  5102   0.162E-01    0.641E-01
RMM:   5    -0.413164590059E+03    0.23513E-01   -0.10065E-02  4697   0.107E-01    0.523E-02
RMM:   6    -0.413164696513E+03   -0.10645E-03   -0.18670E-03  5605   0.430E-02    0.318E-02
RMM:   7    -0.413164721245E+03   -0.24732E-04   -0.34250E-04  5786   0.168E-02    0.200E-02
RMM:   8    -0.413164723786E+03   -0.25413E-05   -0.45521E-05  5063   0.788E-03    0.767E-03
RMM:   9    -0.413164726042E+03   -0.22562E-05   -0.69444E-06  3154   0.315E-03    0.451E-03
RMM:  10    -0.413164730774E+03   -0.47318E-05   -0.16953E-06  2547   0.207E-03    0.276E-03
RMM:  11    -0.413164734357E+03   -0.35834E-05   -0.93306E-07  2500   0.153E-03    0.140E-03
RMM:  12    -0.413164738931E+03   -0.45740E-05   -0.10071E-06  2508   0.143E-03    0.669E-04
RMM:  13    -0.413164741239E+03   -0.23072E-05   -0.53204E-07  2164   0.107E-03    0.395E-04
RMM:  14    -0.413164741701E+03   -0.46242E-06   -0.23502E-07  1619   0.790E-04
    5 T=    61. E= -.41286668E+03 F= -.41316474E+03 E0= -.41314226E+03  EK= 0.29806E+00 SP= 0.00E+00 SK= 0.00E+00
       N       E                     dE             d eps       ncg     rms          rms(c)
RMM:   1    -0.413171464995E+03   -0.67238E-02   -0.71399E+00  4246   0.549E-01    0.909E-01
RMM:   2    -0.413171068417E+03    0.39658E-03   -0.90326E-02  4104   0.769E-02    0.659E-01
RMM:   3    -0.413167448135E+03    0.36203E-02   -0.34519E-02  5055   0.660E-02    0.222E-01
RMM:   4    -0.413194654913E+03   -0.27207E-01   -0.35263E-02  5125   0.158E-01    0.712E-01
RMM:   5    -0.413165019470E+03    0.29635E-01   -0.13519E-02  4760   0.119E-01    0.515E-02
RMM:   6    -0.413165215549E+03   -0.19608E-03   -0.24592E-03  5680   0.492E-02    0.354E-02
RMM:   7    -0.413165221183E+03   -0.56342E-05   -0.43720E-04  5655   0.194E-02    0.228E-02
RMM:   8    -0.413165216033E+03    0.51497E-05   -0.57753E-05  5232   0.861E-03    0.974E-03
RMM:   9    -0.413165214422E+03    0.16117E-05   -0.10765E-05  3656   0.373E-03    0.637E-03
RMM:  10    -0.413165214879E+03   -0.45720E-06   -0.20481E-06  2569   0.228E-03
    6 T=    61. E= -.41286685E+03 F= -.41316521E+03 E0= -.41314275E+03  EK= 0.29836E+00 SP= 0.00E+00 SK= 0.00E+00
       N       E                     dE             d eps       ncg     rms          rms(c)
RMM:   1    -0.413171085772E+03   -0.58714E-02   -0.70968E+00  4255   0.553E-01    0.903E-01
RMM:   2    -0.413170723061E+03    0.36271E-03   -0.90002E-02  4229   0.790E-02    0.654E-01
RMM:   3    -0.413172550789E+03   -0.18277E-02   -0.37266E-02  5146   0.942E-02    0.376E-01
RMM:   4    -0.413183525546E+03   -0.10975E-01   -0.34318E-02  5086   0.160E-01    0.569E-01
RMM:   5    -0.413164943149E+03    0.18582E-01   -0.73508E-03  4646   0.942E-02    0.531E-02
RMM:   6    -0.413164977655E+03   -0.34506E-04   -0.14245E-03  5427   0.379E-02    0.322E-02
RMM:   7    -0.413164988189E+03   -0.10533E-04   -0.28383E-04  5778   0.158E-02    0.192E-02
RMM:   8    -0.413164981926E+03    0.62626E-05   -0.43927E-05  5034   0.783E-03    0.737E-03
RMM:   9    -0.413164979609E+03    0.23169E-05   -0.54057E-06  2979   0.299E-03    0.388E-03
RMM:  10    -0.413164978991E+03    0.61807E-06   -0.14938E-06  2533   0.198E-03
    7 T=    61. E= -.41286652E+03 F= -.41316498E+03 E0= -.41314253E+03  EK= 0.29846E+00 SP= 0.00E+00 SK= 0.00E+00
       N       E                     dE             d eps       ncg     rms          rms(c)
RMM:   1    -0.413171296646E+03   -0.63170E-02   -0.71494E+00  4267   0.560E-01    0.893E-01
RMM:   2    -0.413171729747E+03   -0.43310E-03   -0.90209E-02  4127   0.804E-02    0.657E-01
RMM:   3    -0.413168535202E+03    0.31945E-02   -0.36851E-02  5029   0.750E-02    0.259E-01
RMM:   4    -0.413193997154E+03   -0.25462E-01   -0.35731E-02  5113   0.160E-01    0.702E-01
RMM:   5    -0.413165336321E+03    0.28661E-01   -0.13011E-02  4744   0.117E-01    0.509E-02
RMM:   6    -0.413165525371E+03   -0.18905E-03   -0.23815E-03  5681   0.482E-02    0.341E-02
RMM:   7    -0.413165535168E+03   -0.97968E-05   -0.41864E-04  5684   0.190E-02    0.222E-02
RMM:   8    -0.413165530941E+03    0.42267E-05   -0.55318E-05  5191   0.843E-03    0.930E-03
RMM:   9    -0.413165530466E+03    0.47507E-06   -0.10080E-05  3564   0.365E-03    0.600E-03
RMM:  10    -0.413165533204E+03   -0.27381E-05   -0.19367E-06  2560   0.225E-03    0.357E-03
RMM:  11    -0.413165535129E+03   -0.19245E-05   -0.97958E-07  2509   0.159E-03    0.196E-03
RMM:  12    -0.413165538096E+03   -0.29675E-05   -0.13723E-06  2537   0.172E-03    0.947E-04
RMM:  13    -0.413165539386E+03   -0.12895E-05   -0.67361E-07  2374   0.125E-03    0.731E-04
RMM:  14    -0.413165539206E+03    0.17942E-06   -0.24184E-07  1857   0.836E-04
    8 T=    61. E= -.41286671E+03 F= -.41316554E+03 E0= -.41314311E+03  EK= 0.29883E+00 SP= 0.00E+00 SK= 0.00E+00
       N       E                     dE             d eps       ncg     rms          rms(c)
RMM:   1    -0.413171812584E+03   -0.62732E-02   -0.71639E+00  4280   0.563E-01    0.906E-01
RMM:   2    -0.413171863357E+03   -0.50773E-04   -0.90419E-02  4193   0.806E-02    0.660E-01
RMM:   3    -0.413167743890E+03    0.41195E-02   -0.35202E-02  4990   0.683E-02    0.218E-01
RMM:   4    -0.413194722855E+03   -0.26979E-01   -0.33785E-02  5121   0.155E-01    0.707E-01
RMM:   5    -0.413165515110E+03    0.29208E-01   -0.13586E-02  4778   0.118E-01    0.497E-02
RMM:   6    -0.413165719505E+03   -0.20439E-03   -0.24303E-03  5708   0.486E-02    0.355E-02
RMM:   7    -0.413165715120E+03    0.43851E-05   -0.43093E-04  5621   0.197E-02    0.227E-02
RMM:   8    -0.413165709147E+03    0.59731E-05   -0.56484E-05  5174   0.864E-03    0.992E-03
RMM:   9    -0.413165707689E+03    0.14576E-05   -0.11051E-05  3678   0.378E-03    0.671E-03
RMM:  10    -0.413165708279E+03   -0.58948E-06   -0.20128E-06  2566   0.228E-03
    9 T=    61. E= -.41286665E+03 F= -.41316571E+03 E0= -.41314330E+03  EK= 0.29906E+00 SP= 0.00E+00 SK= 0.00E+00
       N       E                     dE             d eps       ncg     rms          rms(c)
RMM:   1    -0.413172152303E+03   -0.64446E-02   -0.71262E+00  4289   0.571E-01    0.909E-01
RMM:   2    -0.413171790653E+03    0.36165E-03   -0.90588E-02  4295   0.802E-02    0.656E-01
RMM:   3    -0.413174274980E+03   -0.24843E-02   -0.37837E-02  5145   0.996E-02    0.396E-01
RMM:   4    -0.413183023075E+03   -0.87481E-02   -0.33925E-02  5065   0.160E-01    0.549E-01
RMM:   5    -0.413165772175E+03    0.17251E-01   -0.65686E-03  4623   0.909E-02    0.531E-02
RMM:   6    -0.413165794842E+03   -0.22666E-04   -0.13623E-03  5394   0.363E-02    0.323E-02
RMM:   7    -0.413165805092E+03   -0.10251E-04   -0.26776E-04  5730   0.155E-02    0.188E-02
RMM:   8    -0.413165801022E+03    0.40707E-05   -0.42038E-05  5005   0.765E-03    0.718E-03
RMM:   9    -0.413165798260E+03    0.27612E-05   -0.48479E-06  2901   0.290E-03    0.379E-03
RMM:  10    -0.413165796758E+03    0.15027E-05   -0.14245E-06  2522   0.194E-03    0.226E-03
RMM:  11    -0.413165795000E+03    0.17583E-05   -0.89291E-07  2461   0.149E-03    0.111E-03
RMM:  12    -0.413165792648E+03    0.23515E-05   -0.71983E-07  2441   0.126E-03    0.505E-04
RMM:  13    -0.413165791106E+03    0.15420E-05   -0.34208E-07  1933   0.931E-04    0.315E-04
RMM:  14    -0.413165789575E+03    0.15309E-05   -0.21195E-07  1485   0.761E-04    0.189E-04
RMM:  15    -0.413165786570E+03    0.30053E-05   -0.30531E-07  1751   0.803E-04    0.279E-04
RMM:  16    -0.413165783738E+03    0.28315E-05   -0.21588E-07  1331   0.687E-04    0.172E-04
RMM:  17    -0.413165782559E+03    0.11790E-05   -0.98291E-08  1043   0.592E-04    0.905E-05
RMM:  18    -0.413165780780E+03    0.17796E-05   -0.93895E-08  1080   0.600E-04    0.521E-05
RMM:  19    -0.413165780527E+03    0.25259E-06   -0.34434E-08   772   0.536E-04
   10 T=    61. E= -.41286657E+03 F= -.41316578E+03 E0= -.41314340E+03  EK= 0.29921E+00 SP= 0.00E+00 SK= 0.00E+00
       N       E                     dE             d eps       ncg     rms          rms(c)
RMM:   1    -0.413172393146E+03   -0.66124E-02   -0.71354E+00  4287   0.573E-01    0.892E-01
RMM:   2    -0.413172628737E+03   -0.23559E-03   -0.90221E-02  4208   0.781E-02    0.655E-01
RMM:   3    -0.413168951206E+03    0.36775E-02   -0.35822E-02  5006   0.691E-02    0.235E-01
RMM:   4    -0.413195544584E+03   -0.26593E-01   -0.34795E-02  5113   0.157E-01    0.707E-01
RMM:   5    -0.413166404273E+03    0.29140E-01   -0.13472E-02  4761   0.118E-01    0.501E-02
RMM:   6    -0.413166597041E+03   -0.19277E-03   -0.23975E-03  5673   0.483E-02    0.348E-02
RMM:   7    -0.413166594769E+03    0.22720E-05   -0.42525E-04  5591   0.193E-02    0.224E-02
RMM:   8    -0.413166592153E+03    0.26164E-05   -0.56276E-05  5176   0.855E-03    0.957E-03
RMM:   9    -0.413166591491E+03    0.66174E-06   -0.10748E-05  3655   0.374E-03    0.635E-03
RMM:  10    -0.413166593367E+03   -0.18761E-05   -0.19353E-06  2551   0.224E-03    0.376E-03
RMM:  11    -0.413166594551E+03   -0.11840E-05   -0.92854E-07  2491   0.157E-03    0.210E-03
RMM:  12    -0.413166596388E+03   -0.18367E-05   -0.13086E-06  2519   0.172E-03    0.102E-03
RMM:  13    -0.413166597011E+03   -0.62313E-06   -0.56940E-07  2364   0.124E-03
   11 T=    61. E= -.41286695E+03 F= -.41316660E+03 E0= -.41314424E+03  EK= 0.29964E+00 SP= 0.00E+00 SK= 0.00E+00
       N       E                     dE             d eps       ncg     rms          rms(c)
RMM:   1    -0.413172686353E+03   -0.60900E-02   -0.71892E+00  4291   0.577E-01    0.903E-01
RMM:   2    -0.413172536313E+03    0.15004E-03   -0.90793E-02  4225   0.776E-02    0.662E-01
RMM:   3    -0.413168608996E+03    0.39273E-02   -0.35984E-02  5002   0.661E-02    0.223E-01
RMM:   4    -0.413195337470E+03   -0.26728E-01   -0.33609E-02  5116   0.154E-01    0.704E-01
RMM:   5    -0.413166389244E+03    0.28948E-01   -0.13512E-02  4764   0.118E-01    0.491E-02
RMM:   6    -0.413166590345E+03   -0.20110E-03   -0.24430E-03  5731   0.484E-02    0.347E-02
RMM:   7    -0.413166587398E+03    0.29473E-05   -0.41943E-04  5636   0.195E-02    0.226E-02
RMM:   8    -0.413166581461E+03    0.59364E-05   -0.57912E-05  5107   0.861E-03    0.102E-02
RMM:   9    -0.413166579397E+03    0.20640E-05   -0.11095E-05  3681   0.383E-03    0.694E-03
RMM:  10    -0.413166580334E+03   -0.93711E-06   -0.19815E-06  2562   0.227E-03
   12 T=    61. E= -.41286670E+03 F= -.41316658E+03 E0= -.41314425E+03  EK= 0.29988E+00 SP= 0.00E+00 SK= 0.00E+00
       N       E                     dE             d eps       ncg     rms          rms(c)
RMM:   1    -0.413173530526E+03   -0.69511E-02   -0.71557E+00  4304   0.582E-01    0.914E-01
RMM:   2    -0.413172821414E+03    0.70911E-03   -0.90962E-02  4308   0.792E-02    0.658E-01
RMM:   3    -0.413176353585E+03   -0.35322E-02   -0.38456E-02  5149   0.101E-01    0.412E-01
RMM:   4    -0.413183464876E+03   -0.71113E-02   -0.34029E-02  5059   0.160E-01    0.534E-01
RMM:   5    -0.413167106068E+03    0.16359E-01   -0.61277E-03  4597   0.888E-02    0.529E-02
RMM:   6    -0.413167118895E+03   -0.12827E-04   -0.12833E-03  5366   0.353E-02    0.323E-02
RMM:   7    -0.413167126148E+03   -0.72530E-05   -0.25528E-04  5659   0.153E-02    0.185E-02
RMM:   8    -0.413167120447E+03    0.57010E-05   -0.39412E-05  4974   0.753E-03    0.698E-03
RMM:   9    -0.413167116675E+03    0.37725E-05   -0.46182E-06  2883   0.284E-03    0.368E-03
RMM:  10    -0.413167114126E+03    0.25485E-05   -0.13499E-06  2507   0.191E-03    0.218E-03
RMM:  11    -0.413167111337E+03    0.27890E-05   -0.83301E-07  2451   0.146E-03    0.108E-03
RMM:  12    -0.413167107777E+03    0.35604E-05   -0.66237E-07  2400   0.123E-03    0.503E-04
RMM:  13    -0.413167105636E+03    0.21408E-05   -0.31477E-07  1898   0.911E-04    0.324E-04
RMM:  14    -0.413167103559E+03    0.20773E-05   -0.18844E-07  1429   0.741E-04    0.194E-04
RMM:  15    -0.413167099424E+03    0.41343E-05   -0.25592E-07  1705   0.786E-04    0.289E-04
RMM:  16    -0.413167095769E+03    0.36554E-05   -0.17830E-07  1245   0.664E-04    0.155E-04
RMM:  17    -0.413167094265E+03    0.15039E-05   -0.82063E-08   979   0.585E-04    0.823E-05
RMM:  18    -0.413167092299E+03    0.19660E-05   -0.78736E-08  1087   0.598E-04    0.620E-05
RMM:  19    -0.413167091829E+03    0.46963E-06   -0.28788E-08   745   0.534E-04
   13 T=    61. E= -.41286674E+03 F= -.41316709E+03 E0= -.41314479E+03  EK= 0.30035E+00 SP= 0.00E+00 SK= 0.00E+00
       N       E                     dE             d eps       ncg     rms          rms(c)
RMM:   1    -0.413173579315E+03   -0.64870E-02   -0.71357E+00  4292   0.584E-01    0.894E-01
RMM:   2    -0.413173719083E+03   -0.13977E-03   -0.90345E-02  4230   0.801E-02    0.655E-01
RMM:   3    -0.413170280850E+03    0.34382E-02   -0.35196E-02  5013   0.690E-02    0.236E-01
RMM:   4    -0.413197043115E+03   -0.26762E-01   -0.35745E-02  5097   0.159E-01    0.710E-01
RMM:   5    -0.413167579866E+03    0.29463E-01   -0.13499E-02  4745   0.118E-01    0.507E-02
RMM:   6    -0.413167768331E+03   -0.18846E-03   -0.24195E-03  5681   0.486E-02    0.352E-02
RMM:   7    -0.413167767767E+03    0.56374E-06   -0.42591E-04  5585   0.194E-02    0.226E-02
RMM:   8    -0.413167765801E+03    0.19668E-05   -0.57619E-05  5180   0.877E-03    0.972E-03
RMM:   9    -0.413167763658E+03    0.21424E-05   -0.11339E-05  3700   0.384E-03    0.636E-03
RMM:  10    -0.413167764024E+03   -0.36573E-06   -0.19445E-06  2547   0.227E-03
   14 T=    61. E= -.41286684E+03 F= -.41316776E+03 E0= -.41314550E+03  EK= 0.30092E+00 SP= 0.00E+00 SK= 0.00E+00
       N       E                     dE             d eps       ncg     rms          rms(c)
RMM:   1    -0.413173749674E+03   -0.59860E-02   -0.72243E+00  4305   0.590E-01    0.902E-01
RMM:   2    -0.413174139360E+03   -0.38969E-03   -0.91114E-02  4290   0.816E-02    0.663E-01
RMM:   3    -0.413177223892E+03   -0.30845E-02   -0.41471E-02  5116   0.105E-01    0.422E-01
RMM:   4    -0.413185099062E+03   -0.78752E-02   -0.34878E-02  5052   0.162E-01    0.554E-01
RMM:   5    -0.413167764479E+03    0.17335E-01   -0.70287E-03  4593   0.929E-02    0.516E-02
RMM:   6    -0.413167806204E+03   -0.41725E-04   -0.13582E-03  5390   0.359E-02    0.310E-02
RMM:   7    -0.413167822873E+03   -0.16669E-04   -0.26266E-04  5596   0.160E-02    0.182E-02
RMM:   8    -0.413167823258E+03   -0.38523E-06   -0.40383E-05  4953   0.766E-03    0.678E-03
RMM:   9    -0.413167822961E+03    0.29727E-06   -0.50172E-06  2914   0.291E-03
   15 T=    61. E= -.41286647E+03 F= -.41316782E+03 E0= -.41314559E+03  EK= 0.30136E+00 SP= 0.00E+00 SK= 0.00E+00
       N       E                     dE             d eps       ncg     rms          rms(c)
RMM:   1    -0.413175244328E+03   -0.74211E-02   -0.71938E+00  4301   0.592E-01    0.916E-01
RMM:   2    -0.413174926985E+03    0.31734E-03   -0.91203E-02  4269   0.810E-02    0.661E-01
RMM:   3    -0.413174450440E+03    0.47655E-03   -0.36032E-02  5099   0.876E-02    0.325E-01
RMM:   4    -0.413191765911E+03   -0.17315E-01   -0.36024E-02  5067   0.162E-01    0.629E-01
RMM:   5    -0.413168809877E+03    0.22956E-01   -0.93137E-03  4677   0.104E-01    0.532E-02
RMM:   6    -0.413168906125E+03   -0.96247E-04   -0.18429E-03  5577   0.422E-02    0.335E-02
RMM:   7    -0.413168911133E+03   -0.50081E-05   -0.34125E-04  5718   0.173E-02    0.209E-02
RMM:   8    -0.413168900301E+03    0.10832E-04   -0.47301E-05  5051   0.825E-03    0.816E-03
RMM:   9    -0.413168895599E+03    0.47014E-05   -0.71194E-06  3157   0.330E-03    0.461E-03
RMM:  10    -0.413168892248E+03    0.33509E-05   -0.17499E-06  2539   0.214E-03    0.278E-03
RMM:  11    -0.413168889239E+03    0.30093E-05   -0.91816E-07  2475   0.156E-03    0.141E-03
RMM:  12    -0.413168884514E+03    0.47252E-05   -0.89069E-07  2488   0.143E-03    0.668E-04
RMM:  13    -0.413168880995E+03    0.35183E-05   -0.44544E-07  2165   0.107E-03    0.402E-04
RMM:  14    -0.413168879800E+03    0.11959E-05   -0.20732E-07  1614   0.782E-04    0.270E-04
RMM:  15    -0.413168873982E+03    0.58176E-05   -0.32105E-07  1959   0.873E-04    0.457E-04
RMM:  16    -0.413168870493E+03    0.34893E-05   -0.14717E-07  1208   0.642E-04    0.327E-04
RMM:  17    -0.413168868935E+03    0.15575E-05   -0.75502E-08   945   0.571E-04    0.224E-04
RMM:  18    -0.413168866834E+03    0.21011E-05   -0.69567E-08  1022   0.588E-04    0.886E-05
RMM:  19    -0.413168865202E+03    0.16324E-05   -0.60362E-08  1085   0.600E-04    0.111E-04
RMM:  20    -0.413168865230E+03   -0.27921E-07   -0.17077E-08   698   0.539E-04
   16 T=    62. E= -.41286676E+03 F= -.41316887E+03 E0= -.41314667E+03  EK= 0.30210E+00 SP= 0.00E+00 SK= 0.00E+00
       N       E                     dE             d eps       ncg     rms          rms(c)
RMM:   1    -0.413175384075E+03   -0.65189E-02   -0.71575E+00  4295   0.596E-01    0.899E-01
RMM:   2    -0.413175384729E+03   -0.65416E-06   -0.90875E-02  4246   0.799E-02    0.655E-01
RMM:   3    -0.413171746815E+03    0.36379E-02   -0.34593E-02  5005   0.708E-02    0.228E-01
RMM:   4    -0.413199103846E+03   -0.27357E-01   -0.35908E-02  5099   0.160E-01    0.715E-01
RMM:   5    -0.413169197703E+03    0.29906E-01   -0.13686E-02  4752   0.119E-01    0.508E-02
RMM:   6    -0.413169381190E+03   -0.18349E-03   -0.25103E-03  5691   0.490E-02    0.358E-02
RMM:   7    -0.413169369223E+03    0.11966E-04   -0.43499E-04  5586   0.198E-02    0.231E-02
RMM:   8    -0.413169360125E+03    0.90980E-05   -0.59349E-05  5177   0.892E-03    0.101E-02
RMM:   9    -0.413169356605E+03    0.35201E-05   -0.11354E-05  3721   0.389E-03    0.661E-03
RMM:  10    -0.413169355403E+03    0.12022E-05   -0.20440E-06  2560   0.231E-03    0.392E-03
RMM:  11    -0.413169354519E+03    0.88360E-06   -0.95179E-07  2491   0.160E-03
   17 T=    62. E= -.41286674E+03 F= -.41316935E+03 E0= -.41314720E+03  EK= 0.30261E+00 SP= 0.00E+00 SK= 0.00E+00
       N       E                     dE             d eps       ncg     rms          rms(c)
RMM:   1    -0.413175797712E+03   -0.64423E-02   -0.72539E+00  4297   0.603E-01    0.901E-01
RMM:   2    -0.413176011761E+03   -0.21405E-03   -0.91907E-02  4250   0.802E-02    0.664E-01
RMM:   3    -0.413171719520E+03    0.42922E-02   -0.36905E-02  4957   0.674E-02    0.222E-01
RMM:   4    -0.413197713068E+03   -0.25994E-01   -0.31946E-02  5107   0.150E-01    0.694E-01
RMM:   5    -0.413169642445E+03    0.28071E-01   -0.13274E-02  4771   0.116E-01    0.483E-02
RMM:   6    -0.413169833096E+03   -0.19065E-03   -0.24076E-03  5728   0.476E-02    0.341E-02
RMM:   7    -0.413169829003E+03    0.40937E-05   -0.40781E-04  5631   0.193E-02    0.223E-02
RMM:   8    -0.413169821689E+03    0.73136E-05   -0.55602E-05  5030   0.844E-03    0.101E-02
RMM:   9    -0.413169819930E+03    0.17590E-05   -0.11061E-05  3661   0.382E-03    0.701E-03
RMM:  10    -0.413169820588E+03   -0.65822E-06   -0.19618E-06  2554   0.228E-03
   18 T=    62. E= -.41286668E+03 F= -.41316982E+03 E0= -.41314770E+03  EK= 0.30314E+00 SP= 0.00E+00 SK= 0.00E+00
       N       E                     dE             d eps       ncg     rms          rms(c)
RMM:   1    -0.413177437528E+03   -0.76176E-02   -0.72335E+00  4300   0.604E-01    0.917E-01
RMM:   2    -0.413177012378E+03    0.42515E-03   -0.92034E-02  4330   0.806E-02    0.664E-01
RMM:   3    -0.413180237558E+03   -0.32252E-02   -0.39156E-02  5138   0.103E-01    0.412E-01
RMM:   4    -0.413188009855E+03   -0.77723E-02   -0.34572E-02  5048   0.161E-01    0.545E-01
RMM:   5    -0.413171004441E+03    0.17005E-01   -0.63843E-03  4598   0.906E-02    0.523E-02
RMM:   6    -0.413171030662E+03   -0.26221E-04   -0.13426E-03  5383   0.355E-02    0.323E-02
RMM:   7    -0.413171040787E+03   -0.10125E-04   -0.26364E-04  5603   0.158E-02    0.188E-02
RMM:   8    -0.413171036579E+03    0.42084E-05   -0.40524E-05  4954   0.764E-03    0.705E-03
RMM:   9    -0.413171032842E+03    0.37371E-05   -0.49877E-06  2910   0.291E-03    0.378E-03
RMM:  10    -0.413171029995E+03    0.28466E-05   -0.13793E-06  2510   0.193E-03    0.223E-03
RMM:  11    -0.413171027020E+03    0.29750E-05   -0.79644E-07  2453   0.144E-03    0.111E-03
RMM:  12    -0.413171022730E+03    0.42901E-05   -0.67187E-07  2421   0.125E-03    0.523E-04
RMM:  13    -0.413171019783E+03    0.29464E-05   -0.32006E-07  1899   0.920E-04    0.311E-04
RMM:  14    -0.413171017570E+03    0.22136E-05   -0.17639E-07  1425   0.730E-04    0.191E-04
RMM:  15    -0.413171012103E+03    0.54668E-05   -0.23265E-07  1660   0.779E-04    0.306E-04
RMM:  16    -0.413171008267E+03    0.38359E-05   -0.12845E-07  1124   0.630E-04    0.196E-04
RMM:  17    -0.413171006624E+03    0.16434E-05   -0.69473E-08   972   0.577E-04    0.110E-04
RMM:  18    -0.413171004068E+03    0.25553E-05   -0.61814E-08   991   0.585E-04    0.364E-05
RMM:  19    -0.413171003067E+03    0.10011E-05   -0.33277E-08   837   0.556E-04    0.450E-05
RMM:  20    -0.413171002590E+03    0.47754E-06   -0.17646E-08   712   0.538E-04
   19 T=    62. E= -.41286696E+03 F= -.41317100E+03 E0= -.41314893E+03  EK= 0.30404E+00 SP= 0.00E+00 SK= 0.00E+00
       N       E                     dE             d eps       ncg     rms          rms(c)
RMM:   1    -0.413177532754E+03   -0.65297E-02   -0.71977E+00  4293   0.611E-01    0.907E-01
RMM:   2    -0.413177280746E+03    0.25201E-03   -0.91610E-02  4250   0.822E-02    0.658E-01
RMM:   3    -0.413173788759E+03    0.34920E-02   -0.34076E-02  5029   0.688E-02    0.223E-01
RMM:   4    -0.413201630707E+03   -0.27842E-01   -0.36461E-02  5104   0.161E-01    0.719E-01
RMM:   5    -0.413171281730E+03    0.30349E-01   -0.13932E-02  4761   0.120E-01    0.513E-02
RMM:   6    -0.413171458303E+03   -0.17657E-03   -0.25482E-03  5696   0.497E-02    0.362E-02
RMM:   7    -0.413171451644E+03    0.66591E-05   -0.44418E-04  5575   0.201E-02    0.235E-02
RMM:   8    -0.413171445071E+03    0.65730E-05   -0.61888E-05  5181   0.920E-03    0.104E-02
RMM:   9    -0.413171440563E+03    0.45075E-05   -0.12103E-05  3759   0.396E-03    0.677E-03
RMM:  10    -0.413171437890E+03    0.26736E-05   -0.21269E-06  2563   0.236E-03    0.397E-03
RMM:  11    -0.413171436102E+03    0.17879E-05   -0.97958E-07  2495   0.163E-03    0.227E-03
RMM:  12    -0.413171432397E+03    0.37048E-05   -0.14502E-06  2528   0.185E-03    0.109E-03
RMM:  13    -0.413171429439E+03    0.29578E-05   -0.63952E-07  2397   0.132E-03    0.901E-04
RMM:  14    -0.413171429344E+03    0.95431E-07   -0.25304E-07  1924   0.879E-04
   20 T=    62. E= -.41286662E+03 F= -.41317143E+03 E0= -.41314940E+03  EK= 0.30481E+00 SP= 0.00E+00 SK= 0.00E+00
       N       E                     dE             d eps       ncg     rms          rms(c)
RMM:   1    -0.413179272659E+03   -0.78432E-02   -0.72922E+00  4296   0.626E-01    0.901E-01
RMM:   2    -0.413178612719E+03    0.65994E-03   -0.92153E-02  4255   0.821E-02    0.664E-01
RMM:   3    -0.413174788586E+03    0.38241E-02   -0.36881E-02  4996   0.672E-02    0.231E-01
RMM:   4    -0.413201693450E+03   -0.26905E-01   -0.34210E-02  5108   0.156E-01    0.709E-01
RMM:   5    -0.413172367190E+03    0.29326E-01   -0.13724E-02  4764   0.119E-01    0.495E-02
RMM:   6    -0.413172575199E+03   -0.20801E-03   -0.25118E-03  5721   0.491E-02    0.345E-02
RMM:   7    -0.413172577549E+03   -0.23497E-05   -0.42237E-04  5595   0.199E-02    0.227E-02
RMM:   8    -0.413172568356E+03    0.91934E-05   -0.61281E-05  5108   0.897E-03    0.104E-02
RMM:   9    -0.413172565139E+03    0.32169E-05   -0.11831E-05  3745   0.397E-03    0.699E-03
RMM:  10    -0.413172565141E+03   -0.26339E-08   -0.20483E-06  2560   0.233E-03
   21 T=    62. E= -.41286672E+03 F= -.41317257E+03 E0= -.41315058E+03  EK= 0.30584E+00 SP= 0.00E+00 SK= 0.00E+00
       N       E                     dE             d eps       ncg     rms          rms(c)
RMM:   1    -0.413180027306E+03   -0.74622E-02   -0.72959E+00  4298   0.620E-01    0.917E-01
RMM:   2    -0.413179797169E+03    0.23014E-03   -0.92643E-02  4334   0.836E-02    0.667E-01
RMM:   3    -0.413182927039E+03   -0.31299E-02   -0.39880E-02  5126   0.103E-01    0.413E-01
RMM:   4    -0.413191304654E+03   -0.83776E-02   -0.35392E-02  5046   0.163E-01    0.555E-01
RMM:   5    -0.413173664184E+03    0.17640E-01   -0.67616E-03  4601   0.927E-02    0.522E-02
RMM:   6    -0.413173699541E+03   -0.35357E-04   -0.14094E-03  5400   0.365E-02    0.322E-02
RMM:   7    -0.413173698308E+03    0.12323E-05   -0.27208E-04  5612   0.158E-02    0.190E-02
RMM:   8    -0.413173695812E+03    0.24966E-05   -0.42252E-05  4949   0.803E-03    0.713E-03
RMM:   9    -0.413173692328E+03    0.34839E-05   -0.53044E-06  2920   0.307E-03    0.383E-03
RMM:  10    -0.413173689866E+03    0.24620E-05   -0.13894E-06  2511   0.195E-03    0.228E-03
RMM:  11    -0.413173687235E+03    0.26304E-05   -0.81271E-07  2458   0.146E-03    0.115E-03
RMM:  12    -0.413173683250E+03    0.39854E-05   -0.67214E-07  2431   0.126E-03    0.524E-04
RMM:  13    -0.413173680748E+03    0.25024E-05   -0.31645E-07  1917   0.923E-04    0.326E-04
RMM:  14    -0.413173678798E+03    0.19500E-05   -0.17244E-07  1435   0.728E-04    0.206E-04
RMM:  15    -0.413173673961E+03    0.48361E-05   -0.19395E-07  1524   0.746E-04    0.262E-04
RMM:  16    -0.413173669914E+03    0.40476E-05   -0.12403E-07  1130   0.640E-04    0.189E-04
RMM:  17    -0.413173667871E+03    0.20426E-05   -0.68054E-08   940   0.583E-04    0.990E-05
RMM:  18    -0.413173664868E+03    0.30034E-05   -0.65732E-08  1030   0.596E-04    0.377E-05
RMM:  19    -0.413173663896E+03    0.97166E-06   -0.31318E-08   827   0.553E-04
   22 T=    62. E= -.41286677E+03 F= -.41317366E+03 E0= -.41315172E+03  EK= 0.30689E+00 SP= 0.00E+00 SK= 0.00E+00
       N       E                     dE             d eps       ncg     rms          rms(c)
RMM:   1    -0.413182371670E+03   -0.87068E-02   -0.72842E+00  4291   0.644E-01    0.916E-01
RMM:   2    -0.413180462729E+03    0.19089E-02   -0.94139E-02  4276   0.832E-02    0.662E-01
RMM:   3    -0.413176529305E+03    0.39334E-02   -0.33621E-02  4986   0.704E-02    0.214E-01
RMM:   4    -0.413205600085E+03   -0.29071E-01   -0.37181E-02  5100   0.162E-01    0.731E-01
RMM:   5    -0.413174189698E+03    0.31410E-01   -0.14427E-02  4764   0.122E-01    0.516E-02
RMM:   6    -0.413174380881E+03   -0.19118E-03   -0.26825E-03  5697   0.507E-02    0.368E-02
RMM:   7    -0.413174367972E+03    0.12909E-04   -0.45770E-04  5584   0.203E-02    0.239E-02
RMM:   8    -0.413174356041E+03    0.11931E-04   -0.64866E-05  5196   0.929E-03    0.108E-02
RMM:   9    -0.413174350365E+03    0.56756E-05   -0.12591E-05  3835   0.409E-03    0.708E-03
RMM:  10    -0.413174346557E+03    0.38076E-05   -0.21984E-06  2572   0.239E-03    0.420E-03
RMM:  11    -0.413174344080E+03    0.24772E-05   -0.10374E-06  2507   0.165E-03    0.243E-03
RMM:  12    -0.413174338959E+03    0.51216E-05   -0.15566E-06  2542   0.191E-03    0.113E-03
RMM:  13    -0.413174335126E+03    0.38323E-05   -0.70068E-07  2409   0.137E-03    0.954E-04
RMM:  14    -0.413174334980E+03    0.14637E-06   -0.27172E-07  1991   0.906E-04
   23 T=    63. E= -.41286650E+03 F= -.41317433E+03 E0= -.41315244E+03  EK= 0.30784E+00 SP= 0.00E+00 SK= 0.00E+00
       N       E                     dE             d eps       ncg     rms          rms(c)
RMM:   1    -0.413181993110E+03   -0.76580E-02   -0.73208E+00  4297   0.629E-01    0.903E-01
RMM:   2    -0.413182473482E+03   -0.48037E-03   -0.93167E-02  4286   0.845E-02    0.665E-01
RMM:   3    -0.413177852347E+03    0.46211E-02   -0.36307E-02  4935   0.703E-02    0.215E-01
RMM:   4    -0.413204560991E+03   -0.26709E-01   -0.32432E-02  5112   0.152E-01    0.702E-01
RMM:   5    -0.413175771608E+03    0.28789E-01   -0.13634E-02  4776   0.118E-01    0.488E-02
RMM:   6    -0.413175964503E+03   -0.19290E-03   -0.25337E-03  5775   0.484E-02    0.339E-02
RMM:   7    -0.413175969276E+03   -0.47735E-05   -0.40517E-04  5612   0.195E-02    0.224E-02
RMM:   8    -0.413175960849E+03    0.84276E-05   -0.63806E-05  5043   0.898E-03    0.108E-02
RMM:   9    -0.413175957291E+03    0.35579E-05   -0.12429E-05  3835   0.408E-03    0.747E-03
RMM:  10    -0.413175956486E+03    0.80521E-06   -0.20906E-06  2563   0.235E-03
   24 T=    63. E= -.41286683E+03 F= -.41317596E+03 E0= -.41315411E+03  EK= 0.30913E+00 SP= 0.00E+00 SK= 0.00E+00
       N       E                     dE             d eps       ncg     rms          rms(c)
RMM:   1    -0.413183294416E+03   -0.73371E-02   -0.73720E+00  4301   0.632E-01    0.917E-01
RMM:   2    -0.413183397422E+03   -0.10301E-03   -0.93753E-02  4346   0.842E-02    0.671E-01
RMM:   3    -0.413187057948E+03   -0.36605E-02   -0.41312E-02  5117   0.109E-01    0.431E-01
RMM:   4    -0.413194209441E+03   -0.71515E-02   -0.35365E-02  5047   0.164E-01    0.550E-01
RMM:   5    -0.413176983287E+03    0.17226E-01   -0.65380E-03  4588   0.917E-02    0.514E-02
RMM:   6    -0.413177023738E+03   -0.40450E-04   -0.13822E-03  5431   0.361E-02    0.320E-02
RMM:   7    -0.413177027475E+03   -0.37377E-05   -0.26866E-04  5557   0.157E-02    0.188E-02
RMM:   8    -0.413177023128E+03    0.43477E-05   -0.40351E-05  4943   0.766E-03    0.697E-03
RMM:   9    -0.413177019993E+03    0.31350E-05   -0.51158E-06  2911   0.293E-03    0.381E-03
RMM:  10    -0.413177017901E+03    0.20917E-05   -0.12940E-06  2499   0.189E-03    0.229E-03
RMM:  11    -0.413177015592E+03    0.23088E-05   -0.77558E-07  2443   0.141E-03    0.115E-03
RMM:  12    -0.413177012010E+03    0.35821E-05   -0.63578E-07  2389   0.122E-03    0.531E-04
RMM:  13    -0.413177009772E+03    0.22382E-05   -0.29746E-07  1877   0.904E-04    0.344E-04
RMM:  14    -0.413177007779E+03    0.19929E-05   -0.16050E-07  1397   0.717E-04    0.213E-04
RMM:  15    -0.413177002818E+03    0.49614E-05   -0.18513E-07  1509   0.738E-04    0.281E-04
RMM:  16    -0.413176998586E+03    0.42313E-05   -0.11479E-07  1085   0.629E-04    0.170E-04
RMM:  17    -0.413176996347E+03    0.22395E-05   -0.65439E-08   956   0.586E-04    0.913E-05
RMM:  18    -0.413176993474E+03    0.28723E-05   -0.56038E-08   991   0.591E-04    0.427E-05
RMM:  19    -0.413176992614E+03    0.86034E-06   -0.23573E-08   755   0.548E-04
   25 T=    63. E= -.41286671E+03 F= -.41317699E+03 E0= -.41315519E+03  EK= 0.31028E+00 SP= 0.00E+00 SK= 0.00E+00
       N       E                     dE             d eps       ncg     rms          rms(c)
RMM:   1    -0.413185548138E+03   -0.85547E-02   -0.73599E+00  4285   0.653E-01    0.925E-01
RMM:   2    -0.413184320927E+03    0.12272E-02   -0.94815E-02  4283   0.870E-02    0.668E-01
RMM:   3    -0.413179920289E+03    0.44006E-02   -0.33543E-02  4942   0.675E-02    0.188E-01
RMM:   4    -0.413208752900E+03   -0.28833E-01   -0.34329E-02  5115   0.156E-01    0.722E-01
RMM:   5    -0.413178138352E+03    0.30615E-01   -0.14361E-02  4767   0.121E-01    0.506E-02
RMM:   6    -0.413178339320E+03   -0.20097E-03   -0.26958E-03  5765   0.500E-02    0.364E-02
RMM:   7    -0.413178336536E+03    0.27839E-05   -0.44028E-04  5598   0.205E-02    0.237E-02
RMM:   8    -0.413178325209E+03    0.11328E-04   -0.66294E-05  5088   0.946E-03    0.114E-02
RMM:   9    -0.413178319068E+03    0.61405E-05   -0.13069E-05  3865   0.423E-03    0.781E-03
RMM:  10    -0.413178314634E+03    0.44340E-05   -0.23257E-06  2591   0.250E-03    0.460E-03
RMM:  11    -0.413178311415E+03    0.32188E-05   -0.12497E-06  2513   0.180E-03    0.261E-03
RMM:  12    -0.413178305414E+03    0.60016E-05   -0.18699E-06  2579   0.207E-03    0.119E-03
RMM:  13    -0.413178301576E+03    0.38372E-05   -0.65861E-07  2404   0.139E-03    0.923E-04
RMM:  14    -0.413178301464E+03    0.11292E-06   -0.27220E-07  1987   0.904E-04
   26 T=    63. E= -.41286667E+03 F= -.41317830E+03 E0= -.41315655E+03  EK= 0.31163E+00 SP= 0.00E+00 SK= 0.00E+00
       N       E                     dE             d eps       ncg     rms          rms(c)
RMM:   1    -0.413188032282E+03   -0.97307E-02   -0.73909E+00  4294   0.669E-01    0.906E-01
RMM:   2    -0.413186262477E+03    0.17698E-02   -0.99034E-02  4282   0.955E-02    0.667E-01
RMM:   3    -0.413181133193E+03    0.51293E-02   -0.33925E-02  4806   0.626E-02    0.164E-01
RMM:   4    -0.413201465410E+03   -0.20332E-01   -0.22520E-02  5121   0.128E-01    0.608E-01
RMM:   5    -0.413179961180E+03    0.21504E-01   -0.10380E-02  4778   0.101E-01    0.451E-02
RMM:   6    -0.413180100045E+03   -0.13886E-03   -0.18835E-03  5826   0.413E-02    0.295E-02
RMM:   7    -0.413180109703E+03   -0.96582E-05   -0.21793E-04  5564   0.159E-02    0.154E-02
RMM:   8    -0.413180108374E+03    0.13283E-05   -0.44766E-05  4920   0.713E-03    0.991E-03
RMM:   9    -0.413180104348E+03    0.40266E-05   -0.99549E-06  3667   0.364E-03    0.719E-03
RMM:  10    -0.413180102606E+03    0.17416E-05   -0.17728E-06  2539   0.230E-03    0.420E-03
RMM:  11    -0.413180100357E+03    0.22490E-05   -0.17137E-06  2549   0.203E-03    0.214E-03
RMM:  12    -0.413180097029E+03    0.33288E-05   -0.12715E-06  2491   0.180E-03    0.104E-03
RMM:  13    -0.413180095725E+03    0.13033E-05   -0.42198E-07  2244   0.114E-03    0.677E-04
RMM:  14    -0.413180095061E+03    0.66451E-06   -0.19266E-07  1705   0.789E-04
   27 T=    64. E= -.41286680E+03 F= -.41318010E+03 E0= -.41315840E+03  EK= 0.31329E+00 SP= 0.00E+00 SK= 0.00E+00
       N       E                     dE             d eps       ncg     rms          rms(c)
RMM:   1    -0.413188039109E+03   -0.79434E-02   -0.74777E+00  4293   0.661E-01    0.919E-01
RMM:   2    -0.413187540033E+03    0.49908E-03   -0.95670E-02  4283   0.921E-02    0.676E-01
RMM:   3    -0.413182724822E+03    0.48152E-02   -0.36771E-02  4915   0.665E-02    0.200E-01
RMM:   4    -0.413207788613E+03   -0.25064E-01   -0.29314E-02  5123   0.145E-01    0.677E-01
RMM:   5    -0.413181022885E+03    0.26766E-01   -0.12696E-02  4774   0.113E-01    0.479E-02
RMM:   6    -0.413181203136E+03   -0.18025E-03   -0.23460E-03  5803   0.462E-02    0.337E-02
RMM:   7    -0.413181211782E+03   -0.86455E-05   -0.37228E-04  5573   0.192E-02    0.218E-02
RMM:   8    -0.413181206742E+03    0.50394E-05   -0.61625E-05  5033   0.894E-03    0.109E-02
RMM:   9    -0.413181203303E+03    0.34391E-05   -0.11695E-05  3747   0.403E-03    0.746E-03
RMM:  10    -0.413181202044E+03    0.12593E-05   -0.21272E-06  2573   0.240E-03    0.432E-03
RMM:  11    -0.413181200703E+03    0.13409E-05   -0.13560E-06  2521   0.186E-03    0.226E-03
RMM:  12    -0.413181198277E+03    0.24259E-05   -0.15215E-06  2517   0.191E-03    0.111E-03
RMM:  13    -0.413181196752E+03    0.15249E-05   -0.51920E-07  2344   0.127E-03    0.727E-04
RMM:  14    -0.413181196209E+03    0.54345E-06   -0.23297E-07  1864   0.846E-04
   28 T=    64. E= -.41286637E+03 F= -.41318120E+03 E0= -.41315955E+03  EK= 0.31483E+00 SP= 0.00E+00 SK= 0.00E+00
       N       E                     dE             d eps       ncg     rms          rms(c)
RMM:   1    -0.413192504908E+03   -0.11308E-01   -0.74863E+00  4293   0.686E-01    0.934E-01
RMM:   2    -0.413189669741E+03    0.28352E-02   -0.98113E-02  4284   0.954E-02    0.674E-01
RMM:   3    -0.413184440424E+03    0.52293E-02   -0.33395E-02  4858   0.668E-02    0.164E-01
RMM:   4    -0.413210584886E+03   -0.26144E-01   -0.29204E-02  5126   0.145E-01    0.684E-01
RMM:   5    -0.413183162695E+03    0.27422E-01   -0.13025E-02  4784   0.114E-01    0.488E-02
RMM:   6    -0.413183316059E+03   -0.15336E-03   -0.24321E-03  5824   0.465E-02    0.350E-02
RMM:   7    -0.413183308825E+03    0.72336E-05   -0.36705E-04  5583   0.193E-02    0.221E-02
RMM:   8    -0.413183295733E+03    0.13093E-04   -0.63859E-05  5025   0.901E-03    0.114E-02
RMM:   9    -0.413183288829E+03    0.69038E-05   -0.12180E-05  3841   0.412E-03    0.784E-03
RMM:  10    -0.413183283590E+03    0.52387E-05   -0.22402E-06  2592   0.245E-03    0.450E-03
RMM:  11    -0.413183279314E+03    0.42762E-05   -0.13882E-06  2523   0.188E-03    0.246E-03
RMM:  12    -0.413183272211E+03    0.71031E-05   -0.17849E-06  2564   0.202E-03    0.122E-03
RMM:  13    -0.413183268836E+03    0.33746E-05   -0.58546E-07  2373   0.133E-03    0.801E-04
RMM:  14    -0.413183268023E+03    0.81298E-06   -0.25559E-07  1942   0.877E-04
   29 T=    64. E= -.41286652E+03 F= -.41318327E+03 E0= -.41316167E+03  EK= 0.31675E+00 SP= 0.00E+00 SK= 0.00E+00
       N       E                     dE             d eps       ncg     rms          rms(c)
RMM:   1    -0.413191516033E+03   -0.82472E-02   -0.74550E+00  4297   0.665E-01    0.916E-01
RMM:   2    -0.413191821101E+03   -0.30507E-03   -0.95956E-02  4280   0.968E-02    0.670E-01
RMM:   3    -0.413186577496E+03    0.52436E-02   -0.35024E-02  4852   0.694E-02    0.183E-01
RMM:   4    -0.413212170134E+03   -0.25593E-01   -0.29011E-02  5123   0.144E-01    0.680E-01
RMM:   5    -0.413185103727E+03    0.27066E-01   -0.12916E-02  4783   0.113E-01    0.480E-02
RMM:   6    -0.413185263129E+03   -0.15940E-03   -0.23683E-03  5836   0.458E-02    0.338E-02
RMM:   7    -0.413185261096E+03    0.20330E-05   -0.35744E-04  5588   0.187E-02    0.214E-02
RMM:   8    -0.413185250662E+03    0.10434E-04   -0.62415E-05  5029   0.876E-03    0.112E-02
RMM:   9    -0.413185244665E+03    0.59973E-05   -0.11804E-05  3818   0.406E-03    0.759E-03
RMM:  10    -0.413185240962E+03    0.37030E-05   -0.21310E-06  2569   0.238E-03    0.436E-03
RMM:  11    -0.413185237882E+03    0.30800E-05   -0.13517E-06  2523   0.185E-03    0.233E-03
RMM:  12    -0.413185232796E+03    0.50858E-05   -0.15899E-06  2532   0.194E-03    0.117E-03
RMM:  13    -0.413185230235E+03    0.25609E-05   -0.54792E-07  2351   0.129E-03    0.758E-04
RMM:  14    -0.413185229431E+03    0.80411E-06   -0.24300E-07  1907   0.861E-04
   30 T=    65. E= -.41286653E+03 F= -.41318523E+03 E0= -.41316368E+03  EK= 0.31870E+00 SP= 0.00E+00 SK= 0.00E+00
       N       E                     dE             d eps       ncg     rms          rms(c)
RMM:   1    -0.413193456389E+03   -0.82262E-02   -0.75861E+00  4298   0.678E-01    0.922E-01
RMM:   2    -0.413193749499E+03   -0.29311E-03   -0.97717E-02  4274   0.100E-01    0.681E-01
RMM:   3    -0.413188416922E+03    0.53326E-02   -0.37700E-02  4831   0.744E-02    0.202E-01
RMM:   4    -0.413213320824E+03   -0.24904E-01   -0.28628E-02  5118   0.143E-01    0.675E-01
RMM:   5    -0.413186704405E+03    0.26616E-01   -0.12853E-02  4785   0.112E-01    0.476E-02
RMM:   6    -0.413186867908E+03   -0.16350E-03   -0.23356E-03  5836   0.453E-02    0.330E-02
RMM:   7    -0.413186875043E+03   -0.71341E-05   -0.34298E-04  5596   0.185E-02    0.208E-02
RMM:   8    -0.413186869189E+03    0.58538E-05   -0.62216E-05  4974   0.886E-03    0.109E-02
RMM:   9    -0.413186864877E+03    0.43114E-05   -0.12150E-05  3837   0.413E-03    0.742E-03
RMM:  10    -0.413186863444E+03    0.14330E-05   -0.21001E-06  2562   0.239E-03    0.428E-03
RMM:  11    -0.413186861980E+03    0.14645E-05   -0.14079E-06  2523   0.188E-03    0.223E-03
RMM:  12    -0.413186859364E+03    0.26154E-05   -0.15087E-06  2513   0.190E-03    0.114E-03
RMM:  13    -0.413186857763E+03    0.16014E-05   -0.51600E-07  2334   0.126E-03    0.729E-04
RMM:  14    -0.413186857078E+03    0.68541E-06   -0.22981E-07  1850   0.842E-04
   31 T=    65. E= -.41286629E+03 F= -.41318686E+03 E0= -.41316536E+03  EK= 0.32056E+00 SP= 0.00E+00 SK= 0.00E+00
       N       E                     dE             d eps       ncg     rms          rms(c)
RMM:   1    -0.413201094976E+03   -0.14237E-01   -0.76285E+00  4301   0.725E-01    0.941E-01
RMM:   2    -0.413195990995E+03    0.51040E-02   -0.98538E-02  4275   0.102E-01    0.681E-01
RMM:   3    -0.413190526081E+03    0.54649E-02   -0.34855E-02  4779   0.717E-02    0.163E-01
RMM:   4    -0.413214142254E+03   -0.23616E-01   -0.26037E-02  5121   0.136E-01    0.653E-01
RMM:   5    -0.413189276916E+03    0.24865E-01   -0.12066E-02  4791   0.108E-01    0.476E-02
RMM:   6    -0.413189431821E+03   -0.15491E-03   -0.21992E-03  5835   0.440E-02    0.335E-02
RMM:   7    -0.413189435586E+03   -0.37646E-05   -0.31002E-04  5593   0.179E-02    0.198E-02
RMM:   8    -0.413189427897E+03    0.76883E-05   -0.59213E-05  4989   0.841E-03    0.112E-02
RMM:   9    -0.413189421335E+03    0.65619E-05   -0.11472E-05  3804   0.403E-03    0.766E-03
RMM:  10    -0.413189416366E+03    0.49699E-05   -0.21522E-06  2577   0.245E-03    0.432E-03
RMM:  11    -0.413189411802E+03    0.45640E-05   -0.15142E-06  2530   0.195E-03    0.225E-03
RMM:  12    -0.413189405142E+03    0.66595E-05   -0.15153E-06  2526   0.193E-03    0.116E-03
RMM:  13    -0.413189402210E+03    0.29322E-05   -0.52503E-07  2335   0.127E-03    0.730E-04
RMM:  14    -0.413189401117E+03    0.10930E-05   -0.23868E-07  1874   0.856E-04    0.516E-04
RMM:  15    -0.413189396391E+03    0.47259E-05   -0.18825E-07  1932   0.804E-04    0.364E-04
RMM:  16    -0.413189391401E+03    0.49902E-05   -0.14056E-07  1639   0.711E-04    0.464E-04
RMM:  17    -0.413189389049E+03    0.23514E-05   -0.47910E-08   900   0.561E-04    0.383E-04
RMM:  18    -0.413189384630E+03    0.44191E-05   -0.61673E-08  1041   0.593E-04    0.100E-04
RMM:  19    -0.413189381547E+03    0.30830E-05   -0.49156E-08  1117   0.605E-04    0.187E-04
RMM:  20    -0.413189381522E+03    0.24847E-07   -0.14366E-08   697   0.525E-04
   32 T=    66. E= -.41286669E+03 F= -.41318938E+03 E0= -.41316793E+03  EK= 0.32269E+00 SP= 0.00E+00 SK= 0.00E+00
       N       E                     dE             d eps       ncg     rms          rms(c)
RMM:   1    -0.413201365452E+03   -0.11984E-01   -0.76005E+00  4301   0.743E-01    0.929E-01
RMM:   2    -0.413197734751E+03    0.36307E-02   -0.99223E-02  4269   0.106E-01    0.676E-01
RMM:   3    -0.413192112890E+03    0.56219E-02   -0.34941E-02  4662   0.754E-02    0.153E-01
RMM:   4    -0.413209938299E+03   -0.17825E-01   -0.19223E-02  5127   0.118E-01    0.570E-01
RMM:   5    -0.413191126193E+03    0.18812E-01   -0.93070E-03  4804   0.941E-02    0.449E-02
RMM:   6    -0.413191233271E+03   -0.10708E-03   -0.16387E-03  5826   0.379E-02    0.299E-02
RMM:   7    -0.413191240125E+03   -0.68541E-05   -0.18523E-04  5482   0.148E-02    0.147E-02
RMM:   8    -0.413191232901E+03    0.72242E-05   -0.28431E-05  4555   0.574E-03    0.839E-03
RMM:   9    -0.413191232481E+03    0.41950E-06   -0.92050E-06  3652   0.342E-03
   33 T=    66. E= -.41286658E+03 F= -.41319123E+03 E0= -.41316983E+03  EK= 0.32465E+00 SP= 0.00E+00 SK= 0.00E+00
       N       E                     dE             d eps       ncg     rms          rms(c)
RMM:   1    -0.413201608079E+03   -0.10375E-01   -0.77053E+00  4302   0.729E-01    0.928E-01
RMM:   2    -0.413200351364E+03    0.12567E-02   -0.10085E-01  4305   0.110E-01    0.686E-01
RMM:   3    -0.413200783941E+03   -0.43258E-03   -0.41671E-02  5028   0.114E-01    0.372E-01
RMM:   4    -0.413217667673E+03   -0.16884E-01   -0.38777E-02  5040   0.170E-01    0.648E-01
RMM:   5    -0.413193444577E+03    0.24223E-01   -0.10012E-02  4668   0.107E-01    0.524E-02
RMM:   6    -0.413193550251E+03   -0.10567E-03   -0.20273E-03  5682   0.424E-02    0.339E-02
RMM:   7    -0.413193558221E+03   -0.79702E-05   -0.35944E-04  5511   0.183E-02    0.218E-02
RMM:   8    -0.413193558088E+03    0.13327E-06   -0.57187E-05  5043   0.926E-03    0.887E-03
RMM:   9    -0.413193554563E+03    0.35250E-05   -0.91616E-06  3376   0.385E-03    0.475E-03
RMM:  10    -0.413193552463E+03    0.20999E-05   -0.18988E-06  2554   0.227E-03    0.289E-03
RMM:  11    -0.413193549928E+03    0.25350E-05   -0.10087E-06  2492   0.164E-03    0.149E-03
RMM:  12    -0.413193545483E+03    0.44446E-05   -0.94258E-07  2478   0.150E-03    0.649E-04
RMM:  13    -0.413193542945E+03    0.25383E-05   -0.41572E-07  2183   0.107E-03    0.459E-04
RMM:  14    -0.413193541244E+03    0.17012E-05   -0.20895E-07  1668   0.790E-04    0.314E-04
RMM:  15    -0.413193535646E+03    0.55972E-05   -0.20427E-07  1704   0.781E-04    0.332E-04
RMM:  16    -0.413193531069E+03    0.45778E-05   -0.11626E-07  1124   0.635E-04    0.248E-04
RMM:  17    -0.413193527184E+03    0.38844E-05   -0.86162E-08  1074   0.614E-04    0.168E-04
RMM:  18    -0.413193524476E+03    0.27078E-05   -0.59549E-08  1028   0.597E-04    0.514E-05
RMM:  19    -0.413193522323E+03    0.21530E-05   -0.43905E-08  1016   0.586E-04    0.751E-05
RMM:  20    -0.413193522170E+03    0.15304E-06   -0.17009E-08   701   0.536E-04
   34 T=    67. E= -.41286657E+03 F= -.41319352E+03 E0= -.41317217E+03  EK= 0.32695E+00 SP= 0.00E+00 SK= 0.00E+00
       N       E                     dE             d eps       ncg     rms          rms(c)
RMM:   1    -0.413203437277E+03   -0.99150E-02   -0.77168E+00  4303   0.738E-01    0.947E-01
RMM:   2    -0.413202493390E+03    0.94389E-03   -0.10194E-01  4259   0.118E-01    0.689E-01
RMM:   3    -0.413196717580E+03    0.57758E-02   -0.35596E-02  4347   0.812E-02    0.129E-01
RMM:   4    -0.413197603331E+03   -0.88575E-03   -0.17581E-03  5082   0.386E-02    0.161E-01
RMM:   5    -0.413196221924E+03    0.13814E-02   -0.74536E-04  4788   0.270E-02    0.403E-02
RMM:   6    -0.413196284285E+03   -0.62361E-04   -0.51633E-04  5392   0.222E-02    0.335E-02
RMM:   7    -0.413196248129E+03    0.36156E-04   -0.19583E-04  4894   0.157E-02    0.185E-02
RMM:   8    -0.413196241361E+03    0.67684E-05   -0.33552E-05  4750   0.591E-03    0.608E-03
RMM:   9    -0.413196240096E+03    0.12648E-05   -0.38386E-06  2576   0.233E-03    0.277E-03
RMM:  10    -0.413196236490E+03    0.36061E-05   -0.97254E-07  2450   0.166E-03    0.129E-03
RMM:  11    -0.413196233002E+03    0.34879E-05   -0.43512E-07  2211   0.108E-03    0.641E-04
RMM:  12    -0.413196229930E+03    0.30719E-05   -0.20522E-07  1580   0.787E-04    0.322E-04
RMM:  13    -0.413196226460E+03    0.34706E-05   -0.13647E-07  1278   0.701E-04    0.193E-04
RMM:  14    -0.413196223039E+03    0.34209E-05   -0.79833E-08  1029   0.635E-04    0.111E-04
RMM:  15    -0.413196217352E+03    0.56870E-05   -0.84733E-08  1140   0.641E-04    0.998E-05
RMM:  16    -0.413196212650E+03    0.47019E-05   -0.62525E-08  1067   0.611E-04    0.794E-05
RMM:  17    -0.413196210581E+03    0.20692E-05   -0.29141E-08   800   0.554E-04    0.547E-05
RMM:  18    -0.413196209323E+03    0.12577E-05   -0.20497E-08   769   0.542E-04    0.336E-05
RMM:  19    -0.413196208648E+03    0.67455E-06   -0.11205E-08   640   0.525E-04
   35 T=    67. E= -.41286667E+03 F= -.41319621E+03 E0= -.41317490E+03  EK= 0.32954E+00 SP= 0.00E+00 SK= 0.00E+00
       N       E                     dE             d eps       ncg     rms          rms(c)
RMM:   1    -0.413210378932E+03   -0.14170E-01   -0.77620E+00  4302   0.800E-01    0.944E-01
RMM:   2    -0.413204386372E+03    0.59926E-02   -0.10749E-01  4254   0.126E-01    0.685E-01
RMM:   3    -0.413198689465E+03    0.56969E-02   -0.33883E-02  4312   0.821E-02    0.109E-01
RMM:   4    -0.413198451386E+03    0.23808E-03   -0.52809E-04  4907   0.218E-02    0.652E-02
RMM:   5    -0.413198343169E+03    0.10822E-03   -0.18102E-04  4801   0.131E-02    0.473E-02
RMM:   6    -0.413198374975E+03   -0.31807E-04   -0.46023E-04  5212   0.208E-02    0.346E-02
RMM:   7    -0.413198336579E+03    0.38396E-04   -0.18529E-04  4773   0.155E-02    0.200E-02
RMM:   8    -0.413198328992E+03    0.75868E-05   -0.35367E-05  4669   0.579E-03    0.652E-03
RMM:   9    -0.413198327554E+03    0.14381E-05   -0.87167E-06  2506   0.249E-03    0.277E-03
RMM:  10    -0.413198321509E+03    0.60452E-05   -0.11457E-06  2340   0.160E-03    0.989E-04
RMM:  11    -0.413198318190E+03    0.33187E-05   -0.30184E-07  1718   0.869E-04    0.511E-04
RMM:  12    -0.413198313539E+03    0.46509E-05   -0.15441E-07  1269   0.722E-04    0.371E-04
RMM:  13    -0.413198309272E+03    0.42669E-05   -0.98927E-08  1035   0.651E-04    0.216E-04
RMM:  14    -0.413198302577E+03    0.66954E-05   -0.11375E-07  1068   0.655E-04    0.165E-04
RMM:  15    -0.413198299592E+03    0.29851E-05   -0.36248E-08   733   0.571E-04    0.135E-04
RMM:  16    -0.413198294355E+03    0.52372E-05   -0.48395E-08   969   0.602E-04    0.685E-05
RMM:  17    -0.413198292897E+03    0.14582E-05   -0.15801E-08   608   0.525E-04    0.474E-05
RMM:  18    -0.413198292200E+03    0.69653E-06   -0.91834E-09   535   0.513E-04
   36 T=    68. E= -.41286622E+03 F= -.41319829E+03 E0= -.41317703E+03  EK= 0.33207E+00 SP= 0.00E+00 SK= 0.00E+00
       N       E                     dE             d eps       ncg     rms          rms(c)
RMM:   1    -0.413210187270E+03   -0.11894E-01   -0.78367E+00  4310   0.789E-01    0.936E-01
RMM:   2    -0.413207977229E+03    0.22100E-02   -0.10612E-01  4251   0.126E-01    0.691E-01
RMM:   3    -0.413202045627E+03    0.59316E-02   -0.37452E-02  4387   0.871E-02    0.149E-01
RMM:   4    -0.413205042914E+03   -0.29973E-02   -0.41953E-03  5143   0.572E-02    0.258E-01
RMM:   5    -0.413201386982E+03    0.36559E-02   -0.18490E-03  4801   0.427E-02    0.405E-02
RMM:   6    -0.413201431039E+03   -0.44057E-04   -0.63160E-04  5521   0.252E-02    0.326E-02
RMM:   7    -0.413201420925E+03    0.10114E-04   -0.23161E-04  5056   0.167E-02    0.190E-02
RMM:   8    -0.413201413549E+03    0.73760E-05   -0.30439E-05  4827   0.624E-03    0.751E-03
RMM:   9    -0.413201413185E+03    0.36337E-06   -0.44712E-06  2718   0.250E-03
   37 T=    68. E= -.41286642E+03 F= -.41320141E+03 E0= -.41318019E+03  EK= 0.33499E+00 SP= 0.00E+00 SK= 0.00E+00
       N       E                     dE             d eps       ncg     rms          rms(c)
RMM:   1    -0.413212256099E+03   -0.10843E-01   -0.78955E+00  4311   0.816E-01    0.954E-01
RMM:   2    -0.413211058697E+03    0.11974E-02   -0.10790E-01  4261   0.123E-01    0.698E-01
RMM:   3    -0.413205145973E+03    0.59127E-02   -0.36734E-02  4687   0.833E-02    0.159E-01
RMM:   4    -0.413225762030E+03   -0.20616E-01   -0.22414E-02  5131   0.127E-01    0.614E-01
RMM:   5    -0.413204111069E+03    0.21651E-01   -0.10707E-02  4804   0.101E-01    0.472E-02
RMM:   6    -0.413204155578E+03   -0.44509E-04   -0.18618E-03  5776   0.417E-02    0.332E-02
RMM:   7    -0.413204170705E+03   -0.15126E-04   -0.36159E-04  5498   0.190E-02    0.217E-02
RMM:   8    -0.413204153666E+03    0.17038E-04   -0.54536E-05  5102   0.844E-03    0.103E-02
RMM:   9    -0.413204151818E+03    0.18484E-05   -0.10536E-05  3589   0.393E-03    0.625E-03
RMM:  10    -0.413204147862E+03    0.39554E-05   -0.20987E-06  2587   0.240E-03    0.334E-03
RMM:  11    -0.413204144043E+03    0.38196E-05   -0.11510E-06  2501   0.173E-03    0.180E-03
RMM:  12    -0.413204137819E+03    0.62233E-05   -0.11214E-06  2494   0.166E-03    0.103E-03
RMM:  13    -0.413204134422E+03    0.33978E-05   -0.42133E-07  2236   0.112E-03    0.569E-04
RMM:  14    -0.413204132776E+03    0.16458E-05   -0.19912E-07  1691   0.791E-04    0.371E-04
RMM:  15    -0.413204126223E+03    0.65526E-05   -0.17403E-07  1666   0.767E-04    0.263E-04
RMM:  16    -0.413204121871E+03    0.43525E-05   -0.96338E-08  1242   0.647E-04    0.247E-04
RMM:  17    -0.413204116619E+03    0.52515E-05   -0.72980E-08  1134   0.618E-04    0.203E-04
RMM:  18    -0.413204111778E+03    0.48410E-05   -0.58712E-08  1117   0.605E-04    0.631E-05
RMM:  19    -0.413204110504E+03    0.12739E-05   -0.29808E-08   881   0.556E-04    0.470E-05
RMM:  20    -0.413204109527E+03    0.97724E-06   -0.20702E-08   811   0.538E-04
   38 T=    69. E= -.41286626E+03 F= -.41320411E+03 E0= -.41318293E+03  EK= 0.33785E+00 SP= 0.00E+00 SK= 0.00E+00
       N       E                     dE             d eps       ncg     rms          rms(c)
RMM:   1    -0.413221067443E+03   -0.16957E-01   -0.79586E+00  4309   0.894E-01    0.960E-01
RMM:   2    -0.413213749016E+03    0.73184E-02   -0.11448E-01  4252   0.120E-01    0.696E-01
RMM:   3    -0.413207595121E+03    0.61539E-02   -0.33510E-02  4731   0.734E-02    0.130E-01
RMM:   4    -0.413229883996E+03   -0.22289E-01   -0.23720E-02  5131   0.130E-01    0.633E-01
RMM:   5    -0.413206797433E+03    0.23087E-01   -0.11394E-02  4803   0.104E-01    0.484E-02
RMM:   6    -0.413206857664E+03   -0.60231E-04   -0.20368E-03  5809   0.428E-02    0.337E-02
RMM:   7    -0.413206873404E+03   -0.15740E-04   -0.34169E-04  5540   0.183E-02    0.213E-02
RMM:   8    -0.413206857606E+03    0.15798E-04   -0.56239E-05  5062   0.828E-03    0.109E-02
RMM:   9    -0.413206855411E+03    0.21946E-05   -0.11722E-05  3853   0.415E-03    0.701E-03
RMM:  10    -0.413206850676E+03    0.47351E-05   -0.21751E-06  2603   0.245E-03    0.373E-03
RMM:  11    -0.413206847286E+03    0.33900E-05   -0.10715E-06  2491   0.172E-03    0.214E-03
RMM:  12    -0.413206840737E+03    0.65494E-05   -0.13516E-06  2508   0.183E-03    0.120E-03
RMM:  13    -0.413206837172E+03    0.35651E-05   -0.48085E-07  2320   0.123E-03    0.684E-04
RMM:  14    -0.413206836156E+03    0.10158E-05   -0.21908E-07  1860   0.831E-04    0.452E-04
RMM:  15    -0.413206831537E+03    0.46189E-05   -0.13960E-07  1568   0.738E-04    0.233E-04
RMM:  16    -0.413206827498E+03    0.40393E-05   -0.96874E-08  1415   0.667E-04    0.300E-04
RMM:  17    -0.413206824124E+03    0.33735E-05   -0.54709E-08  1057   0.592E-04    0.276E-04
RMM:  18    -0.413206818734E+03    0.53903E-05   -0.47766E-08   999   0.585E-04    0.119E-04
RMM:  19    -0.413206817594E+03    0.11397E-05   -0.25057E-08   824   0.550E-04    0.405E-05
RMM:  20    -0.413206815932E+03    0.16618E-05   -0.27107E-08   918   0.563E-04    0.892E-05
RMM:  21    -0.413206815872E+03    0.60147E-07   -0.91776E-09   651   0.518E-04
   39 T=    69. E= -.41286617E+03 F= -.41320682E+03 E0= -.41318568E+03  EK= 0.34065E+00 SP= 0.00E+00 SK= 0.00E+00
       N       E                     dE             d eps       ncg     rms          rms(c)
RMM:   1    -0.413219622675E+03   -0.12807E-01   -0.79766E+00  4313   0.902E-01    0.945E-01
RMM:   2    -0.413217218783E+03    0.24039E-02   -0.11348E-01  4257   0.123E-01    0.698E-01
RMM:   3    -0.413211464749E+03    0.57540E-02   -0.36450E-02  4822   0.821E-02    0.180E-01
RMM:   4    -0.413242778601E+03   -0.31314E-01   -0.35383E-02  5120   0.159E-01    0.750E-01
RMM:   5    -0.413209912758E+03    0.32866E-01   -0.15773E-02  4786   0.124E-01    0.513E-02
RMM:   6    -0.413210008297E+03   -0.95539E-04   -0.27682E-03  5804   0.492E-02    0.336E-02
RMM:   7    -0.413210024275E+03   -0.15978E-04   -0.33184E-04  5624   0.178E-02    0.186E-02
RMM:   8    -0.413210018713E+03    0.55617E-05   -0.46198E-05  4822   0.709E-03    0.985E-03
RMM:   9    -0.413210020501E+03   -0.17874E-05   -0.18759E-05  4420   0.456E-03    0.783E-03
RMM:  10    -0.413210016375E+03    0.41263E-05   -0.33126E-06  2749   0.280E-03    0.413E-03
RMM:  11    -0.413210014857E+03    0.15176E-05   -0.15206E-06  2506   0.198E-03    0.250E-03
RMM:  12    -0.413210010779E+03    0.40780E-05   -0.19509E-06  2543   0.217E-03    0.131E-03
RMM:  13    -0.413210008587E+03    0.21922E-05   -0.64160E-07  2402   0.142E-03    0.826E-04
RMM:  14    -0.413210007984E+03    0.60320E-06   -0.26065E-07  2004   0.907E-04
   40 T=    70. E= -.41286649E+03 F= -.41321001E+03 E0= -.41318891E+03  EK= 0.34352E+00 SP= 0.00E+00 SK= 0.00E+00
       N       E                     dE             d eps       ncg     rms          rms(c)
RMM:   1    -0.413223265466E+03   -0.13257E-01   -0.80958E+00  4313   0.922E-01    0.960E-01
RMM:   2    -0.413219643038E+03    0.36224E-02   -0.11325E-01  4263   0.124E-01    0.707E-01
RMM:   3    -0.413214081958E+03    0.55611E-02   -0.37952E-02  4881   0.833E-02    0.198E-01
RMM:   4    -0.413247627422E+03   -0.33545E-01   -0.39355E-02  5123   0.167E-01    0.778E-01
RMM:   5    -0.413212143635E+03    0.35484E-01   -0.16873E-02  4792   0.129E-01    0.531E-02
RMM:   6    -0.413212244033E+03   -0.10040E-03   -0.29379E-03  5814   0.506E-02    0.338E-02
RMM:   7    -0.413212268427E+03   -0.24394E-04   -0.35397E-04  5642   0.180E-02    0.188E-02
RMM:   8    -0.413212263427E+03    0.50005E-05   -0.47787E-05  4816   0.719E-03    0.950E-03
RMM:   9    -0.413212264903E+03   -0.14759E-05   -0.19583E-05  4432   0.461E-03    0.760E-03
RMM:  10    -0.413212259929E+03    0.49740E-05   -0.36228E-06  2808   0.283E-03    0.405E-03
RMM:  11    -0.413212257768E+03    0.21609E-05   -0.15331E-06  2508   0.199E-03    0.244E-03
RMM:  12    -0.413212251961E+03    0.58068E-05   -0.19302E-06  2555   0.214E-03    0.127E-03
RMM:  13    -0.413212249001E+03    0.29598E-05   -0.60543E-07  2411   0.139E-03    0.810E-04
RMM:  14    -0.413212248407E+03    0.59468E-06   -0.24844E-07  1966   0.887E-04
   41 T=    70. E= -.41286631E+03 F= -.41321225E+03 E0= -.41319118E+03  EK= 0.34594E+00 SP= 0.00E+00 SK= 0.00E+00
       N       E                     dE             d eps       ncg     rms          rms(c)
RMM:   1    -0.413232480693E+03   -0.20232E-01   -0.81438E+00  4313   0.103E+00    0.975E-01
RMM:   2    -0.413222049325E+03    0.10431E-01   -0.11938E-01  4303   0.131E-01    0.705E-01
RMM:   3    -0.413217407875E+03    0.46414E-02   -0.34841E-02  4981   0.846E-02    0.216E-01
RMM:   4    -0.413255091477E+03   -0.37684E-01   -0.47627E-02  5113   0.184E-01    0.825E-01
RMM:   5    -0.413214785432E+03    0.40306E-01   -0.18464E-02  4774   0.136E-01    0.567E-02
RMM:   6    -0.413214903018E+03   -0.11759E-03   -0.33380E-03  5797   0.538E-02    0.360E-02
RMM:   7    -0.413214920379E+03   -0.17360E-04   -0.40797E-04  5709   0.193E-02    0.209E-02
RMM:   8    -0.413214922540E+03   -0.21610E-05   -0.85597E-05  5163   0.936E-03    0.131E-02
RMM:   9    -0.413214912214E+03    0.10325E-04   -0.20945E-05  4510   0.524E-03    0.730E-03
RMM:  10    -0.413214907127E+03    0.50870E-05   -0.36869E-06  2746   0.289E-03    0.418E-03
RMM:  11    -0.413214903470E+03    0.36569E-05   -0.13357E-06  2497   0.195E-03    0.253E-03
RMM:  12    -0.413214894839E+03    0.86314E-05   -0.14381E-06  2501   0.198E-03    0.117E-03
RMM:  13    -0.413214888677E+03    0.61617E-05   -0.64712E-07  2420   0.139E-03    0.749E-04
RMM:  14    -0.413214887556E+03    0.11214E-05   -0.28216E-07  2076   0.933E-04    0.479E-04
RMM:  15    -0.413214884802E+03    0.27538E-05   -0.13580E-07  1431   0.712E-04    0.305E-04
RMM:  16    -0.413214876689E+03    0.81137E-05   -0.15741E-07  1887   0.772E-04    0.522E-04
RMM:  17    -0.413214874682E+03    0.20070E-05   -0.51420E-08   935   0.562E-04    0.397E-04
RMM:  18    -0.413214867719E+03    0.69625E-05   -0.64347E-08  1164   0.610E-04    0.260E-04
RMM:  19    -0.413214866381E+03    0.13381E-05   -0.36496E-08   938   0.560E-04    0.652E-05
RMM:  20    -0.413214864340E+03    0.20405E-05   -0.36688E-08  1070   0.585E-04    0.171E-04
RMM:  21    -0.413214864025E+03    0.31547E-06   -0.14961E-08   729   0.525E-04
   42 T=    71. E= -.41286653E+03 F= -.41321486E+03 E0= -.41319383E+03  EK= 0.34833E+00 SP= 0.00E+00 SK= 0.00E+00
       N       E                     dE             d eps       ncg     rms          rms(c)
RMM:   1    -0.413232436056E+03   -0.17572E-01   -0.81225E+00  4316   0.107E+00    0.954E-01
RMM:   2    -0.413224550650E+03    0.78854E-02   -0.12513E-01  4360   0.133E-01    0.704E-01
RMM:   3    -0.413221244565E+03    0.33061E-02   -0.35583E-02  5028   0.921E-02    0.271E-01
RMM:   4    -0.413256763595E+03   -0.35519E-01   -0.51099E-02  5099   0.192E-01    0.818E-01
RMM:   5    -0.413217116091E+03    0.39648E-01   -0.17390E-02  4756   0.135E-01    0.574E-02
RMM:   6    -0.413217215638E+03   -0.99547E-04   -0.31592E-03  5776   0.528E-02    0.353E-02
RMM:   7    -0.413217230165E+03   -0.14527E-04   -0.41793E-04  5693   0.197E-02    0.223E-02
RMM:   8    -0.413217232965E+03   -0.28008E-05   -0.10608E-04  5198   0.107E-02    0.132E-02
RMM:   9    -0.413217223630E+03    0.93352E-05   -0.18076E-05  4340   0.532E-03    0.619E-03
RMM:  10    -0.413217220941E+03    0.26892E-05   -0.37687E-06  2785   0.274E-03    0.367E-03
RMM:  11    -0.413217218778E+03    0.21633E-05   -0.12274E-06  2497   0.185E-03    0.210E-03
RMM:  12    -0.413217213807E+03    0.49702E-05   -0.12043E-06  2500   0.176E-03    0.984E-04
RMM:  13    -0.413217210033E+03    0.37741E-05   -0.54190E-07  2349   0.125E-03    0.566E-04
RMM:  14    -0.413217208937E+03    0.10961E-05   -0.25205E-07  1904   0.871E-04    0.358E-04
RMM:  15    -0.413217206188E+03    0.27489E-05   -0.13924E-07  1391   0.711E-04    0.169E-04
RMM:  16    -0.413217201747E+03    0.44417E-05   -0.11099E-07  1331   0.685E-04    0.198E-04
RMM:  17    -0.413217199207E+03    0.25392E-05   -0.62332E-08  1003   0.612E-04    0.128E-04
RMM:  18    -0.413217195190E+03    0.40173E-05   -0.64935E-08  1233   0.635E-04    0.116E-04
RMM:  19    -0.413217192856E+03    0.23341E-05   -0.39488E-08   990   0.577E-04    0.386E-05
RMM:  20    -0.413217191994E+03    0.86235E-06   -0.23367E-08   825   0.544E-04
   43 T=    71. E= -.41286675E+03 F= -.41321719E+03 E0= -.41319618E+03  EK= 0.35044E+00 SP= 0.00E+00 SK= 0.00E+00
       N       E                     dE             d eps       ncg     rms          rms(c)
RMM:   1    -0.413230517541E+03   -0.13325E-01   -0.82000E+00  4316   0.107E+00    0.961E-01
RMM:   2    -0.413226096120E+03    0.44214E-02   -0.12128E-01  4383   0.137E-01    0.714E-01
RMM:   3    -0.413223580578E+03    0.25155E-02   -0.39521E-02  5036   0.992E-02    0.306E-01
RMM:   4    -0.413255121575E+03   -0.31541E-01   -0.49688E-02  5086   0.191E-01    0.789E-01
RMM:   5    -0.413218422820E+03    0.36699E-01   -0.15681E-02  4733   0.131E-01    0.565E-02
RMM:   6    -0.413218496408E+03   -0.73588E-04   -0.28872E-03  5769   0.505E-02    0.335E-02
RMM:   7    -0.413218512628E+03   -0.16220E-04   -0.37869E-04  5672   0.188E-02    0.210E-02
RMM:   8    -0.413218516530E+03   -0.39020E-05   -0.10357E-04  5184   0.105E-02    0.126E-02
RMM:   9    -0.413218507628E+03    0.89019E-05   -0.17454E-05  4317   0.528E-03    0.568E-03
RMM:  10    -0.413218506017E+03    0.16115E-05   -0.35864E-06  2763   0.268E-03    0.340E-03
RMM:  11    -0.413218504496E+03    0.15203E-05   -0.12194E-06  2499   0.183E-03    0.190E-03
RMM:  12    -0.413218500769E+03    0.37278E-05   -0.11230E-06  2495   0.168E-03    0.905E-04
RMM:  13    -0.413218497753E+03    0.30159E-05   -0.50695E-07  2305   0.118E-03    0.489E-04
RMM:  14    -0.413218496525E+03    0.12279E-05   -0.23465E-07  1768   0.826E-04    0.298E-04
RMM:  15    -0.413218493052E+03    0.34728E-05   -0.15439E-07  1368   0.727E-04    0.159E-04
RMM:  16    -0.413218489932E+03    0.31197E-05   -0.10732E-07  1234   0.673E-04    0.161E-04
RMM:  17    -0.413218487291E+03    0.26414E-05   -0.76540E-08  1146   0.627E-04    0.118E-04
RMM:  18    -0.413218484491E+03    0.27994E-05   -0.59503E-08  1131   0.609E-04    0.785E-05
RMM:  19    -0.413218481673E+03    0.28185E-05   -0.47126E-08  1082   0.590E-04    0.413E-05
RMM:  20    -0.413218481151E+03    0.52213E-06   -0.22272E-08   774   0.533E-04
   44 T=    72. E= -.41286654E+03 F= -.41321848E+03 E0= -.41319750E+03  EK= 0.35194E+00 SP= 0.00E+00 SK= 0.00E+00
       N       E                     dE             d eps       ncg     rms          rms(c)
RMM:   1    -0.413237343084E+03   -0.18861E-01   -0.82011E+00  4314   0.119E+00    0.979E-01
RMM:   2    -0.413227294370E+03    0.10049E-01   -0.12636E-01  4392   0.146E-01    0.713E-01
RMM:   3    -0.413226496539E+03    0.79783E-03   -0.37509E-02  5057   0.106E-01    0.342E-01
RMM:   4    -0.413252182615E+03   -0.25686E-01   -0.48542E-02  5065   0.190E-01    0.740E-01
RMM:   5    -0.413219872465E+03    0.32310E-01   -0.12865E-02  4710   0.122E-01    0.576E-02
RMM:   6    -0.413219912656E+03   -0.40190E-04   -0.25071E-03  5718   0.475E-02    0.337E-02
RMM:   7    -0.413219924248E+03   -0.11592E-04   -0.37235E-04  5652   0.188E-02    0.222E-02
RMM:   8    -0.413219923904E+03    0.34405E-06   -0.10999E-04  5148   0.111E-02    0.123E-02
RMM:   9    -0.413219913516E+03    0.10387E-04   -0.14884E-05  4174   0.518E-03    0.517E-03
RMM:  10    -0.413219909357E+03    0.41589E-05   -0.33699E-06  2759   0.255E-03    0.309E-03
RMM:  11    -0.413219905680E+03    0.36776E-05   -0.11012E-06  2491   0.176E-03    0.166E-03
RMM:  12    -0.413219898978E+03    0.67021E-05   -0.83449E-07  2458   0.151E-03    0.809E-04
RMM:  13    -0.413219894551E+03    0.44269E-05   -0.38015E-07  2148   0.107E-03    0.370E-04
RMM:  14    -0.413219892229E+03    0.23215E-05   -0.19506E-07  1614   0.785E-04    0.223E-04
RMM:  15    -0.413219885748E+03    0.64815E-05   -0.13932E-07  1363   0.725E-04    0.181E-04
RMM:  16    -0.413219882877E+03    0.28707E-05   -0.82749E-08  1127   0.648E-04    0.125E-04
RMM:  17    -0.413219879477E+03    0.33996E-05   -0.66023E-08  1154   0.632E-04    0.821E-05
RMM:  18    -0.413219875456E+03    0.40215E-05   -0.59368E-08  1237   0.621E-04    0.446E-05
RMM:  19    -0.413219873144E+03    0.23120E-05   -0.36077E-08   999   0.567E-04    0.391E-05
RMM:  20    -0.413219872610E+03    0.53454E-06   -0.19545E-08   771   0.531E-04
   45 T=    72. E= -.41286687E+03 F= -.41321987E+03 E0= -.41319891E+03  EK= 0.35301E+00 SP= 0.00E+00 SK= 0.00E+00
       N       E                     dE             d eps       ncg     rms          rms(c)
RMM:   1    -0.413243051532E+03   -0.23178E-01   -0.81923E+00  4314   0.130E+00    0.959E-01
RMM:   2    -0.413226941044E+03    0.16110E-01   -0.13703E-01  4426   0.158E-01    0.708E-01
RMM:   3    -0.413228128701E+03   -0.11877E-02   -0.36020E-02  5068   0.115E-01    0.394E-01
RMM:   4    -0.413248937332E+03   -0.20809E-01   -0.49522E-02  5062   0.193E-01    0.707E-01
RMM:   5    -0.413219379316E+03    0.29558E-01   -0.11127E-02  4681   0.116E-01    0.581E-02
RMM:   6    -0.413219387604E+03   -0.82887E-05   -0.22274E-03  5662   0.453E-02    0.327E-02
RMM:   7    -0.413219403326E+03   -0.15721E-04   -0.36000E-04  5642   0.185E-02    0.226E-02
RMM:   8    -0.413219404564E+03   -0.12380E-05   -0.11134E-04  5100   0.113E-02    0.114E-02
RMM:   9    -0.413219395740E+03    0.88236E-05   -0.13359E-05  4065   0.512E-03    0.458E-03
RMM:  10    -0.413219392333E+03    0.34074E-05   -0.31113E-06  2748   0.240E-03    0.274E-03
RMM:  11    -0.413219388525E+03    0.38074E-05   -0.10959E-06  2486   0.171E-03    0.142E-03
RMM:  12    -0.413219382981E+03    0.55437E-05   -0.72017E-07  2417   0.138E-03    0.703E-04
RMM:  13    -0.413219379172E+03    0.38097E-05   -0.34166E-07  1961   0.988E-04    0.309E-04
RMM:  14    -0.413219376223E+03    0.29484E-05   -0.18790E-07  1495   0.768E-04    0.176E-04
RMM:  15    -0.413219370502E+03    0.57218E-05   -0.14337E-07  1306   0.725E-04    0.135E-04
RMM:  16    -0.413219367646E+03    0.28556E-05   -0.93150E-08  1203   0.665E-04    0.953E-05
RMM:  17    -0.413219362444E+03    0.52023E-05   -0.91433E-08  1425   0.673E-04    0.645E-05
RMM:  18    -0.413219359921E+03    0.25231E-05   -0.49805E-08  1049   0.578E-04    0.340E-05
RMM:  19    -0.413219358241E+03    0.16795E-05   -0.34016E-08   924   0.551E-04    0.238E-05
RMM:  20    -0.413219357966E+03    0.27512E-06   -0.19541E-08   732   0.521E-04
   46 T=    72. E= -.41286658E+03 F= -.41321936E+03 E0= -.41319841E+03  EK= 0.35278E+00 SP= 0.00E+00 SK= 0.00E+00
       N       E                     dE             d eps       ncg     rms          rms(c)
RMM:   1    -0.413236647564E+03   -0.17289E-01   -0.81848E+00  4314   0.134E+00    0.953E-01
RMM:   2    -0.413225707423E+03    0.10940E-01   -0.13114E-01  4474   0.166E-01    0.713E-01
RMM:   3    -0.413230081179E+03   -0.43738E-02   -0.41967E-02  5081   0.131E-01    0.462E-01
RMM:   4    -0.413242121876E+03   -0.12041E-01   -0.47395E-02  5037   0.191E-01    0.643E-01
RMM:   5    -0.413217887348E+03    0.24235E-01   -0.86110E-03  4642   0.108E-01    0.559E-02
RMM:   6    -0.413217866957E+03    0.20391E-04   -0.17777E-03  5543   0.406E-02    0.297E-02
RMM:   7    -0.413217884664E+03   -0.17707E-04   -0.28991E-04  5612   0.169E-02    0.204E-02
RMM:   8    -0.413217884765E+03   -0.10104E-06   -0.10796E-04  5077   0.110E-02    0.102E-02
RMM:   9    -0.413217877100E+03    0.76648E-05   -0.11667E-05  3896   0.490E-03    0.426E-03
RMM:  10    -0.413217874972E+03    0.21281E-05   -0.26667E-06  2688   0.231E-03    0.250E-03
RMM:  11    -0.413217872238E+03    0.27345E-05   -0.11573E-06  2491   0.171E-03    0.126E-03
RMM:  12    -0.413217868551E+03    0.36869E-05   -0.69959E-07  2375   0.132E-03    0.656E-04
RMM:  13    -0.413217865733E+03    0.28182E-05   -0.32949E-07  1863   0.943E-04    0.293E-04
RMM:  14    -0.413217862988E+03    0.27447E-05   -0.19484E-07  1406   0.756E-04    0.159E-04
RMM:  15    -0.413217858793E+03    0.41946E-05   -0.16168E-07  1372   0.730E-04    0.118E-04
RMM:  16    -0.413217856170E+03    0.26237E-05   -0.10485E-07  1225   0.660E-04    0.815E-05
RMM:  17    -0.413217851037E+03    0.51325E-05   -0.11115E-07  1480   0.686E-04    0.574E-05
RMM:  18    -0.413217849379E+03    0.16582E-05   -0.49831E-08   961   0.558E-04    0.321E-05
RMM:  19    -0.413217848128E+03    0.12513E-05   -0.32776E-08   866   0.540E-04    0.185E-05
RMM:  20    -0.413217847634E+03    0.49321E-06   -0.19571E-08   735   0.520E-04
   47 T=    72. E= -.41286647E+03 F= -.41321785E+03 E0= -.41319691E+03  EK= 0.35138E+00 SP= 0.00E+00 SK= 0.00E+00
       N       E                     dE             d eps       ncg     rms          rms(c)
RMM:   1    -0.413234273381E+03   -0.16425E-01   -0.80644E+00  4312   0.140E+00    0.968E-01
RMM:   2    -0.413222663028E+03    0.11610E-01   -0.12767E-01  4511   0.176E-01    0.711E-01
RMM:   3    -0.413233397333E+03   -0.10734E-01   -0.45276E-02  5102   0.148E-01    0.561E-01
RMM:   4    -0.413231672261E+03    0.17251E-02   -0.43981E-02  4994   0.188E-01    0.530E-01
RMM:   5    -0.413215328993E+03    0.16343E-01   -0.52245E-03  4580   0.922E-02    0.547E-02
RMM:   6    -0.413215258264E+03    0.70730E-04   -0.10131E-03  5163   0.329E-02    0.283E-02
RMM:   7    -0.413215270607E+03   -0.12343E-04   -0.17770E-04  5522   0.136E-02    0.153E-02
RMM:   8    -0.413215274267E+03   -0.36603E-05   -0.95566E-05  5213   0.100E-02    0.108E-02
RMM:   9    -0.413215261914E+03    0.12353E-04   -0.13873E-05  4142   0.505E-03    0.413E-03
RMM:  10    -0.413215258951E+03    0.29630E-05   -0.29841E-06  2714   0.238E-03    0.230E-03
RMM:  11    -0.413215254117E+03    0.48340E-05   -0.11853E-06  2451   0.180E-03    0.120E-03
RMM:  12    -0.413215249787E+03    0.43305E-05   -0.56157E-07  2306   0.128E-03    0.692E-04
RMM:  13    -0.413215245482E+03    0.43046E-05   -0.27040E-07  1735   0.904E-04    0.318E-04
RMM:  14    -0.413215240877E+03    0.46050E-05   -0.14975E-07  1323   0.724E-04    0.164E-04
RMM:  15    -0.413215236187E+03    0.46903E-05   -0.10917E-07  1231   0.680E-04    0.120E-04
RMM:  16    -0.413215232803E+03    0.33837E-05   -0.74721E-08  1121   0.631E-04    0.917E-05
RMM:  17    -0.413215226703E+03    0.61002E-05   -0.80479E-08  1372   0.651E-04    0.682E-05
RMM:  18    -0.413215225144E+03    0.15592E-05   -0.30061E-08   805   0.525E-04    0.516E-05
RMM:  19    -0.413215223636E+03    0.15073E-05   -0.22215E-08   754   0.518E-04    0.251E-05
RMM:  20    -0.413215222675E+03    0.96194E-06   -0.15638E-08   693   0.514E-04
   48 T=    71. E= -.41286664E+03 F= -.41321522E+03 E0= -.41319430E+03  EK= 0.34858E+00 SP= 0.00E+00 SK= 0.00E+00
       N       E                     dE             d eps       ncg     rms          rms(c)
RMM:   1    -0.413231592553E+03   -0.16369E-01   -0.79044E+00  4308   0.151E+00    0.954E-01
RMM:   2    -0.413217286102E+03    0.14306E-01   -0.12843E-01  4586   0.185E-01    0.700E-01
RMM:   3    -0.413235822169E+03   -0.18536E-01   -0.49043E-02  5136   0.167E-01    0.668E-01
RMM:   4    -0.413221274890E+03    0.14547E-01   -0.43663E-02  4973   0.190E-01    0.439E-01
RMM:   5    -0.413210130258E+03    0.11145E-01   -0.37596E-03  4564   0.848E-02    0.561E-02
RMM:   6    -0.413210015391E+03    0.11487E-03   -0.54375E-04  4789   0.280E-02    0.287E-02
RMM:   7    -0.413210036327E+03   -0.20936E-04   -0.19085E-04  5804   0.148E-02    0.156E-02
RMM:   8    -0.413210026143E+03    0.10184E-04   -0.64454E-05  5114   0.898E-03    0.916E-03
RMM:   9    -0.413210020845E+03    0.52979E-05   -0.10341E-05  3929   0.440E-03    0.404E-03
RMM:  10    -0.413210017420E+03    0.34250E-05   -0.16459E-06  2570   0.216E-03    0.227E-03
RMM:  11    -0.413210011601E+03    0.58185E-05   -0.10833E-06  2481   0.169E-03    0.138E-03
RMM:  12    -0.413210008145E+03    0.34566E-05   -0.45606E-07  2270   0.115E-03    0.742E-04
RMM:  13    -0.413210002563E+03    0.55816E-05   -0.35080E-07  2124   0.976E-04    0.445E-04
RMM:  14    -0.413209997685E+03    0.48780E-05   -0.17129E-07  1384   0.734E-04    0.282E-04
RMM:  15    -0.413209993171E+03    0.45142E-05   -0.11181E-07  1131   0.655E-04    0.133E-04
RMM:  16    -0.413209989510E+03    0.36603E-05   -0.82900E-08  1140   0.631E-04    0.934E-05
RMM:  17    -0.413209982937E+03    0.65737E-05   -0.91583E-08  1463   0.669E-04    0.128E-04
RMM:  18    -0.413209981667E+03    0.12695E-05   -0.39587E-08   903   0.526E-04    0.969E-05
RMM:  19    -0.413209979760E+03    0.19073E-05   -0.31138E-08   873   0.520E-04    0.337E-05
RMM:  20    -0.413209978370E+03    0.13898E-05   -0.22171E-08   765   0.507E-04    0.273E-05
[...]
RMM:   9    -0.413160267151E+03    0.11110E-05   -0.93376E-06  3229   0.349E-03    0.358E-03
RMM:  10    -0.413160268053E+03   -0.90250E-06   -0.23560E-06  2574   0.206E-03
  135 T=    60. E= -.41286565E+03 F= -.41316027E+03 E0= -.41313949E+03  EK= 0.29462E+00 SP= 0.00E+00 SK= 0.00E+00
       N       E                     dE             d eps       ncg     rms          rms(c)
RMM:   1    -0.413152420078E+03    0.78471E-02   -0.10516E+01  4283   0.817E-01    0.868E-01
RMM:   2    -0.413162078863E+03   -0.96588E-02   -0.12677E-01  4297   0.997E-02    0.620E-01
RMM:   3    -0.413162879495E+03   -0.80063E-03   -0.84313E-03  5127   0.580E-02    0.243E-01
RMM:   4    -0.413197231404E+03   -0.34352E-01   -0.45149E-02  5113   0.178E-01    0.790E-01
RMM:   5    -0.413160684163E+03    0.36547E-01   -0.16699E-02  4778   0.133E-01    0.582E-02
RMM:   6    -0.413160636463E+03    0.47699E-04   -0.26857E-03  5612   0.506E-02    0.187E-02
RMM:   7    -0.413160672582E+03   -0.36119E-04   -0.37096E-04  6083   0.165E-02    0.138E-02
RMM:   8    -0.413160679176E+03   -0.65937E-05   -0.55429E-05  5265   0.713E-03    0.786E-03
RMM:   9    -0.413160683392E+03   -0.42160E-05   -0.10543E-05  3481   0.383E-03    0.366E-03
RMM:  10    -0.413160686553E+03   -0.31617E-05   -0.20618E-06  2576   0.204E-03    0.213E-03
RMM:  11    -0.413160691748E+03   -0.51946E-05   -0.13513E-06  2539   0.174E-03    0.138E-03
RMM:  12    -0.413160694549E+03   -0.28013E-05   -0.65559E-07  2429   0.125E-03    0.568E-04
RMM:  13    -0.413160696133E+03   -0.15839E-05   -0.33788E-07  1742   0.884E-04    0.295E-04
RMM:  14    -0.413160697217E+03   -0.10837E-05   -0.22039E-07  1360   0.767E-04    0.167E-04
RMM:  15    -0.413160698602E+03   -0.13850E-05   -0.28081E-07  1614   0.800E-04    0.170E-04
RMM:  16    -0.413160699089E+03   -0.48681E-06   -0.15475E-07  1222   0.675E-04
  136 T=    60. E= -.41286578E+03 F= -.41316070E+03 E0= -.41313994E+03  EK= 0.29492E+00 SP= 0.00E+00 SK= 0.00E+00
       N       E                     dE             d eps       ncg     rms          rms(c)
RMM:   1    -0.413152421015E+03    0.82776E-02   -0.10532E+01  4264   0.823E-01    0.872E-01
RMM:   2    -0.413162328776E+03   -0.99078E-02   -0.12792E-01  4289   0.100E-01    0.631E-01
RMM:   3    -0.413161199635E+03    0.11291E-02   -0.74496E-03  5016   0.447E-02    0.168E-01
RMM:   4    -0.413200766113E+03   -0.39566E-01   -0.42839E-02  5145   0.172E-01    0.827E-01
RMM:   5    -0.413160410975E+03    0.40355E-01   -0.19625E-02  4798   0.139E-01    0.524E-02
RMM:   6    -0.413160470847E+03   -0.59872E-04   -0.32480E-03  5706   0.535E-02    0.195E-02
RMM:   7    -0.413160508237E+03   -0.37391E-04   -0.39725E-04  5975   0.161E-02    0.139E-02
RMM:   8    -0.413160517158E+03   -0.89209E-05   -0.53238E-05  5097   0.694E-03    0.762E-03
RMM:   9    -0.413160521362E+03   -0.42036E-05   -0.98472E-06  3332   0.345E-03    0.358E-03
RMM:  10    -0.413160526777E+03   -0.54149E-05   -0.25984E-06  2600   0.209E-03    0.235E-03
RMM:  11    -0.413160532319E+03   -0.55428E-05   -0.10673E-06  2497   0.156E-03    0.120E-03
RMM:  12    -0.413160536901E+03   -0.45820E-05   -0.69800E-07  2361   0.123E-03    0.356E-04
RMM:  13    -0.413160538555E+03   -0.16532E-05   -0.33365E-07  1852   0.905E-04    0.250E-04
RMM:  14    -0.413160540289E+03   -0.17341E-05   -0.24446E-07  1422   0.790E-04    0.146E-04
RMM:  15    -0.413160541964E+03   -0.16753E-05   -0.24809E-07  1471   0.767E-04    0.903E-05
RMM:  16    -0.413160542325E+03   -0.36072E-06   -0.14047E-07  1328   0.682E-04
  137 T=    60. E= -.41286539E+03 F= -.41316054E+03 E0= -.41313979E+03  EK= 0.29515E+00 SP= 0.00E+00 SK= 0.00E+00
       N       E                     dE             d eps       ncg     rms          rms(c)
RMM:   1    -0.413153942298E+03    0.65997E-02   -0.10485E+01  4267   0.823E-01    0.894E-01
RMM:   2    -0.413162488527E+03   -0.85462E-02   -0.12473E-01  4288   0.981E-02    0.623E-01
RMM:   3    -0.413161715302E+03    0.77323E-03   -0.78030E-03  4992   0.426E-02    0.165E-01
RMM:   4    -0.413196951205E+03   -0.35236E-01   -0.37414E-02  5146   0.161E-01    0.781E-01
RMM:   5    -0.413161185906E+03    0.35765E-01   -0.17545E-02  4803   0.131E-01    0.516E-02
RMM:   6    -0.413161226280E+03   -0.40373E-04   -0.29044E-03  5698   0.508E-02    0.226E-02
RMM:   7    -0.413161251500E+03   -0.25221E-04   -0.36627E-04  5959   0.157E-02    0.145E-02
RMM:   8    -0.413161253301E+03   -0.18007E-05   -0.52242E-05  5125   0.707E-03    0.764E-03
RMM:   9    -0.413161251789E+03    0.15117E-05   -0.94083E-06  3333   0.343E-03    0.361E-03
RMM:  10    -0.413161252372E+03   -0.58293E-06   -0.24812E-06  2595   0.209E-03
  138 T=    60. E= -.41286563E+03 F= -.41316125E+03 E0= -.41314051E+03  EK= 0.29562E+00 SP= 0.00E+00 SK= 0.00E+00
       N       E                     dE             d eps       ncg     rms          rms(c)
RMM:   1    -0.413154039674E+03    0.72121E-02   -0.10319E+01  4285   0.820E-01    0.872E-01
RMM:   2    -0.413162993399E+03   -0.89537E-02   -0.12392E-01  4295   0.984E-02    0.620E-01
RMM:   3    -0.413162991567E+03    0.18322E-05   -0.84897E-03  5104   0.526E-02    0.210E-01
RMM:   4    -0.413201364175E+03   -0.38373E-01   -0.46275E-02  5129   0.179E-01    0.824E-01
RMM:   5    -0.413161435131E+03    0.39929E-01   -0.18659E-02  4788   0.139E-01    0.592E-02
RMM:   6    -0.413161436371E+03   -0.12393E-05   -0.31581E-03  5657   0.532E-02    0.220E-02
RMM:   7    -0.413161470890E+03   -0.34519E-04   -0.41862E-04  6097   0.170E-02    0.152E-02
RMM:   8    -0.413161475228E+03   -0.43381E-05   -0.65581E-05  5366   0.798E-03    0.843E-03
RMM:   9    -0.413161475063E+03    0.16435E-06   -0.11378E-05  3527   0.387E-03    0.360E-03
RMM:  10    -0.413161477063E+03   -0.20000E-05   -0.25903E-06  2615   0.215E-03    0.230E-03
RMM:  11    -0.413161479825E+03   -0.27617E-05   -0.14492E-06  2530   0.181E-03    0.139E-03
RMM:  12    -0.413161481264E+03   -0.14389E-05   -0.77978E-07  2497   0.136E-03    0.525E-04
RMM:  13    -0.413161481804E+03   -0.53979E-06   -0.34993E-07  1865   0.932E-04
  139 T=    60. E= -.41286555E+03 F= -.41316148E+03 E0= -.41314075E+03  EK= 0.29593E+00 SP= 0.00E+00 SK= 0.00E+00
       N       E                     dE             d eps       ncg     rms          rms(c)
RMM:   1    -0.413154282338E+03    0.71989E-02   -0.10308E+01  4265   0.822E-01    0.868E-01
RMM:   2    -0.413163657262E+03   -0.93749E-02   -0.12586E-01  4285   0.989E-02    0.632E-01
RMM:   3    -0.413161780876E+03    0.18764E-02   -0.78414E-03  4861   0.395E-02    0.130E-01
RMM:   4    -0.413180865273E+03   -0.19084E-01   -0.19855E-02  5149   0.118E-01    0.578E-01
RMM:   5    -0.413161583607E+03    0.19282E-01   -0.96536E-03  4818   0.962E-02    0.412E-02
RMM:   6    -0.413161590219E+03   -0.66123E-05   -0.16185E-03  5693   0.382E-02    0.218E-02
RMM:   7    -0.413161610122E+03   -0.19902E-04   -0.21647E-04  5728   0.124E-02    0.116E-02
RMM:   8    -0.413161618612E+03   -0.84898E-05   -0.37227E-05  4845   0.623E-03    0.631E-03
RMM:   9    -0.413161621086E+03   -0.24742E-05   -0.56065E-06  3032   0.290E-03    0.317E-03
RMM:  10    -0.413161626319E+03   -0.52334E-05   -0.18750E-06  2548   0.198E-03    0.213E-03
RMM:  11    -0.413161631487E+03   -0.51676E-05   -0.10373E-06  2493   0.154E-03    0.979E-04
RMM:  12    -0.413161635112E+03   -0.36249E-05   -0.61425E-07  2257   0.116E-03    0.404E-04
RMM:  13    -0.413161636961E+03   -0.18496E-05   -0.33801E-07  1740   0.870E-04    0.250E-04
RMM:  14    -0.413161638213E+03   -0.12514E-05   -0.23701E-07  1375   0.758E-04    0.127E-04
RMM:  15    -0.413161639113E+03   -0.90037E-06   -0.21415E-07  1387   0.728E-04
  140 T=    60. E= -.41286536E+03 F= -.41316164E+03 E0= -.41314092E+03  EK= 0.29628E+00 SP= 0.00E+00 SK= 0.00E+00
       N       E                     dE             d eps       ncg     rms          rms(c)
RMM:   1    -0.413156723832E+03    0.49144E-02   -0.10254E+01  4266   0.834E-01    0.891E-01
RMM:   2    -0.413163950135E+03   -0.72263E-02   -0.12248E-01  4286   0.994E-02    0.627E-01
RMM:   3    -0.413162461578E+03    0.14886E-02   -0.82485E-03  4818   0.381E-02    0.133E-01
RMM:   4    -0.413175328029E+03   -0.12866E-01   -0.13493E-02  5166   0.976E-02    0.477E-01
RMM:   5    -0.413162352639E+03    0.12975E-01   -0.65781E-03  4824   0.796E-02    0.404E-02
RMM:   6    -0.413162343568E+03    0.90712E-05   -0.11520E-03  5674   0.329E-02    0.242E-02
RMM:   7    -0.413162349705E+03   -0.61363E-05   -0.18251E-04  5685   0.117E-02    0.110E-02
RMM:   8    -0.413162349762E+03   -0.57189E-07   -0.33654E-05  4859   0.618E-03    0.618E-03
RMM:   9    -0.413162348916E+03    0.84602E-06   -0.38293E-06  2847   0.255E-03
  141 T=    60. E= -.41286561E+03 F= -.41316235E+03 E0= -.41314164E+03  EK= 0.29674E+00 SP= 0.00E+00 SK= 0.00E+00
       N       E                     dE             d eps       ncg     rms          rms(c)
RMM:   1    -0.413155922864E+03    0.64269E-02   -0.10071E+01  4271   0.819E-01    0.878E-01
RMM:   2    -0.413164113149E+03   -0.81903E-02   -0.12076E-01  4289   0.992E-02    0.621E-01
RMM:   3    -0.413162730413E+03    0.13827E-02   -0.86128E-03  4981   0.446E-02    0.152E-01
RMM:   4    -0.413195809679E+03   -0.33079E-01   -0.35219E-02  5144   0.156E-01    0.757E-01
RMM:   5    -0.413162235245E+03    0.33574E-01   -0.16582E-02  4816   0.127E-01    0.554E-02
RMM:   6    -0.413162241952E+03   -0.67073E-05   -0.27757E-03  5685   0.500E-02    0.255E-02
RMM:   7    -0.413162266144E+03   -0.24192E-04   -0.37604E-04  5998   0.160E-02    0.149E-02
RMM:   8    -0.413162267519E+03   -0.13752E-05   -0.62857E-05  5257   0.799E-03    0.828E-03
RMM:   9    -0.413162265517E+03    0.20024E-05   -0.98448E-06  3426   0.364E-03    0.366E-03
RMM:  10    -0.413162266489E+03   -0.97233E-06   -0.29198E-06  2644   0.230E-03
  142 T=    60. E= -.41286535E+03 F= -.41316227E+03 E0= -.41314157E+03  EK= 0.29691E+00 SP= 0.00E+00 SK= 0.00E+00
       N       E                     dE             d eps       ncg     rms          rms(c)
RMM:   1    -0.413156563370E+03    0.57021E-02   -0.10009E+01  4284   0.819E-01    0.866E-01
RMM:   2    -0.413165170603E+03   -0.86072E-02   -0.12216E-01  4291   0.985E-02    0.632E-01
RMM:   3    -0.413163089233E+03    0.20814E-02   -0.89662E-03  4954   0.417E-02    0.127E-01
RMM:   4    -0.413188937592E+03   -0.25848E-01   -0.27146E-02  5148   0.137E-01    0.670E-01
RMM:   5    -0.413162760165E+03    0.26177E-01   -0.12968E-02  4815   0.112E-01    0.484E-02
RMM:   6    -0.413162774482E+03   -0.14317E-04   -0.21743E-03  5715   0.443E-02    0.250E-02
RMM:   7    -0.413162797748E+03   -0.23266E-04   -0.30346E-04  5935   0.147E-02    0.139E-02
RMM:   8    -0.413162804309E+03   -0.65606E-05   -0.54426E-05  5153   0.751E-03    0.761E-03
RMM:   9    -0.413162805160E+03   -0.85127E-06   -0.78272E-06  3268   0.333E-03
  143 T=    61. E= -.41286543E+03 F= -.41316281E+03 E0= -.41314212E+03  EK= 0.29738E+00 SP= 0.00E+00 SK= 0.00E+00
       N       E                     dE             d eps       ncg     rms          rms(c)
RMM:   1    -0.413157975217E+03    0.48291E-02   -0.99383E+00  4266   0.824E-01    0.885E-01
RMM:   2    -0.413165314626E+03   -0.73394E-02   -0.11958E-01  4294   0.980E-02    0.631E-01
RMM:   3    -0.413163878129E+03    0.14365E-02   -0.96729E-03  4994   0.465E-02    0.147E-01
RMM:   4    -0.413198299774E+03   -0.34422E-01   -0.37001E-02  5136   0.160E-01    0.772E-01
RMM:   5    -0.413163297242E+03    0.35003E-01   -0.17183E-02  4815   0.129E-01    0.580E-02
RMM:   6    -0.413163297129E+03    0.11372E-06   -0.28888E-03  5685   0.511E-02    0.269E-02
RMM:   7    -0.413163325274E+03   -0.28146E-04   -0.40612E-04  6023   0.166E-02    0.155E-02
RMM:   8    -0.413163327268E+03   -0.19938E-05   -0.66794E-05  5309   0.832E-03    0.860E-03
RMM:   9    -0.413163325317E+03    0.19505E-05   -0.10281E-05  3473   0.374E-03    0.382E-03
RMM:  10    -0.413163326509E+03   -0.11919E-05   -0.30669E-06  2659   0.236E-03    0.266E-03
RMM:  11    -0.413163327271E+03   -0.76129E-06   -0.14036E-06  2526   0.186E-03
  144 T=    61. E= -.41286555E+03 F= -.41316333E+03 E0= -.41314265E+03  EK= 0.29777E+00 SP= 0.00E+00 SK= 0.00E+00
       N       E                     dE             d eps       ncg     rms          rms(c)
RMM:   1    -0.413158236192E+03    0.50903E-02   -0.97792E+00  4265   0.817E-01    0.884E-01
RMM:   2    -0.413165255965E+03   -0.70198E-02   -0.11743E-01  4287   0.983E-02    0.625E-01
RMM:   3    -0.413163327618E+03    0.19283E-02   -0.96734E-03  4678   0.386E-02    0.113E-01
RMM:   4    -0.413167942404E+03   -0.46148E-02   -0.52873E-03  5178   0.622E-02    0.289E-01
RMM:   5    -0.413163286924E+03    0.46555E-02   -0.24068E-03  4834   0.487E-02    0.403E-02
RMM:   6    -0.413163264371E+03    0.22553E-04   -0.53780E-04  5567   0.234E-02    0.273E-02
RMM:   7    -0.413163256090E+03    0.82814E-05   -0.17259E-04  5521   0.110E-02    0.130E-02
RMM:   8    -0.413163253022E+03    0.30685E-05   -0.25370E-05  4801   0.575E-03    0.651E-03
RMM:   9    -0.413163252276E+03    0.74515E-06   -0.31708E-06  2651   0.224E-03
  145 T=    61. E= -.41286529E+03 F= -.41316325E+03 E0= -.41314258E+03  EK= 0.29796E+00 SP= 0.00E+00 SK= 0.00E+00
       N       E                     dE             d eps       ncg     rms          rms(c)
RMM:   1    -0.413159211105E+03    0.40419E-02   -0.96625E+00  4266   0.815E-01    0.865E-01
RMM:   2    -0.413166888976E+03   -0.76779E-02   -0.11761E-01  4291   0.983E-02    0.631E-01
RMM:   3    -0.413164366954E+03    0.25220E-02   -0.10400E-02  4858   0.437E-02    0.107E-01
RMM:   4    -0.413182583792E+03   -0.18217E-01   -0.18959E-02  5155   0.116E-01    0.565E-01
RMM:   5    -0.413164144277E+03    0.18440E-01   -0.92641E-03  4838   0.937E-02    0.485E-02
RMM:   6    -0.413164145720E+03   -0.14437E-05   -0.16002E-03  5704   0.379E-02    0.273E-02
RMM:   7    -0.413164157051E+03   -0.11330E-04   -0.26188E-04  5839   0.135E-02    0.130E-02
RMM:   8    -0.413164159868E+03   -0.28171E-05   -0.44241E-05  5162   0.706E-03    0.731E-03
RMM:   9    -0.413164159456E+03    0.41182E-06   -0.59095E-06  3113   0.305E-03
  146 T=    61. E= -.41286560E+03 F= -.41316416E+03 E0= -.41314350E+03  EK= 0.29856E+00 SP= 0.00E+00 SK= 0.00E+00
       N       E                     dE             d eps       ncg     rms          rms(c)
RMM:   1    -0.413160191458E+03    0.39684E-02   -0.95981E+00  4268   0.817E-01    0.880E-01
RMM:   2    -0.413167168644E+03   -0.69772E-02   -0.11627E-01  4294   0.977E-02    0.636E-01
RMM:   3    -0.413165266289E+03    0.19024E-02   -0.11571E-02  5027   0.507E-02    0.149E-01
RMM:   4    -0.413202331596E+03   -0.37065E-01   -0.41016E-02  5132   0.169E-01    0.801E-01
RMM:   5    -0.413164392491E+03    0.37939E-01   -0.18482E-02  4817   0.134E-01    0.633E-02
RMM:   6    -0.413164432235E+03   -0.39744E-04   -0.30819E-03  5662   0.535E-02    0.286E-02
RMM:   7    -0.413164459298E+03   -0.27063E-04   -0.45689E-04  6080   0.177E-02    0.169E-02
RMM:   8    -0.413164460418E+03   -0.11198E-05   -0.77651E-05  5410   0.922E-03    0.921E-03
RMM:   9    -0.413164457907E+03    0.25113E-05   -0.12246E-05  3698   0.409E-03    0.389E-03
RMM:  10    -0.413164458991E+03   -0.10840E-05   -0.34693E-06  2739   0.246E-03    0.266E-03
RMM:  11    -0.413164459707E+03   -0.71587E-06   -0.14482E-06  2512   0.190E-03
  147 T=    61. E= -.41286545E+03 F= -.41316446E+03 E0= -.41314380E+03  EK= 0.29901E+00 SP= 0.00E+00 SK= 0.00E+00
       N       E                     dE             d eps       ncg     rms          rms(c)
RMM:   1    -0.413161242183E+03    0.32168E-02   -0.94602E+00  4264   0.812E-01    0.889E-01
RMM:   2    -0.413167238015E+03   -0.59958E-02   -0.11390E-01  4289   0.963E-02    0.630E-01
RMM:   3    -0.413165277374E+03    0.19606E-02   -0.11735E-02  4977   0.466E-02    0.134E-01
RMM:   4    -0.413196642326E+03   -0.31365E-01   -0.33555E-02  5134   0.153E-01    0.737E-01
RMM:   5    -0.413164725821E+03    0.31917E-01   -0.15663E-02  4824   0.123E-01    0.587E-02
RMM:   6    -0.413164769463E+03   -0.43643E-04   -0.26927E-03  5702   0.495E-02    0.307E-02
RMM:   7    -0.413164776626E+03   -0.71631E-05   -0.40275E-04  6007   0.166E-02    0.165E-02
RMM:   8    -0.413164772453E+03    0.41731E-05   -0.61272E-05  5363   0.824E-03    0.824E-03
RMM:   9    -0.413164768633E+03    0.38198E-05   -0.10033E-05  3484   0.366E-03    0.409E-03
RMM:  10    -0.413164766224E+03    0.24092E-05   -0.28605E-06  2654   0.236E-03    0.273E-03
RMM:  11    -0.413164763438E+03    0.27863E-05   -0.11913E-06  2510   0.175E-03    0.147E-03
RMM:  12    -0.413164759884E+03    0.35541E-05   -0.74174E-07  2484   0.138E-03    0.635E-04
RMM:  13    -0.413164757995E+03    0.18889E-05   -0.37582E-07  2073   0.991E-04    0.362E-04
RMM:  14    -0.413164756088E+03    0.19068E-05   -0.23526E-07  1635   0.815E-04    0.223E-04
RMM:  15    -0.413164754028E+03    0.20603E-05   -0.16738E-07  1429   0.732E-04    0.128E-04
RMM:  16    -0.413164750849E+03    0.31787E-05   -0.17306E-07  1499   0.734E-04    0.107E-04
RMM:  17    -0.413164749544E+03    0.13050E-05   -0.88573E-08  1195   0.616E-04    0.857E-05
RMM:  18    -0.413164748030E+03    0.15143E-05   -0.62807E-08  1069   0.592E-04    0.314E-05
RMM:  19    -0.413164746672E+03    0.13573E-05   -0.49751E-08  1060   0.570E-04    0.294E-05
RMM:  20    -0.413164746354E+03    0.31837E-06   -0.20188E-08   766   0.521E-04
  148 T=    61. E= -.41286531E+03 F= -.41316475E+03 E0= -.41314410E+03  EK= 0.29944E+00 SP= 0.00E+00 SK= 0.00E+00
       N       E                     dE             d eps       ncg     rms          rms(c)
RMM:   1    -0.413162124054E+03    0.26226E-02   -0.92921E+00  4264   0.812E-01    0.867E-01
RMM:   2    -0.413168543390E+03   -0.64193E-02   -0.11354E-01  4289   0.959E-02    0.632E-01
RMM:   3    -0.413166165355E+03    0.23780E-02   -0.12355E-02  4956   0.472E-02    0.118E-01
RMM:   4    -0.413195267530E+03   -0.29102E-01   -0.31123E-02  5136   0.147E-01    0.711E-01
RMM:   5    -0.413165639829E+03    0.29628E-01   -0.14527E-02  4821   0.118E-01    0.568E-02
RMM:   6    -0.413165678539E+03   -0.38710E-04   -0.24995E-03  5679   0.474E-02    0.298E-02
RMM:   7    -0.413165693870E+03   -0.15331E-04   -0.37916E-04  5974   0.159E-02    0.156E-02
RMM:   8    -0.413165693753E+03    0.11647E-06   -0.53956E-05  5316   0.776E-03    0.774E-03
RMM:   9    -0.413165692597E+03    0.11566E-05   -0.92276E-06  3403   0.347E-03    0.393E-03
RMM:  10    -0.413165693781E+03   -0.11843E-05   -0.25442E-06  2607   0.227E-03    0.263E-03
RMM:  11    -0.413165694533E+03   -0.75140E-06   -0.10893E-06  2498   0.168E-03
  149 T=    61. E= -.41286560E+03 F= -.41316569E+03 E0= -.41314505E+03  EK= 0.30009E+00 SP= 0.00E+00 SK= 0.00E+00
       N       E                     dE             d eps       ncg     rms          rms(c)
RMM:   1    -0.413162929125E+03    0.27647E-02   -0.92398E+00  4264   0.809E-01    0.876E-01
RMM:   2    -0.413168921578E+03   -0.59925E-02   -0.11297E-01  4291   0.947E-02    0.641E-01
RMM:   3    -0.413166524315E+03    0.23973E-02   -0.13790E-02  5025   0.503E-02    0.134E-01
RMM:   4    -0.413201444122E+03   -0.34920E-01   -0.38671E-02  5126   0.164E-01    0.778E-01
RMM:   5    -0.413165673703E+03    0.35770E-01   -0.17242E-02  4817   0.130E-01    0.614E-02
RMM:   6    -0.413165729049E+03   -0.55346E-04   -0.30032E-03  5669   0.520E-02    0.301E-02
RMM:   7    -0.413165753187E+03   -0.24138E-04   -0.44302E-04  6040   0.171E-02    0.169E-02
RMM:   8    -0.413165752744E+03    0.44288E-06   -0.63412E-05  5396   0.842E-03    0.818E-03
RMM:   9    -0.413165751411E+03    0.13333E-05   -0.10838E-05  3573   0.374E-03    0.403E-03
RMM:  10    -0.413165752583E+03   -0.11717E-05   -0.29413E-06  2663   0.238E-03    0.279E-03
RMM:  11    -0.413165753327E+03   -0.74416E-06   -0.12156E-06  2503   0.178E-03
  150 T=    61. E= -.41286524E+03 F= -.41316575E+03 E0= -.41314511E+03  EK= 0.30051E+00 SP= 0.00E+00 SK= 0.00E+00
