       N       E                     dE             d eps       ncg     rms          rms(c)
RMM:   1     0.220140743851E+04    0.22014E+04   -0.52443E+04  2132   0.654E+02
RMM:   2     0.705746823148E+03   -0.14957E+04   -0.16262E+04  2132   0.177E+02
RMM:   3     0.138138640662E+03   -0.56761E+03   -0.65697E+03  2132   0.117E+02
RMM:   4    -0.159482743297E+03   -0.29762E+03   -0.27864E+03  2132   0.936E+01
RMM:   5    -0.287535196740E+03   -0.12805E+03   -0.11441E+03  2132   0.595E+01
RMM:   6    -0.349980375874E+03   -0.62445E+02   -0.55153E+02  2132   0.423E+01
RMM:   7    -0.382834852887E+03   -0.32854E+02   -0.30397E+02  2132   0.293E+01
RMM:   8    -0.404243367695E+03   -0.21409E+02   -0.18393E+02  2132   0.233E+01
RMM:   9    -0.435938366810E+03   -0.31695E+02   -0.30601E+02  6102   0.173E+01
RMM:  10    -0.441282598683E+03   -0.53442E+01   -0.63413E+01  6400   0.540E+00
RMM:  11    -0.442511161433E+03   -0.12286E+01   -0.11362E+01  6217   0.174E+00
RMM:  12    -0.442889044655E+03   -0.37788E+00   -0.27362E+00  6372   0.601E-01    0.134E+02
RMM:  13    -0.425546621953E+03    0.17342E+02   -0.80498E+01  4667   0.119E+01    0.712E+01
RMM:  14    -0.498319550472E+03   -0.72773E+02   -0.53422E+02  5413   0.231E+01    0.305E+01
RMM:  15    -0.414220376409E+03    0.84099E+02   -0.19394E+02  5060   0.162E+01    0.603E+00
RMM:  16    -0.414106161507E+03    0.11421E+00   -0.39176E+01  6079   0.601E+00    0.433E+00
RMM:  17    -0.413230709576E+03    0.87545E+00   -0.22045E+00  5316   0.179E+00    0.249E+00
RMM:  18    -0.413160923575E+03    0.69786E-01   -0.96020E-01  5934   0.102E+00    0.156E+00
RMM:  19    -0.413168122561E+03   -0.71990E-02   -0.27834E-01  5759   0.553E-01    0.857E-01
RMM:  20    -0.413182951756E+03   -0.14829E-01   -0.19626E-01  5303   0.489E-01    0.531E-01
RMM:  21    -0.413167569725E+03    0.15382E-01   -0.32804E-02  5018   0.221E-01    0.251E-01
RMM:  22    -0.413165998515E+03    0.15712E-02   -0.13944E-02  6065   0.988E-02    0.148E-01
RMM:  23    -0.413164383985E+03    0.16145E-02   -0.53042E-03  5869   0.668E-02    0.789E-02
RMM:  24    -0.413162978454E+03    0.14055E-02   -0.17970E-03  5610   0.408E-02    0.338E-02
RMM:  25    -0.413162746262E+03    0.23219E-03   -0.78654E-04  5882   0.228E-02    0.266E-02
RMM:  26    -0.413162975006E+03   -0.22874E-03   -0.56480E-04  5758   0.252E-02    0.304E-02
RMM:  27    -0.413163370630E+03   -0.39562E-03   -0.17164E-04  4546   0.183E-02    0.165E-02
RMM:  28    -0.413163872650E+03   -0.50202E-03   -0.20022E-04  5150   0.204E-02    0.849E-03
RMM:  29    -0.413164205465E+03   -0.33282E-03   -0.95585E-05  4381   0.139E-02    0.444E-03
RMM:  30    -0.413164405345E+03   -0.19988E-03   -0.68762E-05  3911   0.931E-03    0.261E-03
RMM:  31    -0.413164496366E+03   -0.91021E-04   -0.41314E-05  3083   0.544E-03    0.204E-03
RMM:  32    -0.413164522180E+03   -0.25814E-04   -0.17075E-05  2914   0.288E-03    0.991E-04
RMM:  33    -0.413164530312E+03   -0.81313E-05   -0.77232E-06  2749   0.191E-03    0.555E-04
RMM:  34    -0.413164533050E+03   -0.27389E-05   -0.36246E-06  2617   0.151E-03    0.824E-04
RMM:  35    -0.413164532655E+03    0.39554E-06   -0.20086E-06  1877   0.992E-04
    1 T=    61. E= -.41286672E+03 F= -.41316453E+03 E0= -.41314203E+03  EK= 0.29781E+00 SP= 0.00E+00 SK= 0.00E+00
       N       E                     dE             d eps       ncg     rms          rms(c)
RMM:   1    -0.413160348806E+03    0.41842E-02   -0.96888E+00  3991   0.643E-01    0.885E-01
RMM:   2    -0.413167800142E+03   -0.74513E-02   -0.11873E-01  3979   0.947E-02    0.648E-01
RMM:   3    -0.413164555977E+03    0.32442E-02   -0.12448E-02  4827   0.471E-02    0.108E-01
RMM:   4    -0.413189741120E+03   -0.25185E-01   -0.26773E-02  5207   0.136E-01    0.662E-01
RMM:   5    -0.413164084125E+03    0.25657E-01   -0.12591E-02  4843   0.111E-01    0.454E-02
RMM:   6    -0.413164257041E+03   -0.17292E-03   -0.22194E-03  5798   0.454E-02    0.306E-02
RMM:   7    -0.413164266708E+03   -0.96668E-05   -0.38539E-04  5713   0.179E-02    0.194E-02
RMM:   8    -0.413164265750E+03    0.95825E-06   -0.55564E-05  5048   0.798E-03    0.877E-03
RMM:   9    -0.413164268159E+03   -0.24087E-05   -0.11601E-05  3683   0.369E-03    0.665E-03
RMM:  10    -0.413164273070E+03   -0.49120E-05   -0.20400E-06  2591   0.210E-03    0.417E-03
RMM:  11    -0.413164278220E+03   -0.51492E-05   -0.14049E-06  2532   0.177E-03    0.214E-03
RMM:  12    -0.413164285314E+03   -0.70941E-05   -0.17243E-06  2573   0.184E-03    0.910E-04
RMM:  13    -0.413164287055E+03   -0.17412E-05   -0.57741E-07  2321   0.119E-03    0.583E-04
RMM:  14    -0.413164287142E+03   -0.86606E-07   -0.32227E-07  1779   0.809E-04
    2 T=    61. E= -.41286658E+03 F= -.41316429E+03 E0= -.41314179E+03  EK= 0.29770E+00 SP= 0.00E+00 SK= 0.00E+00
       N       E                     dE             d eps       ncg     rms          rms(c)
RMM:   1    -0.413161463822E+03    0.28232E-02   -0.96935E+00  4191   0.648E-01    0.906E-01
RMM:   2    -0.413167841260E+03   -0.63774E-02   -0.11692E-01  3981   0.933E-02    0.643E-01
RMM:   3    -0.413165061352E+03    0.27799E-02   -0.12073E-02  4767   0.449E-02    0.115E-01
RMM:   4    -0.413186948487E+03   -0.21887E-01   -0.22424E-02  5174   0.125E-01    0.619E-01
RMM:   5    -0.413164706389E+03    0.22242E-01   -0.10801E-02  4831   0.103E-01    0.450E-02
RMM:   6    -0.413164859389E+03   -0.15300E-03   -0.19674E-03  5784   0.425E-02    0.311E-02
RMM:   7    -0.413164853981E+03    0.54079E-05   -0.35637E-04  5605   0.179E-02    0.191E-02
RMM:   8    -0.413164845937E+03    0.80442E-05   -0.48800E-05  4974   0.782E-03    0.883E-03
RMM:   9    -0.413164844813E+03    0.11238E-05   -0.98172E-06  3542   0.351E-03    0.676E-03
RMM:  10    -0.413164845183E+03   -0.36952E-06   -0.16984E-06  2550   0.214E-03
    3 T=    61. E= -.41286702E+03 F= -.41316485E+03 E0= -.41314235E+03  EK= 0.29782E+00 SP= 0.00E+00 SK= 0.00E+00
       N       E                     dE             d eps       ncg     rms          rms(c)
RMM:   1    -0.413160933940E+03    0.39109E-02   -0.96150E+00  4220   0.649E-01    0.890E-01
RMM:   2    -0.413167490133E+03   -0.65562E-02   -0.11634E-01  4164   0.910E-02    0.637E-01
RMM:   3    -0.413167963657E+03   -0.47352E-03   -0.14224E-02  5132   0.683E-02    0.263E-01
RMM:   4    -0.413196403050E+03   -0.28439E-01   -0.42619E-02  5135   0.175E-01    0.736E-01
RMM:   5    -0.413164534979E+03    0.31868E-01   -0.13334E-02  4747   0.122E-01    0.600E-02
RMM:   6    -0.413164606350E+03   -0.71371E-04   -0.24229E-03  5576   0.489E-02    0.304E-02
RMM:   7    -0.413164629446E+03   -0.23096E-04   -0.39938E-04  6031   0.172E-02    0.186E-02
RMM:   8    -0.413164627757E+03    0.16891E-05   -0.68807E-05  5240   0.907E-03    0.806E-03
RMM:   9    -0.413164625738E+03    0.20190E-05   -0.97551E-06  3491   0.371E-03    0.413E-03
RMM:  10    -0.413164627014E+03   -0.12759E-05   -0.22720E-06  2591   0.224E-03    0.279E-03
RMM:  11    -0.413164628536E+03   -0.15229E-05   -0.14006E-06  2531   0.185E-03    0.155E-03
RMM:  12    -0.413164629456E+03   -0.91947E-06   -0.81223E-07  2500   0.145E-03
    4 T=    61. E= -.41286689E+03 F= -.41316463E+03 E0= -.41314214E+03  EK= 0.29774E+00 SP= 0.00E+00 SK= 0.00E+00
       N       E                     dE             d eps       ncg     rms          rms(c)
RMM:   1    -0.413160893538E+03    0.37350E-02   -0.96704E+00  4236   0.655E-01    0.882E-01
RMM:   2    -0.413167963092E+03   -0.70696E-02   -0.11860E-01  3986   0.907E-02    0.646E-01
RMM:   3    -0.413165190846E+03    0.27722E-02   -0.12431E-02  4937   0.440E-02    0.117E-01
RMM:   4    -0.413194750503E+03   -0.29560E-01   -0.30922E-02  5150   0.147E-01    0.718E-01
RMM:   5    -0.413164604931E+03    0.30146E-01   -0.14448E-02  4816   0.119E-01    0.470E-02
RMM:   6    -0.413164788781E+03   -0.18385E-03   -0.24551E-03  5778   0.482E-02    0.307E-02
RMM:   7    -0.413164795579E+03   -0.67976E-05   -0.39893E-04  5762   0.182E-02    0.195E-02
RMM:   8    -0.413164793541E+03    0.20377E-05   -0.60997E-05  5058   0.829E-03    0.905E-03
RMM:   9    -0.413164794722E+03   -0.11806E-05   -0.11931E-05  3809   0.391E-03    0.671E-03
RMM:  10    -0.413164798743E+03   -0.40209E-05   -0.17814E-06  2568   0.210E-03    0.425E-03
RMM:  11    -0.413164802892E+03   -0.41493E-05   -0.12918E-06  2530   0.178E-03    0.219E-03
RMM:  12    -0.413164808423E+03   -0.55310E-05   -0.17440E-06  2586   0.187E-03    0.961E-04
RMM:  13    -0.413164809569E+03   -0.11465E-05   -0.48154E-07  2315   0.120E-03    0.614E-04
RMM:  14    -0.413164809593E+03   -0.23596E-07   -0.21285E-07  1743   0.807E-04
    5 T=    61. E= -.41286693E+03 F= -.41316481E+03 E0= -.41314233E+03  EK= 0.29788E+00 SP= 0.00E+00 SK= 0.00E+00
       N       E                     dE             d eps       ncg     rms          rms(c)
RMM:   1    -0.413161763877E+03    0.30457E-02   -0.96949E+00  4247   0.661E-01    0.902E-01
RMM:   2    -0.413168060960E+03   -0.62971E-02   -0.11728E-01  4019   0.928E-02    0.644E-01
RMM:   3    -0.413165465363E+03    0.25956E-02   -0.12136E-02  4758   0.454E-02    0.112E-01
RMM:   4    -0.413187073171E+03   -0.21608E-01   -0.22022E-02  5154   0.124E-01    0.616E-01
RMM:   5    -0.413165111013E+03    0.21962E-01   -0.10710E-02  4826   0.102E-01    0.444E-02
RMM:   6    -0.413165256343E+03   -0.14533E-03   -0.19171E-03  5776   0.418E-02    0.306E-02
RMM:   7    -0.413165248752E+03    0.75914E-05   -0.34489E-04  5613   0.175E-02    0.188E-02
RMM:   8    -0.413165240746E+03    0.80060E-05   -0.47223E-05  4922   0.766E-03    0.862E-03
RMM:   9    -0.413165239703E+03    0.10429E-05   -0.94066E-06  3511   0.349E-03    0.662E-03
RMM:  10    -0.413165240202E+03   -0.49857E-06   -0.16190E-06  2546   0.211E-03
    6 T=    61. E= -.41286701E+03 F= -.41316524E+03 E0= -.41314278E+03  EK= 0.29823E+00 SP= 0.00E+00 SK= 0.00E+00
       N       E                     dE             d eps       ncg     rms          rms(c)
RMM:   1    -0.413161384933E+03    0.38548E-02   -0.96477E+00  4254   0.663E-01    0.897E-01
RMM:   2    -0.413167880087E+03   -0.64952E-02   -0.11665E-01  4230   0.936E-02    0.638E-01
RMM:   3    -0.413168259647E+03   -0.37956E-03   -0.14237E-02  5104   0.681E-02    0.261E-01
RMM:   4    -0.413196832155E+03   -0.28573E-01   -0.42460E-02  5121   0.174E-01    0.737E-01
RMM:   5    -0.413164908855E+03    0.31923E-01   -0.13460E-02  4751   0.121E-01    0.596E-02
RMM:   6    -0.413164983163E+03   -0.74308E-04   -0.24099E-03  5575   0.488E-02    0.308E-02
RMM:   7    -0.413165003532E+03   -0.20369E-04   -0.39716E-04  6021   0.173E-02    0.188E-02
RMM:   8    -0.413165000421E+03    0.31107E-05   -0.68729E-05  5211   0.906E-03    0.807E-03
RMM:   9    -0.413164997002E+03    0.34197E-05   -0.95983E-06  3484   0.370E-03    0.415E-03
RMM:  10    -0.413164996919E+03    0.82942E-07   -0.22939E-06  2593   0.224E-03
    7 T=    61. E= -.41286659E+03 F= -.41316500E+03 E0= -.41314255E+03  EK= 0.29841E+00 SP= 0.00E+00 SK= 0.00E+00
       N       E                     dE             d eps       ncg     rms          rms(c)
RMM:   1    -0.413161631357E+03    0.33656E-02   -0.96643E+00  4264   0.668E-01    0.881E-01
RMM:   2    -0.413168819369E+03   -0.71880E-02   -0.11821E-01  4113   0.915E-02    0.644E-01
RMM:   3    -0.413166251126E+03    0.25682E-02   -0.12545E-02  4988   0.493E-02    0.139E-01
RMM:   4    -0.413203053093E+03   -0.36802E-01   -0.39812E-02  5140   0.166E-01    0.799E-01
RMM:   5    -0.413165331023E+03    0.37722E-01   -0.17935E-02  4803   0.133E-01    0.512E-02
RMM:   6    -0.413165533716E+03   -0.20269E-03   -0.29700E-03  5757   0.536E-02    0.320E-02
RMM:   7    -0.413165545446E+03   -0.11731E-04   -0.45676E-04  5847   0.191E-02    0.205E-02
RMM:   8    -0.413165545253E+03    0.19371E-06   -0.69974E-05  5194   0.888E-03    0.945E-03
RMM:   9    -0.413165545204E+03    0.48814E-07   -0.13832E-05  3947   0.417E-03    0.644E-03
RMM:  10    -0.413165548325E+03   -0.31215E-05   -0.21736E-06  2589   0.219E-03    0.412E-03
RMM:  11    -0.413165551130E+03   -0.28048E-05   -0.12194E-06  2532   0.172E-03    0.219E-03
RMM:  12    -0.413165554928E+03   -0.37978E-05   -0.17172E-06  2577   0.188E-03    0.902E-04
RMM:  13    -0.413165555986E+03   -0.10576E-05   -0.57804E-07  2342   0.125E-03    0.668E-04
RMM:  14    -0.413165555800E+03    0.18519E-06   -0.23362E-07  1817   0.837E-04
    8 T=    61. E= -.41286678E+03 F= -.41316556E+03 E0= -.41314313E+03  EK= 0.29878E+00 SP= 0.00E+00 SK= 0.00E+00
       N       E                     dE             d eps       ncg     rms          rms(c)
RMM:   1    -0.413162061037E+03    0.34949E-02   -0.97106E+00  4284   0.675E-01    0.897E-01
RMM:   2    -0.413168976787E+03   -0.69158E-02   -0.11802E-01  4110   0.938E-02    0.647E-01
RMM:   3    -0.413166009996E+03    0.29668E-02   -0.12245E-02  4790   0.453E-02    0.111E-01
RMM:   4    -0.413189149552E+03   -0.23140E-01   -0.23743E-02  5147   0.128E-01    0.637E-01
RMM:   5    -0.413165606927E+03    0.23543E-01   -0.11530E-02  4814   0.105E-01    0.444E-02
RMM:   6    -0.413165754539E+03   -0.14761E-03   -0.19858E-03  5802   0.427E-02    0.296E-02
RMM:   7    -0.413165754977E+03   -0.43864E-06   -0.33713E-04  5641   0.174E-02    0.186E-02
RMM:   8    -0.413165747647E+03    0.73305E-05   -0.53559E-05  4950   0.803E-03    0.886E-03
RMM:   9    -0.413165746382E+03    0.12649E-05   -0.10729E-05  3696   0.372E-03    0.680E-03
RMM:  10    -0.413165747039E+03   -0.65717E-06   -0.15997E-06  2544   0.211E-03
    9 T=    61. E= -.41286678E+03 F= -.41316575E+03 E0= -.41314334E+03  EK= 0.29897E+00 SP= 0.00E+00 SK= 0.00E+00
       N       E                     dE             d eps       ncg     rms          rms(c)
RMM:   1    -0.413162459146E+03    0.32872E-02   -0.96830E+00  4293   0.678E-01    0.904E-01
RMM:   2    -0.413168774119E+03   -0.63150E-02   -0.11677E-01  4284   0.949E-02    0.640E-01
RMM:   3    -0.413169418398E+03   -0.64428E-03   -0.14594E-02  5097   0.711E-02    0.272E-01
RMM:   4    -0.413196182463E+03   -0.26764E-01   -0.41651E-02  5107   0.172E-01    0.720E-01
RMM:   5    -0.413165761566E+03    0.30421E-01   -0.12678E-02  4732   0.118E-01    0.591E-02
RMM:   6    -0.413165832772E+03   -0.71206E-04   -0.23225E-03  5561   0.475E-02    0.311E-02
RMM:   7    -0.413165845690E+03   -0.12918E-04   -0.38220E-04  5999   0.170E-02    0.188E-02
RMM:   8    -0.413165840259E+03    0.54310E-05   -0.66770E-05  5199   0.899E-03    0.804E-03
RMM:   9    -0.413165835388E+03    0.48713E-05   -0.92441E-06  3451   0.368E-03    0.411E-03
RMM:  10    -0.413165834174E+03    0.12142E-05   -0.22323E-06  2587   0.223E-03    0.274E-03
RMM:  11    -0.413165832381E+03    0.17921E-05   -0.13105E-06  2521   0.181E-03    0.148E-03
RMM:  12    -0.413165830484E+03    0.18970E-05   -0.77554E-07  2479   0.142E-03    0.535E-04
RMM:  13    -0.413165829456E+03    0.10283E-05   -0.38074E-07  2095   0.101E-03    0.312E-04
RMM:  14    -0.413165828446E+03    0.10098E-05   -0.23631E-07  1628   0.810E-04    0.206E-04
RMM:  15    -0.413165827156E+03    0.12901E-05   -0.19331E-07  1464   0.739E-04    0.118E-04
RMM:  16    -0.413165825488E+03    0.16677E-05   -0.18916E-07  1437   0.718E-04    0.125E-04
RMM:  17    -0.413165823967E+03    0.15215E-05   -0.13777E-07  1285   0.662E-04    0.703E-05
RMM:  18    -0.413165822807E+03    0.11603E-05   -0.93508E-08  1103   0.605E-04    0.272E-05
RMM:  19    -0.413165822250E+03    0.55702E-06   -0.48462E-08   889   0.553E-04
   10 T=    61. E= -.41286669E+03 F= -.41316582E+03 E0= -.41314344E+03  EK= 0.29913E+00 SP= 0.00E+00 SK= 0.00E+00
       N       E                     dE             d eps       ncg     rms          rms(c)
RMM:   1    -0.413162798204E+03    0.30246E-02   -0.96485E+00  4288   0.686E-01    0.882E-01
RMM:   2    -0.413169786361E+03   -0.69882E-02   -0.11799E-01  4208   0.938E-02    0.642E-01
RMM:   3    -0.413167092983E+03    0.26934E-02   -0.12236E-02  4891   0.469E-02    0.126E-01
RMM:   4    -0.413199526250E+03   -0.32433E-01   -0.34364E-02  5133   0.154E-01    0.751E-01
RMM:   5    -0.413166408933E+03    0.33117E-01   -0.15937E-02  4801   0.125E-01    0.488E-02
RMM:   6    -0.413166608229E+03   -0.19930E-03   -0.27119E-03  5763   0.501E-02    0.320E-02
RMM:   7    -0.413166610603E+03   -0.23732E-05   -0.42660E-04  5692   0.186E-02    0.202E-02
RMM:   8    -0.413166606047E+03    0.45557E-05   -0.63546E-05  5114   0.852E-03    0.941E-03
RMM:   9    -0.413166604672E+03    0.13749E-05   -0.12827E-05  3903   0.403E-03    0.684E-03
RMM:  10    -0.413166606099E+03   -0.14269E-05   -0.18598E-06  2566   0.211E-03    0.435E-03
RMM:  11    -0.413166607566E+03   -0.14676E-05   -0.12520E-06  2514   0.176E-03    0.226E-03
RMM:  12    -0.413166609589E+03   -0.20228E-05   -0.15939E-06  2554   0.187E-03    0.924E-04
RMM:  13    -0.413166610032E+03   -0.44279E-06   -0.48333E-07  2320   0.121E-03
   11 T=    61. E= -.41286704E+03 F= -.41316661E+03 E0= -.41314425E+03  EK= 0.29957E+00 SP= 0.00E+00 SK= 0.00E+00
       N       E                     dE             d eps       ncg     rms          rms(c)
RMM:   1    -0.413162832237E+03    0.37774E-02   -0.97201E+00  4292   0.686E-01    0.893E-01
RMM:   2    -0.413169681270E+03   -0.68490E-02   -0.11865E-01  4210   0.937E-02    0.649E-01
RMM:   3    -0.413166826736E+03    0.28545E-02   -0.12356E-02  4800   0.448E-02    0.109E-01
RMM:   4    -0.413191172490E+03   -0.24346E-01   -0.25218E-02  5131   0.132E-01    0.652E-01
RMM:   5    -0.413166394614E+03    0.24778E-01   -0.12057E-02  4811   0.108E-01    0.448E-02
RMM:   6    -0.413166553748E+03   -0.15913E-03   -0.20999E-03  5803   0.434E-02    0.290E-02
RMM:   7    -0.413166559510E+03   -0.57617E-05   -0.33287E-04  5679   0.172E-02    0.185E-02
RMM:   8    -0.413166552934E+03    0.65757E-05   -0.58929E-05  4955   0.824E-03    0.916E-03
RMM:   9    -0.413166551615E+03    0.13194E-05   -0.11489E-05  3831   0.389E-03    0.704E-03
RMM:  10    -0.413166552471E+03   -0.85658E-06   -0.16389E-06  2548   0.212E-03
   12 T=    61. E= -.41286671E+03 F= -.41316655E+03 E0= -.41314422E+03  EK= 0.29984E+00 SP= 0.00E+00 SK= 0.00E+00
       N       E                     dE             d eps       ncg     rms          rms(c)
RMM:   1    -0.413163932665E+03    0.26189E-02   -0.97190E+00  4304   0.694E-01    0.909E-01
RMM:   2    -0.413169692531E+03   -0.57599E-02   -0.11723E-01  4299   0.913E-02    0.642E-01
RMM:   3    -0.413171056312E+03   -0.13638E-02   -0.15062E-02  5125   0.717E-02    0.285E-01
RMM:   4    -0.413196191819E+03   -0.25136E-01   -0.41263E-02  5105   0.172E-01    0.705E-01
RMM:   5    -0.413167027986E+03    0.29164E-01   -0.11948E-02  4721   0.116E-01    0.588E-02
RMM:   6    -0.413167092150E+03   -0.64164E-04   -0.22249E-03  5547   0.465E-02    0.311E-02
RMM:   7    -0.413167102896E+03   -0.10746E-04   -0.37217E-04  5995   0.170E-02    0.189E-02
RMM:   8    -0.413167096206E+03    0.66901E-05   -0.66248E-05  5170   0.901E-03    0.803E-03
RMM:   9    -0.413167090545E+03    0.56610E-05   -0.91349E-06  3449   0.370E-03    0.409E-03
RMM:  10    -0.413167088632E+03    0.19125E-05   -0.21063E-06  2573   0.220E-03    0.271E-03
RMM:  11    -0.413167085721E+03    0.29113E-05   -0.12730E-06  2514   0.180E-03    0.148E-03
RMM:  12    -0.413167082962E+03    0.27591E-05   -0.74073E-07  2468   0.141E-03    0.534E-04
RMM:  13    -0.413167081452E+03    0.15103E-05   -0.36433E-07  2079   0.998E-04    0.319E-04
RMM:  14    -0.413167080053E+03    0.13982E-05   -0.22138E-07  1639   0.802E-04    0.219E-04
RMM:  15    -0.413167077989E+03    0.20645E-05   -0.19728E-07  1515   0.748E-04    0.127E-04
RMM:  16    -0.413167075831E+03    0.21578E-05   -0.16775E-07  1407   0.705E-04    0.128E-04
RMM:  17    -0.413167073808E+03    0.20235E-05   -0.13290E-07  1309   0.659E-04    0.679E-05
RMM:  18    -0.413167072401E+03    0.14066E-05   -0.83575E-08  1073   0.594E-04    0.288E-05
RMM:  19    -0.413167071761E+03    0.63973E-06   -0.43669E-08   855   0.545E-04
   13 T=    61. E= -.41286667E+03 F= -.41316707E+03 E0= -.41314477E+03  EK= 0.30040E+00 SP= 0.00E+00 SK= 0.00E+00
       N       E                     dE             d eps       ncg     rms          rms(c)
RMM:   1    -0.413163869355E+03    0.32030E-02   -0.96564E+00  4291   0.696E-01    0.885E-01
RMM:   2    -0.413170682833E+03   -0.68135E-02   -0.11780E-01  4232   0.940E-02    0.640E-01
RMM:   3    -0.413168288594E+03    0.23942E-02   -0.12210E-02  4939   0.455E-02    0.133E-01
RMM:   4    -0.413202043024E+03   -0.33754E-01   -0.36070E-02  5130   0.158E-01    0.766E-01
RMM:   5    -0.413167560346E+03    0.34483E-01   -0.16699E-02  4796   0.127E-01    0.494E-02
RMM:   6    -0.413167756207E+03   -0.19586E-03   -0.27662E-03  5755   0.510E-02    0.323E-02
RMM:   7    -0.413167756767E+03   -0.55979E-06   -0.43179E-04  5713   0.188E-02    0.204E-02
RMM:   8    -0.413167750828E+03    0.59390E-05   -0.66932E-05  5133   0.871E-03    0.954E-03
RMM:   9    -0.413167747917E+03    0.29105E-05   -0.13623E-05  3987   0.417E-03    0.679E-03
RMM:  10    -0.413167747751E+03    0.16666E-06   -0.19063E-06  2560   0.213E-03
   14 T=    61. E= -.41286670E+03 F= -.41316775E+03 E0= -.41314548E+03  EK= 0.30104E+00 SP= 0.00E+00 SK= 0.00E+00
       N       E                     dE             d eps       ncg     rms          rms(c)
RMM:   1    -0.413164021521E+03    0.37264E-02   -0.97481E+00  4306   0.700E-01    0.891E-01
RMM:   2    -0.413171188366E+03   -0.71668E-02   -0.11949E-01  4317   0.939E-02    0.651E-01
RMM:   3    -0.413173100857E+03   -0.19125E-02   -0.16457E-02  5123   0.793E-02    0.320E-01
RMM:   4    -0.413195948347E+03   -0.22847E-01   -0.43220E-02  5091   0.176E-01    0.692E-01
RMM:   5    -0.413167708009E+03    0.28240E-01   -0.11046E-02  4696   0.113E-01    0.585E-02
RMM:   6    -0.413167753212E+03   -0.45203E-04   -0.20998E-03  5516   0.448E-02    0.291E-02
RMM:   7    -0.413167771831E+03   -0.18619E-04   -0.34794E-04  5979   0.168E-02    0.181E-02
RMM:   8    -0.413167771379E+03    0.45254E-06   -0.67100E-05  5164   0.907E-03    0.774E-03
RMM:   9    -0.413167769372E+03    0.20067E-05   -0.91077E-06  3436   0.376E-03    0.383E-03
RMM:  10    -0.413167770475E+03   -0.11028E-05   -0.19147E-06  2559   0.212E-03    0.250E-03
RMM:  11    -0.413167771965E+03   -0.14899E-05   -0.14437E-06  2534   0.185E-03    0.151E-03
RMM:  12    -0.413167772411E+03   -0.44674E-06   -0.71177E-07  2466   0.139E-03
   15 T=    61. E= -.41286634E+03 F= -.41316777E+03 E0= -.41314554E+03  EK= 0.30143E+00 SP= 0.00E+00 SK= 0.00E+00
       N       E                     dE             d eps       ncg     rms          rms(c)
RMM:   1    -0.413165511482E+03    0.22605E-02   -0.97563E+00  4299   0.702E-01    0.911E-01
RMM:   2    -0.413171954771E+03   -0.64433E-02   -0.11805E-01  4245   0.965E-02    0.645E-01
RMM:   3    -0.413169441999E+03    0.25128E-02   -0.12466E-02  4905   0.497E-02    0.141E-01
RMM:   4    -0.413204407383E+03   -0.34965E-01   -0.37360E-02  5128   0.160E-01    0.779E-01
RMM:   5    -0.413168645845E+03    0.35762E-01   -0.17191E-02  4793   0.130E-01    0.509E-02
RMM:   6    -0.413168863732E+03   -0.21789E-03   -0.29963E-03  5775   0.524E-02    0.338E-02
RMM:   7    -0.413168862669E+03    0.10633E-05   -0.45746E-04  5730   0.196E-02    0.216E-02
RMM:   8    -0.413168851586E+03    0.11083E-04   -0.71616E-05  5132   0.904E-03    0.104E-02
RMM:   9    -0.413168845446E+03    0.61397E-05   -0.14059E-05  4034   0.425E-03    0.747E-03
RMM:  10    -0.413168841715E+03    0.37316E-05   -0.20613E-06  2574   0.224E-03    0.468E-03
RMM:  11    -0.413168838583E+03    0.31318E-05   -0.13465E-06  2528   0.183E-03    0.253E-03
RMM:  12    -0.413168833304E+03    0.52794E-05   -0.17827E-06  2567   0.202E-03    0.993E-04
RMM:  13    -0.413168831278E+03    0.20262E-05   -0.56869E-07  2372   0.132E-03    0.740E-04
RMM:  14    -0.413168831351E+03   -0.73480E-07   -0.24789E-07  1928   0.870E-04
   16 T=    61. E= -.41286677E+03 F= -.41316883E+03 E0= -.41314663E+03  EK= 0.30206E+00 SP= 0.00E+00 SK= 0.00E+00
       N       E                     dE             d eps       ncg     rms          rms(c)
RMM:   1    -0.413165627662E+03    0.32036E-02   -0.96791E+00  4297   0.706E-01    0.891E-01
RMM:   2    -0.413172493695E+03   -0.68660E-02   -0.11780E-01  4252   0.966E-02    0.640E-01
RMM:   3    -0.413169613995E+03    0.28797E-02   -0.12033E-02  4809   0.481E-02    0.121E-01
RMM:   4    -0.413197008268E+03   -0.27394E-01   -0.28486E-02  5132   0.140E-01    0.691E-01
RMM:   5    -0.413169103550E+03    0.27905E-01   -0.13635E-02  4802   0.115E-01    0.468E-02
RMM:   6    -0.413169284010E+03   -0.18046E-03   -0.24030E-03  5801   0.461E-02    0.310E-02
RMM:   7    -0.413169283961E+03    0.49091E-07   -0.37022E-04  5663   0.181E-02    0.195E-02
RMM:   8    -0.413169273665E+03    0.10296E-04   -0.63580E-05  5002   0.855E-03    0.970E-03
RMM:   9    -0.413169269139E+03    0.45262E-05   -0.12598E-05  3942   0.404E-03    0.733E-03
RMM:  10    -0.413169266738E+03    0.24010E-05   -0.17609E-06  2554   0.215E-03    0.458E-03
RMM:  11    -0.413169264261E+03    0.24769E-05   -0.14498E-06  2526   0.192E-03    0.226E-03
RMM:  12    -0.413169260984E+03    0.32777E-05   -0.14437E-06  2530   0.185E-03    0.866E-04
RMM:  13    -0.413169259982E+03    0.10013E-05   -0.45564E-07  2288   0.119E-03    0.552E-04
RMM:  14    -0.413169259748E+03    0.23422E-06   -0.21508E-07  1797   0.816E-04
   17 T=    62. E= -.41286674E+03 F= -.41316926E+03 E0= -.41314710E+03  EK= 0.30252E+00 SP= 0.00E+00 SK= 0.00E+00
       N       E                     dE             d eps       ncg     rms          rms(c)
RMM:   1    -0.413166057914E+03    0.32021E-02   -0.97582E+00  4295   0.712E-01    0.889E-01
RMM:   2    -0.413173199170E+03   -0.71413E-02   -0.12007E-01  4265   0.951E-02    0.652E-01
RMM:   3    -0.413170179752E+03    0.30194E-02   -0.12730E-02  4854   0.485E-02    0.118E-01
RMM:   4    -0.413200371958E+03   -0.30192E-01   -0.31807E-02  5123   0.148E-01    0.725E-01
RMM:   5    -0.413169566802E+03    0.30805E-01   -0.15048E-02  4799   0.120E-01    0.475E-02
RMM:   6    -0.413169755840E+03   -0.18904E-03   -0.25075E-03  5786   0.481E-02    0.313E-02
RMM:   7    -0.413169758792E+03   -0.29524E-05   -0.40194E-04  5657   0.183E-02    0.197E-02
RMM:   8    -0.413169752871E+03    0.59210E-05   -0.61514E-05  5074   0.843E-03    0.921E-03
RMM:   9    -0.413169750676E+03    0.21953E-05   -0.12665E-05  3866   0.400E-03    0.677E-03
RMM:  10    -0.413169751009E+03   -0.33315E-06   -0.17584E-06  2555   0.209E-03
   18 T=    62. E= -.41286667E+03 F= -.41316975E+03 E0= -.41314763E+03  EK= 0.30308E+00 SP= 0.00E+00 SK= 0.00E+00
       N       E                     dE             d eps       ncg     rms          rms(c)
RMM:   1    -0.413167874392E+03    0.18763E-02   -0.97838E+00  4302   0.724E-01    0.910E-01
RMM:   2    -0.413173860159E+03   -0.59858E-02   -0.11892E-01  4314   0.923E-02    0.649E-01
RMM:   3    -0.413175196886E+03   -0.13367E-02   -0.15387E-02  5113   0.727E-02    0.290E-01
RMM:   4    -0.413200876083E+03   -0.25679E-01   -0.42883E-02  5089   0.175E-01    0.713E-01
RMM:   5    -0.413170930168E+03    0.29946E-01   -0.12223E-02  4705   0.117E-01    0.587E-02
RMM:   6    -0.413170995146E+03   -0.64978E-04   -0.22755E-03  5559   0.465E-02    0.310E-02
RMM:   7    -0.413171007527E+03   -0.12380E-04   -0.37617E-04  5975   0.171E-02    0.191E-02
RMM:   8    -0.413171000167E+03    0.73592E-05   -0.68132E-05  5181   0.907E-03    0.815E-03
RMM:   9    -0.413170993403E+03    0.67646E-05   -0.94160E-06  3494   0.376E-03    0.409E-03
RMM:  10    -0.413170990957E+03    0.24454E-05   -0.21262E-06  2576   0.220E-03    0.272E-03
RMM:  11    -0.413170987187E+03    0.37702E-05   -0.12177E-06  2505   0.178E-03    0.149E-03
RMM:  12    -0.413170983567E+03    0.36204E-05   -0.69937E-07  2459   0.139E-03    0.510E-04
RMM:  13    -0.413170981647E+03    0.19195E-05   -0.34440E-07  2070   0.988E-04    0.310E-04
RMM:  14    -0.413170980000E+03    0.16473E-05   -0.19928E-07  1595   0.786E-04    0.214E-04
RMM:  15    -0.413170977401E+03    0.25993E-05   -0.15941E-07  1376   0.722E-04    0.113E-04
RMM:  16    -0.413170974783E+03    0.26177E-05   -0.13378E-07  1354   0.689E-04    0.126E-04
RMM:  17    -0.413170972268E+03    0.25149E-05   -0.10801E-07  1265   0.648E-04    0.688E-05
RMM:  18    -0.413170970284E+03    0.19845E-05   -0.73021E-08  1045   0.597E-04    0.281E-05
RMM:  19    -0.413170969521E+03    0.76253E-06   -0.37609E-08   867   0.554E-04
   19 T=    62. E= -.41286700E+03 F= -.41317097E+03 E0= -.41314889E+03  EK= 0.30397E+00 SP= 0.00E+00 SK= 0.00E+00
       N       E                     dE             d eps       ncg     rms          rms(c)
RMM:   1    -0.413168591158E+03    0.23791E-02   -0.97350E+00  4297   0.725E-01    0.900E-01
RMM:   2    -0.413174048004E+03   -0.54568E-02   -0.11799E-01  4263   0.932E-02    0.642E-01
RMM:   3    -0.413171985632E+03    0.20624E-02   -0.12432E-02  4954   0.485E-02    0.143E-01
RMM:   4    -0.413208096113E+03   -0.36110E-01   -0.39086E-02  5129   0.164E-01    0.791E-01
RMM:   5    -0.413171140731E+03    0.36955E-01   -0.17945E-02  4791   0.132E-01    0.512E-02
RMM:   6    -0.413171348201E+03   -0.20747E-03   -0.29799E-03  5761   0.528E-02    0.340E-02
RMM:   7    -0.413171341904E+03    0.62967E-05   -0.45813E-04  5712   0.196E-02    0.214E-02
RMM:   8    -0.413171331138E+03    0.10766E-04   -0.72679E-05  5184   0.910E-03    0.101E-02
RMM:   9    -0.413171324859E+03    0.62792E-05   -0.14659E-05  4091   0.433E-03    0.705E-03
RMM:  10    -0.413171321290E+03    0.35691E-05   -0.20910E-06  2577   0.220E-03    0.446E-03
RMM:  11    -0.413171318467E+03    0.28233E-05   -0.11740E-06  2512   0.172E-03    0.246E-03
RMM:  12    -0.413171313656E+03    0.48106E-05   -0.16199E-06  2549   0.194E-03    0.980E-04
RMM:  13    -0.413171311452E+03    0.22044E-05   -0.55289E-07  2360   0.130E-03    0.772E-04
RMM:  14    -0.413171311666E+03   -0.21435E-06   -0.24262E-07  1909   0.860E-04
   20 T=    62. E= -.41286662E+03 F= -.41317131E+03 E0= -.41314928E+03  EK= 0.30470E+00 SP= 0.00E+00 SK= 0.00E+00
       N       E                     dE             d eps       ncg     rms          rms(c)
RMM:   1    -0.413168983483E+03    0.23280E-02   -0.97855E+00  4294   0.732E-01    0.889E-01
RMM:   2    -0.413175860748E+03   -0.68773E-02   -0.12113E-01  4263   0.950E-02    0.652E-01
RMM:   3    -0.413172817869E+03    0.30429E-02   -0.12683E-02  4875   0.463E-02    0.114E-01
RMM:   4    -0.413200909895E+03   -0.28092E-01   -0.29508E-02  5131   0.142E-01    0.699E-01
RMM:   5    -0.413172276785E+03    0.28633E-01   -0.14028E-02  4801   0.116E-01    0.464E-02
RMM:   6    -0.413172440282E+03   -0.16350E-03   -0.24019E-03  5816   0.462E-02    0.296E-02
RMM:   7    -0.413172445151E+03   -0.48693E-05   -0.34850E-04  5691   0.177E-02    0.184E-02
RMM:   8    -0.413172438942E+03    0.62085E-05   -0.68332E-05  5020   0.864E-03    0.986E-03
RMM:   9    -0.413172434940E+03    0.40020E-05   -0.13307E-05  4075   0.422E-03    0.729E-03
RMM:  10    -0.413172434226E+03    0.71478E-06   -0.17671E-06  2554   0.214E-03
   21 T=    62. E= -.41286673E+03 F= -.41317243E+03 E0= -.41315045E+03  EK= 0.30571E+00 SP= 0.00E+00 SK= 0.00E+00
       N       E                     dE             d eps       ncg     rms          rms(c)
RMM:   1    -0.413173174339E+03   -0.73940E-03   -0.98612E+00  4298   0.766E-01    0.908E-01
RMM:   2    -0.413176701391E+03   -0.35271E-02   -0.12478E-01  4327   0.996E-02    0.654E-01
RMM:   3    -0.413177943417E+03   -0.12420E-02   -0.15504E-02  5107   0.753E-02    0.299E-01
RMM:   4    -0.413204423808E+03   -0.26480E-01   -0.44605E-02  5093   0.178E-01    0.725E-01
RMM:   5    -0.413173414074E+03    0.31010E-01   -0.12688E-02  4708   0.119E-01    0.585E-02
RMM:   6    -0.413173485862E+03   -0.71788E-04   -0.23099E-03  5583   0.471E-02    0.309E-02
RMM:   7    -0.413173495736E+03   -0.98741E-05   -0.37445E-04  5963   0.175E-02    0.192E-02
RMM:   8    -0.413173490169E+03    0.55672E-05   -0.71241E-05  5167   0.938E-03    0.825E-03
RMM:   9    -0.413173483668E+03    0.65006E-05   -0.10648E-05  3609   0.398E-03    0.406E-03
RMM:  10    -0.413173481464E+03    0.22048E-05   -0.22285E-06  2593   0.221E-03    0.270E-03
RMM:  11    -0.413173477876E+03    0.35878E-05   -0.12125E-06  2501   0.178E-03    0.146E-03
RMM:  12    -0.413173474302E+03    0.35736E-05   -0.69924E-07  2460   0.139E-03    0.491E-04
RMM:  13    -0.413173472288E+03    0.20139E-05   -0.34092E-07  2041   0.976E-04    0.285E-04
RMM:  14    -0.413173470499E+03    0.17894E-05   -0.19791E-07  1563   0.777E-04    0.189E-04
RMM:  15    -0.413173467945E+03    0.25541E-05   -0.15180E-07  1363   0.716E-04    0.108E-04
RMM:  16    -0.413173465323E+03    0.26222E-05   -0.12314E-07  1304   0.683E-04    0.121E-04
RMM:  17    -0.413173462760E+03    0.25627E-05   -0.10108E-07  1265   0.647E-04    0.670E-05
RMM:  18    -0.413173460804E+03    0.19566E-05   -0.67522E-08  1067   0.593E-04    0.269E-05
RMM:  19    -0.413173459899E+03    0.90415E-06   -0.35815E-08   852   0.550E-04
   22 T=    62. E= -.41286678E+03 F= -.41317346E+03 E0= -.41315152E+03  EK= 0.30668E+00 SP= 0.00E+00 SK= 0.00E+00
       N       E                     dE             d eps       ncg     rms          rms(c)
RMM:   1    -0.413170834301E+03    0.26265E-02   -0.98034E+00  4291   0.731E-01    0.910E-01
RMM:   2    -0.413177322142E+03   -0.64878E-02   -0.11957E-01  4274   0.963E-02    0.646E-01
RMM:   3    -0.413174741586E+03    0.25806E-02   -0.12538E-02  4886   0.504E-02    0.139E-01
RMM:   4    -0.413209233062E+03   -0.34491E-01   -0.36786E-02  5130   0.159E-01    0.773E-01
RMM:   5    -0.413174007914E+03    0.35225E-01   -0.17222E-02  4793   0.129E-01    0.505E-02
RMM:   6    -0.413174203639E+03   -0.19573E-03   -0.28790E-03  5796   0.516E-02    0.339E-02
RMM:   7    -0.413174198319E+03    0.53202E-05   -0.43739E-04  5678   0.196E-02    0.211E-02
RMM:   8    -0.413174187249E+03    0.11069E-04   -0.74389E-05  5141   0.921E-03    0.105E-02
RMM:   9    -0.413174180013E+03    0.72367E-05   -0.14986E-05  4138   0.440E-03    0.740E-03
RMM:  10    -0.413174175302E+03    0.47103E-05   -0.20786E-06  2580   0.223E-03    0.465E-03
RMM:  11    -0.413174171361E+03    0.39416E-05   -0.12483E-06  2513   0.179E-03    0.254E-03
RMM:  12    -0.413174164861E+03    0.65001E-05   -0.17160E-06  2555   0.201E-03    0.103E-03
RMM:  13    -0.413174162121E+03    0.27395E-05   -0.54869E-07  2361   0.132E-03    0.765E-04
RMM:  14    -0.413174162340E+03   -0.21900E-06   -0.24579E-07  1917   0.869E-04
   23 T=    63. E= -.41286659E+03 F= -.41317416E+03 E0= -.41315227E+03  EK= 0.30757E+00 SP= 0.00E+00 SK= 0.00E+00
       N       E                     dE             d eps       ncg     rms          rms(c)
RMM:   1    -0.413177488081E+03   -0.33260E-02   -0.98649E+00  4297   0.777E-01    0.890E-01
RMM:   2    -0.413179486158E+03   -0.19981E-02   -0.13297E-01  4283   0.103E-01    0.653E-01
RMM:   3    -0.413175988813E+03    0.34973E-02   -0.11723E-02  4725   0.457E-02    0.119E-01
RMM:   4    -0.413197347025E+03   -0.21358E-01   -0.21978E-02  5138   0.123E-01    0.611E-01
RMM:   5    -0.413175681303E+03    0.21666E-01   -0.10804E-02  4807   0.101E-01    0.437E-02
RMM:   6    -0.413175797363E+03   -0.11606E-03   -0.18285E-03  5821   0.397E-02    0.267E-02
RMM:   7    -0.413175800429E+03   -0.30664E-05   -0.22582E-04  5635   0.147E-02    0.136E-02
RMM:   8    -0.413175797390E+03    0.30393E-05   -0.48391E-05  4961   0.715E-03    0.909E-03
RMM:   9    -0.413175793231E+03    0.41592E-05   -0.10551E-05  3828   0.373E-03    0.685E-03
RMM:  10    -0.413175791775E+03    0.14559E-05   -0.15304E-06  2537   0.211E-03    0.428E-03
RMM:  11    -0.413175789767E+03    0.20073E-05   -0.16244E-06  2540   0.201E-03    0.211E-03
RMM:  12    -0.413175787104E+03    0.26636E-05   -0.11807E-06  2488   0.172E-03    0.796E-04
RMM:  13    -0.413175786473E+03    0.63124E-06   -0.38984E-07  2186   0.109E-03
   24 T=    63. E= -.41286700E+03 F= -.41317579E+03 E0= -.41315394E+03  EK= 0.30879E+00 SP= 0.00E+00 SK= 0.00E+00
       N       E                     dE             d eps       ncg     rms          rms(c)
RMM:   1    -0.413176123391E+03   -0.33629E-03   -0.99159E+00  4297   0.775E-01    0.905E-01
RMM:   2    -0.413180367439E+03   -0.42440E-02   -0.12832E-01  4277   0.103E-01    0.659E-01
RMM:   3    -0.413176915794E+03    0.34516E-02   -0.12298E-02  4700   0.459E-02    0.111E-01
RMM:   4    -0.413195875579E+03   -0.18960E-01   -0.19431E-02  5140   0.116E-01    0.577E-01
RMM:   5    -0.413176646896E+03    0.19229E-01   -0.95439E-03  4813   0.950E-02    0.431E-02
RMM:   6    -0.413176747467E+03   -0.10057E-03   -0.16574E-03  5839   0.374E-02    0.259E-02
RMM:   7    -0.413176745148E+03    0.23194E-05   -0.19004E-04  5634   0.139E-02    0.127E-02
RMM:   8    -0.413176741281E+03    0.38666E-05   -0.39473E-05  4876   0.651E-03    0.873E-03
RMM:   9    -0.413176737291E+03    0.39900E-05   -0.86097E-06  3554   0.339E-03    0.663E-03
RMM:  10    -0.413176735232E+03    0.20589E-05   -0.14012E-06  2523   0.205E-03    0.411E-03
RMM:  11    -0.413176732063E+03    0.31694E-05   -0.16137E-06  2542   0.200E-03    0.203E-03
RMM:  12    -0.413176728286E+03    0.37768E-05   -0.10896E-06  2474   0.168E-03    0.879E-04
RMM:  13    -0.413176727453E+03    0.83250E-06   -0.36608E-07  2184   0.107E-03
   25 T=    63. E= -.41286683E+03 F= -.41317673E+03 E0= -.41315493E+03  EK= 0.30990E+00 SP= 0.00E+00 SK= 0.00E+00
       N       E                     dE             d eps       ncg     rms          rms(c)
RMM:   1    -0.413175071733E+03    0.16566E-02   -0.98940E+00  4295   0.750E-01    0.919E-01
RMM:   2    -0.413181093543E+03   -0.60218E-02   -0.12083E-01  4275   0.978E-02    0.651E-01
RMM:   3    -0.413178356956E+03    0.27366E-02   -0.12532E-02  4693   0.473E-02    0.117E-01
RMM:   4    -0.413199003833E+03   -0.20647E-01   -0.21186E-02  5138   0.121E-01    0.602E-01
RMM:   5    -0.413178030640E+03    0.20973E-01   -0.10474E-02  4808   0.994E-02    0.449E-02
RMM:   6    -0.413178130000E+03   -0.99360E-04   -0.18166E-03  5823   0.395E-02    0.276E-02
RMM:   7    -0.413178122074E+03    0.79267E-05   -0.22206E-04  5641   0.151E-02    0.143E-02
RMM:   8    -0.413178115113E+03    0.69608E-05   -0.48631E-05  4960   0.724E-03    0.951E-03
RMM:   9    -0.413178108619E+03    0.64939E-05   -0.97608E-06  3726   0.367E-03    0.715E-03
RMM:  10    -0.413178103641E+03    0.49784E-05   -0.15387E-06  2533   0.213E-03    0.436E-03
RMM:  11    -0.413178097177E+03    0.64633E-05   -0.16420E-06  2546   0.203E-03    0.215E-03
RMM:  12    -0.413178089748E+03    0.74294E-05   -0.10923E-06  2477   0.170E-03    0.764E-04
RMM:  13    -0.413178087796E+03    0.19513E-05   -0.39109E-07  2197   0.109E-03    0.537E-04
RMM:  14    -0.413178086903E+03    0.89364E-06   -0.18854E-07  1692   0.788E-04
   26 T=    63. E= -.41286682E+03 F= -.41317809E+03 E0= -.41315634E+03  EK= 0.31127E+00 SP= 0.00E+00 SK= 0.00E+00
       N       E                     dE             d eps       ncg     rms          rms(c)
RMM:   1    -0.413181188379E+03   -0.31006E-02   -0.99149E+00  4294   0.816E-01    0.896E-01
RMM:   2    -0.413183039203E+03   -0.18508E-02   -0.13163E-01  4285   0.105E-01    0.654E-01
RMM:   3    -0.413180169406E+03    0.28698E-02   -0.12067E-02  4769   0.474E-02    0.122E-01
RMM:   4    -0.413204111969E+03   -0.23943E-01   -0.24698E-02  5144   0.131E-01    0.646E-01
RMM:   5    -0.413179791163E+03    0.24321E-01   -0.12166E-02  4807   0.107E-01    0.455E-02
RMM:   6    -0.413179915780E+03   -0.12462E-03   -0.20340E-03  5814   0.429E-02    0.300E-02
RMM:   7    -0.413179911536E+03    0.42442E-05   -0.33022E-04  5646   0.174E-02    0.182E-02
RMM:   8    -0.413179901956E+03    0.95804E-05   -0.61028E-05  4985   0.841E-03    0.940E-03
RMM:   9    -0.413179896581E+03    0.53747E-05   -0.11348E-05  3832   0.397E-03    0.688E-03
RMM:  10    -0.413179893555E+03    0.30259E-05   -0.16349E-06  2544   0.212E-03    0.423E-03
RMM:  11    -0.413179890331E+03    0.32239E-05   -0.12554E-06  2510   0.183E-03    0.211E-03
RMM:  12    -0.413179886209E+03    0.41223E-05   -0.12507E-06  2501   0.175E-03    0.873E-04
RMM:  13    -0.413179884844E+03    0.13647E-05   -0.42021E-07  2252   0.115E-03    0.542E-04
RMM:  14    -0.413179884380E+03    0.46416E-06   -0.19962E-07  1742   0.798E-04
   27 T=    64. E= -.41286699E+03 F= -.41317988E+03 E0= -.41315819E+03  EK= 0.31290E+00 SP= 0.00E+00 SK= 0.00E+00
       N       E                     dE             d eps       ncg     rms          rms(c)
RMM:   1    -0.413178616712E+03    0.12681E-02   -0.99896E+00  4297   0.782E-01    0.907E-01
RMM:   2    -0.413184335717E+03   -0.57190E-02   -0.12498E-01  4281   0.103E-01    0.663E-01
RMM:   3    -0.413181341530E+03    0.29942E-02   -0.13165E-02  4787   0.502E-02    0.111E-01
RMM:   4    -0.413205696660E+03   -0.24355E-01   -0.25091E-02  5136   0.132E-01    0.652E-01
RMM:   5    -0.413180946982E+03    0.24750E-01   -0.12327E-02  4803   0.108E-01    0.455E-02
RMM:   6    -0.413181069971E+03   -0.12299E-03   -0.20846E-03  5824   0.433E-02    0.293E-02
RMM:   7    -0.413181068775E+03    0.11951E-05   -0.31812E-04  5654   0.172E-02    0.176E-02
RMM:   8    -0.413181061226E+03    0.75497E-05   -0.63476E-05  4981   0.842E-03    0.956E-03
RMM:   9    -0.413181056050E+03    0.51755E-05   -0.12239E-05  3987   0.410E-03    0.700E-03
RMM:  10    -0.413181053687E+03    0.23635E-05   -0.16740E-06  2553   0.213E-03    0.429E-03
RMM:  11    -0.413181051227E+03    0.24594E-05   -0.13003E-06  2513   0.184E-03    0.219E-03
RMM:  12    -0.413181047803E+03    0.34243E-05   -0.13041E-06  2507   0.178E-03    0.840E-04
RMM:  13    -0.413181046421E+03    0.13824E-05   -0.42778E-07  2248   0.115E-03    0.529E-04
RMM:  14    -0.413181046112E+03    0.30880E-06   -0.20433E-07  1740   0.802E-04
   28 T=    64. E= -.41286666E+03 F= -.41318105E+03 E0= -.41315940E+03  EK= 0.31439E+00 SP= 0.00E+00 SK= 0.00E+00
       N       E                     dE             d eps       ncg     rms          rms(c)
RMM:   1    -0.413179933963E+03    0.11125E-02   -0.10006E+01  4291   0.769E-01    0.927E-01
RMM:   2    -0.413186111873E+03   -0.61779E-02   -0.12311E-01  4272   0.103E-01    0.658E-01
RMM:   3    -0.413183157935E+03    0.29539E-02   -0.12971E-02  4583   0.513E-02    0.111E-01
RMM:   4    -0.413197825432E+03   -0.14667E-01   -0.14905E-02  5145   0.102E-01    0.509E-01
RMM:   5    -0.413183000967E+03    0.14824E-01   -0.75103E-03  4823   0.838E-02    0.428E-02
RMM:   6    -0.413183057045E+03   -0.56078E-04   -0.12883E-03  5827   0.336E-02    0.251E-02
RMM:   7    -0.413183053030E+03    0.40148E-05   -0.15970E-04  5481   0.133E-02    0.116E-02
RMM:   8    -0.413183045003E+03    0.80266E-05   -0.24890E-05  4464   0.529E-03    0.746E-03
RMM:   9    -0.413183042427E+03    0.25766E-05   -0.68060E-06  3329   0.306E-03    0.595E-03
RMM:  10    -0.413183037379E+03    0.50475E-05   -0.12909E-06  2519   0.202E-03    0.341E-03
RMM:  11    -0.413183030837E+03    0.65424E-05   -0.14646E-06  2529   0.193E-03    0.174E-03
RMM:  12    -0.413183024609E+03    0.62281E-05   -0.83894E-07  2441   0.152E-03    0.835E-04
RMM:  13    -0.413183022792E+03    0.18165E-05   -0.30383E-07  2125   0.977E-04    0.503E-04
RMM:  14    -0.413183021637E+03    0.11547E-05   -0.13853E-07  1479   0.711E-04    0.401E-04
RMM:  15    -0.413183016377E+03    0.52600E-05   -0.19453E-07  2078   0.813E-04    0.448E-04
RMM:  16    -0.413183014471E+03    0.19067E-05   -0.56487E-08  1052   0.582E-04    0.317E-04
RMM:  17    -0.413183011286E+03    0.31852E-05   -0.43050E-08   896   0.558E-04    0.214E-04
RMM:  18    -0.413183008816E+03    0.24694E-05   -0.42282E-08   934   0.570E-04    0.539E-05
RMM:  19    -0.413183006709E+03    0.21069E-05   -0.32866E-08   934   0.576E-04    0.955E-05
RMM:  20    -0.413183006506E+03    0.20275E-06   -0.11495E-08   697   0.533E-04
   29 T=    64. E= -.41286679E+03 F= -.41318301E+03 E0= -.41316141E+03  EK= 0.31622E+00 SP= 0.00E+00 SK= 0.00E+00
       N       E                     dE             d eps       ncg     rms          rms(c)
RMM:   1    -0.413182284410E+03    0.72230E-03   -0.99756E+00  4287   0.806E-01    0.907E-01
RMM:   2    -0.413188421396E+03   -0.61370E-02   -0.12428E-01  4266   0.111E-01    0.656E-01
RMM:   3    -0.413184946116E+03    0.34753E-02   -0.12851E-02  4530   0.515E-02    0.103E-01
RMM:   4    -0.413196297237E+03   -0.11351E-01   -0.11586E-02  5146   0.903E-02    0.448E-01
RMM:   5    -0.413184839433E+03    0.11458E-01   -0.58156E-03  4823   0.737E-02    0.409E-02
RMM:   6    -0.413184884980E+03   -0.45547E-04   -0.10282E-03  5830   0.299E-02    0.247E-02
RMM:   7    -0.413184889653E+03   -0.46725E-05   -0.22378E-04  5438   0.151E-02    0.164E-02
RMM:   8    -0.413184872914E+03    0.16739E-04   -0.30335E-05  4650   0.656E-03    0.745E-03
RMM:   9    -0.413184870947E+03    0.19673E-05   -0.57844E-06  3085   0.300E-03    0.546E-03
RMM:  10    -0.413184867514E+03    0.34332E-05   -0.15175E-06  2509   0.209E-03    0.298E-03
RMM:  11    -0.413184864178E+03    0.33351E-05   -0.93029E-07  2478   0.164E-03    0.153E-03
RMM:  12    -0.413184860678E+03    0.35001E-05   -0.61966E-07  2394   0.131E-03    0.792E-04
RMM:  13    -0.413184859134E+03    0.15447E-05   -0.27307E-07  1980   0.913E-04    0.343E-04
RMM:  14    -0.413184857579E+03    0.15551E-05   -0.14934E-07  1444   0.722E-04    0.215E-04
RMM:  15    -0.413184854981E+03    0.25975E-05   -0.10255E-07  1274   0.673E-04    0.959E-05
RMM:  16    -0.413184853091E+03    0.18900E-05   -0.65492E-08  1058   0.627E-04    0.808E-05
RMM:  17    -0.413184851521E+03    0.15704E-05   -0.40987E-08   882   0.591E-04    0.522E-05
RMM:  18    -0.413184848591E+03    0.29298E-05   -0.59054E-08  1110   0.619E-04    0.344E-05
RMM:  19    -0.413184847970E+03    0.62090E-06   -0.21162E-08   749   0.550E-04
   30 T=    65. E= -.41286679E+03 F= -.41318485E+03 E0= -.41316330E+03  EK= 0.31805E+00 SP= 0.00E+00 SK= 0.00E+00
       N       E                     dE             d eps       ncg     rms          rms(c)
RMM:   1    -0.413189146093E+03   -0.42975E-02   -0.10147E+01  4291   0.833E-01    0.909E-01
RMM:   2    -0.413190751637E+03   -0.16055E-02   -0.13176E-01  4280   0.119E-01    0.669E-01
RMM:   3    -0.413186520378E+03    0.42313E-02   -0.13268E-02  4422   0.572E-02    0.952E-02
RMM:   4    -0.413193212985E+03   -0.66926E-02   -0.69965E-03  5161   0.704E-02    0.345E-01
RMM:   5    -0.413186496496E+03    0.67165E-02   -0.34332E-03  4825   0.567E-02    0.390E-02
RMM:   6    -0.413186529889E+03   -0.33393E-04   -0.70954E-04  5772   0.251E-02    0.256E-02
RMM:   7    -0.413186526363E+03    0.35263E-05   -0.23215E-04  5293   0.153E-02    0.164E-02
RMM:   8    -0.413186513853E+03    0.12510E-04   -0.20936E-05  4408   0.587E-03    0.703E-03
RMM:   9    -0.413186512749E+03    0.11044E-05   -0.32716E-06  2741   0.242E-03    0.461E-03
RMM:  10    -0.413186511072E+03    0.16762E-05   -0.14175E-06  2507   0.190E-03    0.247E-03
RMM:  11    -0.413186509391E+03    0.16810E-05   -0.87143E-07  2454   0.153E-03    0.117E-03
RMM:  12    -0.413186507794E+03    0.15977E-05   -0.44672E-07  2222   0.112E-03    0.565E-04
RMM:  13    -0.413186506710E+03    0.10835E-05   -0.22817E-07  1748   0.826E-04    0.282E-04
RMM:  14    -0.413186505354E+03    0.13562E-05   -0.12815E-07  1279   0.694E-04    0.174E-04
RMM:  15    -0.413186503272E+03    0.20824E-05   -0.97220E-08  1158   0.660E-04    0.903E-05
RMM:  16    -0.413186502079E+03    0.11931E-05   -0.54782E-08   944   0.608E-04    0.668E-05
RMM:  17    -0.413186500390E+03    0.16885E-05   -0.49040E-08   956   0.597E-04    0.389E-05
RMM:  18    -0.413186498583E+03    0.18072E-05   -0.43770E-08   964   0.586E-04    0.255E-05
RMM:  19    -0.413186498046E+03    0.53663E-06   -0.15543E-08   696   0.538E-04
   31 T=    65. E= -.41286665E+03 F= -.41318650E+03 E0= -.41316500E+03  EK= 0.31985E+00 SP= 0.00E+00 SK= 0.00E+00
       N       E                     dE             d eps       ncg     rms          rms(c)
RMM:   1    -0.413186385518E+03    0.11306E-03   -0.10132E+01  4288   0.811E-01    0.933E-01
RMM:   2    -0.413192812322E+03   -0.64268E-02   -0.12684E-01  4277   0.125E-01    0.666E-01
RMM:   3    -0.413189083277E+03    0.37290E-02   -0.13310E-02  4292   0.558E-02    0.101E-01
RMM:   4    -0.413189814270E+03   -0.73099E-03   -0.13464E-03  5071   0.297E-02    0.114E-01
RMM:   5    -0.413189154796E+03    0.65947E-03   -0.40405E-04  4812   0.201E-02    0.402E-02
RMM:   6    -0.413189171924E+03   -0.17128E-04   -0.35970E-04  5370   0.189E-02    0.293E-02
RMM:   7    -0.413189133825E+03    0.38099E-04   -0.19002E-04  4858   0.146E-02    0.160E-02
RMM:   8    -0.413189128958E+03    0.48678E-05   -0.22179E-05  4462   0.525E-03    0.606E-03
RMM:   9    -0.413189127472E+03    0.14860E-05   -0.32417E-06  2519   0.216E-03    0.262E-03
RMM:  10    -0.413189120226E+03    0.72457E-05   -0.10290E-06  2418   0.165E-03    0.110E-03
RMM:  11    -0.413189115437E+03    0.47889E-05   -0.37655E-07  2142   0.999E-04    0.467E-04
RMM:  12    -0.413189112290E+03    0.31468E-05   -0.19191E-07  1653   0.776E-04    0.282E-04
RMM:  13    -0.413189108964E+03    0.33259E-05   -0.12207E-07  1288   0.690E-04    0.165E-04
RMM:  14    -0.413189104983E+03    0.39814E-05   -0.83319E-08  1074   0.644E-04    0.843E-05
RMM:  15    -0.413189101048E+03    0.39352E-05   -0.67568E-08  1082   0.624E-04    0.886E-05
RMM:  16    -0.413189097364E+03    0.36834E-05   -0.51846E-08   949   0.594E-04    0.593E-05
RMM:  17    -0.413189096008E+03    0.13559E-05   -0.26834E-08   761   0.549E-04    0.399E-05
RMM:  18    -0.413189095316E+03    0.69191E-06   -0.16883E-08   663   0.532E-04
   32 T=    66. E= -.41286711E+03 F= -.41318910E+03 E0= -.41316765E+03  EK= 0.32199E+00 SP= 0.00E+00 SK= 0.00E+00
       N       E                     dE             d eps       ncg     rms          rms(c)
RMM:   1    -0.413188130723E+03    0.96529E-03   -0.10099E+01  4286   0.821E-01    0.920E-01
RMM:   2    -0.413194509355E+03   -0.63786E-02   -0.12768E-01  4274   0.123E-01    0.662E-01
RMM:   3    -0.413191077551E+03    0.34318E-02   -0.13131E-02  4247   0.576E-02    0.992E-02
RMM:   4    -0.413191180786E+03   -0.10324E-03   -0.76165E-04  4833   0.175E-02    0.431E-02
RMM:   5    -0.413191277233E+03   -0.96447E-04   -0.19978E-04  5003   0.132E-02    0.596E-02
RMM:   6    -0.413191168734E+03    0.10850E-03   -0.31930E-04  5214   0.174E-02    0.286E-02
RMM:   7    -0.413191123960E+03    0.44774E-04   -0.17799E-04  4918   0.137E-02    0.126E-02
RMM:   8    -0.413191121099E+03    0.28608E-05   -0.19311E-05  4312   0.492E-03    0.492E-03
RMM:   9    -0.413191119745E+03    0.13540E-05   -0.28998E-06  2465   0.206E-03    0.180E-03
RMM:  10    -0.413191112910E+03    0.68352E-05   -0.80312E-07  2350   0.139E-03    0.834E-04
RMM:  11    -0.413191108928E+03    0.39824E-05   -0.23641E-07  1645   0.807E-04    0.472E-04
RMM:  12    -0.413191105539E+03    0.33883E-05   -0.12777E-07  1205   0.680E-04    0.268E-04
RMM:  13    -0.413191102139E+03    0.34006E-05   -0.10853E-07  1210   0.665E-04    0.163E-04
RMM:  14    -0.413191096881E+03    0.52580E-05   -0.11648E-07  1316   0.674E-04    0.171E-04
RMM:  15    -0.413191095885E+03    0.99538E-06   -0.32302E-08   636   0.552E-04
   33 T=    66. E= -.41286699E+03 F= -.41319110E+03 E0= -.41316969E+03  EK= 0.32411E+00 SP= 0.00E+00 SK= 0.00E+00
       N       E                     dE             d eps       ncg     rms          rms(c)
RMM:   1    -0.413196638166E+03   -0.55413E-02   -0.10267E+01  4298   0.881E-01    0.914E-01
RMM:   2    -0.413197035131E+03   -0.39696E-03   -0.13652E-01  4276   0.133E-01    0.674E-01
RMM:   3    -0.413193537139E+03    0.34980E-02   -0.13466E-02  4295   0.637E-02    0.947E-02
RMM:   4    -0.413194667297E+03   -0.11302E-02   -0.17255E-03  5134   0.341E-02    0.142E-01
RMM:   5    -0.413193595535E+03    0.10718E-02   -0.57956E-04  4800   0.241E-02    0.385E-02
RMM:   6    -0.413193613713E+03   -0.18178E-04   -0.36284E-04  5466   0.186E-02    0.277E-02
RMM:   7    -0.413193584345E+03    0.29368E-04   -0.19573E-04  4928   0.138E-02    0.171E-02
RMM:   8    -0.413193578679E+03    0.56659E-05   -0.21684E-05  4077   0.486E-03    0.537E-03
RMM:   9    -0.413193577975E+03    0.70408E-06   -0.23923E-06  2503   0.211E-03
   34 T=    66. E= -.41286699E+03 F= -.41319358E+03 E0= -.41317223E+03  EK= 0.32659E+00 SP= 0.00E+00 SK= 0.00E+00
       N       E                     dE             d eps       ncg     rms          rms(c)
RMM:   1    -0.413197752330E+03   -0.41737E-02   -0.10325E+01  4303   0.915E-01    0.937E-01
RMM:   2    -0.413199659821E+03   -0.19075E-02   -0.13575E-01  4281   0.133E-01    0.676E-01
RMM:   3    -0.413196319675E+03    0.33401E-02   -0.13427E-02  4409   0.634E-02    0.108E-01
RMM:   4    -0.413201483528E+03   -0.51639E-02   -0.56201E-03  5183   0.641E-02    0.304E-01
RMM:   5    -0.413196356455E+03    0.51271E-02   -0.26515E-03  4824   0.508E-02    0.415E-02
RMM:   6    -0.413196353604E+03    0.28504E-05   -0.62349E-04  5664   0.254E-02    0.311E-02
RMM:   7    -0.413196333107E+03    0.20498E-04   -0.25558E-04  5165   0.155E-02    0.164E-02
RMM:   8    -0.413196323795E+03    0.93117E-05   -0.22463E-05  4365   0.545E-03    0.661E-03
RMM:   9    -0.413196321283E+03    0.25113E-05   -0.33041E-06  2670   0.229E-03    0.367E-03
RMM:  10    -0.413196314906E+03    0.63778E-05   -0.11156E-06  2482   0.175E-03    0.192E-03
RMM:  11    -0.413196309318E+03    0.55878E-05   -0.60032E-07  2361   0.125E-03    0.102E-03
RMM:  12    -0.413196303344E+03    0.59738E-05   -0.39005E-07  2126   0.103E-03    0.361E-04
RMM:  13    -0.413196300043E+03    0.33007E-05   -0.19071E-07  1542   0.771E-04    0.231E-04
RMM:  14    -0.413196295461E+03    0.45818E-05   -0.11716E-07  1154   0.684E-04    0.188E-04
RMM:  15    -0.413196289043E+03    0.64190E-05   -0.11643E-07  1344   0.688E-04    0.942E-05
RMM:  16    -0.413196286748E+03    0.22947E-05   -0.57788E-08   987   0.593E-04    0.692E-05
RMM:  17    -0.413196282146E+03    0.46018E-05   -0.63717E-08  1158   0.614E-04    0.312E-05
RMM:  18    -0.413196280943E+03    0.12028E-05   -0.27150E-08   765   0.534E-04    0.215E-05
RMM:  19    -0.413196280522E+03    0.42091E-06   -0.15841E-08   649   0.517E-04
   35 T=    67. E= -.41286707E+03 F= -.41319628E+03 E0= -.41317497E+03  EK= 0.32921E+00 SP= 0.00E+00 SK= 0.00E+00
       N       E                     dE             d eps       ncg     rms          rms(c)
RMM:   1    -0.413195931997E+03    0.34895E-03   -0.10282E+01  4301   0.881E-01    0.937E-01
RMM:   2    -0.413201587422E+03   -0.56554E-02   -0.13241E-01  4258   0.133E-01    0.670E-01
RMM:   3    -0.413198426855E+03    0.31606E-02   -0.13529E-02  4415   0.642E-02    0.110E-01
RMM:   4    -0.413204126574E+03   -0.56997E-02   -0.60939E-03  5173   0.657E-02    0.320E-01
RMM:   5    -0.413198448965E+03    0.56776E-02   -0.29629E-03  4825   0.533E-02    0.412E-02
RMM:   6    -0.413198456322E+03   -0.73570E-05   -0.68619E-04  5679   0.262E-02    0.299E-02
RMM:   7    -0.413198435183E+03    0.21140E-04   -0.26327E-04  5201   0.163E-02    0.167E-02
RMM:   8    -0.413198423928E+03    0.11255E-04   -0.23106E-05  4512   0.583E-03    0.704E-03
RMM:   9    -0.413198421317E+03    0.26106E-05   -0.34870E-06  2717   0.240E-03    0.412E-03
RMM:  10    -0.413198415628E+03    0.56900E-05   -0.11975E-06  2489   0.182E-03    0.214E-03
RMM:  11    -0.413198410310E+03    0.53179E-05   -0.69336E-07  2415   0.135E-03    0.107E-03
RMM:  12    -0.413198405142E+03    0.51672E-05   -0.39418E-07  2156   0.105E-03    0.479E-04
RMM:  13    -0.413198401815E+03    0.33275E-05   -0.21311E-07  1719   0.808E-04    0.245E-04
RMM:  14    -0.413198398219E+03    0.35959E-05   -0.10744E-07  1201   0.674E-04    0.166E-04
RMM:  15    -0.413198393289E+03    0.49303E-05   -0.80481E-08  1096   0.645E-04    0.813E-05
RMM:  16    -0.413198390656E+03    0.26325E-05   -0.53797E-08  1010   0.608E-04    0.615E-05
RMM:  17    -0.413198387522E+03    0.31337E-05   -0.48903E-08  1092   0.603E-04    0.415E-05
RMM:  18    -0.413198384616E+03    0.29065E-05   -0.39783E-08  1027   0.578E-04    0.266E-05
RMM:  19    -0.413198384150E+03    0.46618E-06   -0.13508E-08   670   0.518E-04
   36 T=    68. E= -.41286676E+03 F= -.41319838E+03 E0= -.41317712E+03  EK= 0.33162E+00 SP= 0.00E+00 SK= 0.00E+00
       N       E                     dE             d eps       ncg     rms          rms(c)
RMM:   1    -0.413207759975E+03   -0.93754E-02   -0.10440E+01  4303   0.978E-01    0.921E-01
RMM:   2    -0.413205427366E+03    0.23326E-02   -0.15171E-01  4247   0.140E-01    0.681E-01
RMM:   3    -0.413201456998E+03    0.39704E-02   -0.12712E-02  4569   0.594E-02    0.131E-01
RMM:   4    -0.413219211548E+03   -0.17755E-01   -0.18055E-02  5152   0.113E-01    0.559E-01
RMM:   5    -0.413201348059E+03    0.17863E-01   -0.90794E-03  4812   0.928E-02    0.448E-02
RMM:   6    -0.413201357368E+03   -0.93097E-05   -0.15367E-03  5826   0.378E-02    0.287E-02
RMM:   7    -0.413201370189E+03   -0.12821E-04   -0.30174E-04  5504   0.170E-02    0.180E-02
RMM:   8    -0.413201354218E+03    0.15971E-04   -0.50208E-05  4943   0.795E-03    0.847E-03
RMM:   9    -0.413201353200E+03    0.10174E-05   -0.10057E-05  3678   0.386E-03    0.600E-03
RMM:  10    -0.413201350289E+03    0.29111E-05   -0.15678E-06  2538   0.218E-03    0.336E-03
RMM:  11    -0.413201347689E+03    0.26004E-05   -0.98096E-07  2499   0.161E-03    0.184E-03
RMM:  12    -0.413201343472E+03    0.42168E-05   -0.10565E-06  2489   0.161E-03    0.953E-04
RMM:  13    -0.413201341526E+03    0.19463E-05   -0.38353E-07  2174   0.107E-03    0.490E-04
RMM:  14    -0.413201340737E+03    0.78902E-06   -0.17675E-07  1561   0.760E-04
   37 T=    68. E= -.41286704E+03 F= -.41320134E+03 E0= -.41318012E+03  EK= 0.33430E+00 SP= 0.00E+00 SK= 0.00E+00
       N       E                     dE             d eps       ncg     rms          rms(c)
RMM:   1    -0.413221347053E+03   -0.20006E-01   -0.10651E+01  4307   0.108E+00    0.939E-01
RMM:   2    -0.413208056982E+03    0.13290E-01   -0.16439E-01  4248   0.139E-01    0.688E-01
RMM:   3    -0.413204142464E+03    0.39145E-02   -0.12394E-02  4781   0.570E-02    0.165E-01
RMM:   4    -0.413240376285E+03   -0.36234E-01   -0.37278E-02  5154   0.161E-01    0.791E-01
RMM:   5    -0.413203704144E+03    0.36672E-01   -0.18473E-02  4791   0.133E-01    0.524E-02
RMM:   6    -0.413203783165E+03   -0.79021E-04   -0.31242E-03  5842   0.523E-02    0.333E-02
RMM:   7    -0.413203792748E+03   -0.95829E-05   -0.37541E-04  5661   0.181E-02    0.169E-02
RMM:   8    -0.413203784931E+03    0.78168E-05   -0.48016E-05  4795   0.717E-03    0.904E-03
RMM:   9    -0.413203784224E+03    0.70752E-06   -0.18228E-05  4319   0.442E-03    0.755E-03
RMM:  10    -0.413203778641E+03    0.55831E-05   -0.34958E-06  2794   0.267E-03    0.444E-03
RMM:  11    -0.413203774998E+03    0.36425E-05   -0.16500E-06  2528   0.204E-03    0.266E-03
RMM:  12    -0.413203766876E+03    0.81225E-05   -0.20326E-06  2548   0.229E-03    0.124E-03
RMM:  13    -0.413203764120E+03    0.27553E-05   -0.58514E-07  2407   0.142E-03    0.779E-04
RMM:  14    -0.413203764099E+03    0.21035E-07   -0.24713E-07  1995   0.891E-04
   38 T=    69. E= -.41286693E+03 F= -.41320376E+03 E0= -.41318259E+03  EK= 0.33683E+00 SP= 0.00E+00 SK= 0.00E+00
       N       E                     dE             d eps       ncg     rms          rms(c)
RMM:   1    -0.413206477335E+03   -0.27132E-02   -0.10495E+01  4307   0.993E-01    0.954E-01
RMM:   2    -0.413210313962E+03   -0.38366E-02   -0.13784E-01  4253   0.125E-01    0.679E-01
RMM:   3    -0.413207024242E+03    0.32897E-02   -0.14088E-02  4943   0.579E-02    0.162E-01
RMM:   4    -0.413249331197E+03   -0.42307E-01   -0.45271E-02  5131   0.177E-01    0.855E-01
RMM:   5    -0.413206235686E+03    0.43096E-01   -0.21229E-02  4790   0.143E-01    0.562E-02
RMM:   6    -0.413206341259E+03   -0.10557E-03   -0.36595E-03  5824   0.564E-02    0.349E-02
RMM:   7    -0.413206353247E+03   -0.11988E-04   -0.43299E-04  5687   0.191E-02    0.181E-02
RMM:   8    -0.413206343890E+03    0.93568E-05   -0.51109E-05  4772   0.720E-03    0.912E-03
RMM:   9    -0.413206337665E+03    0.62245E-05   -0.10978E-05  3399   0.357E-03    0.579E-03
RMM:  10    -0.413206333396E+03    0.42699E-05   -0.22019E-06  2589   0.221E-03    0.400E-03
RMM:  11    -0.413206326722E+03    0.66735E-05   -0.15260E-06  2504   0.206E-03    0.223E-03
RMM:  12    -0.413206316016E+03    0.10706E-04   -0.14577E-06  2511   0.200E-03    0.106E-03
RMM:  13    -0.413206313595E+03    0.24213E-05   -0.47475E-07  2361   0.127E-03    0.707E-04
RMM:  14    -0.413206313124E+03    0.47082E-06   -0.21508E-07  1881   0.836E-04
   39 T=    69. E= -.41286691E+03 F= -.41320631E+03 E0= -.41318517E+03  EK= 0.33941E+00 SP= 0.00E+00 SK= 0.00E+00
       N       E                     dE             d eps       ncg     rms          rms(c)
RMM:   1    -0.413230660244E+03   -0.24347E-01   -0.10721E+01  4309   0.117E+00    0.931E-01
RMM:   2    -0.413213818291E+03    0.16842E-01   -0.16870E-01  4260   0.137E-01    0.687E-01
RMM:   3    -0.413210403865E+03    0.34144E-02   -0.12553E-02  4994   0.597E-02    0.204E-01
RMM:   4    -0.413264074790E+03   -0.53671E-01   -0.58807E-02  5133   0.202E-01    0.959E-01
RMM:   5    -0.413209179881E+03    0.54895E-01   -0.27064E-02  4787   0.162E-01    0.605E-02
RMM:   6    -0.413209328929E+03   -0.14905E-03   -0.44017E-03  5816   0.628E-02    0.363E-02
RMM:   7    -0.413209345426E+03   -0.16498E-04   -0.54647E-04  5796   0.210E-02    0.214E-02
RMM:   8    -0.413209347523E+03   -0.20966E-05   -0.12268E-04  5247   0.109E-02    0.138E-02
RMM:   9    -0.413209334566E+03    0.12957E-04   -0.28585E-05  4738   0.613E-03    0.708E-03
RMM:  10    -0.413209330353E+03    0.42131E-05   -0.50609E-06  2923   0.301E-03    0.443E-03
RMM:  11    -0.413209326937E+03    0.34156E-05   -0.15664E-06  2507   0.207E-03    0.265E-03
RMM:  12    -0.413209319872E+03    0.70650E-05   -0.15015E-06  2512   0.204E-03    0.971E-04
RMM:  13    -0.413209315710E+03    0.41620E-05   -0.67013E-07  2422   0.142E-03    0.696E-04
RMM:  14    -0.413209315148E+03    0.56175E-06   -0.29234E-07  2075   0.951E-04
   40 T=    70. E= -.41286720E+03 F= -.41320932E+03 E0= -.41318821E+03  EK= 0.34212E+00 SP= 0.00E+00 SK= 0.00E+00
       N       E                     dE             d eps       ncg     rms          rms(c)
RMM:   1    -0.413223254480E+03   -0.13939E-01   -0.10753E+01  4310   0.114E+00    0.946E-01
RMM:   2    -0.413216092166E+03    0.71623E-02   -0.15606E-01  4261   0.139E-01    0.696E-01
RMM:   3    -0.413213115381E+03    0.29768E-02   -0.14501E-02  5020   0.658E-02    0.211E-01
RMM:   4    -0.413265697895E+03   -0.52583E-01   -0.60453E-02  5122   0.205E-01    0.954E-01
RMM:   5    -0.413211343441E+03    0.54354E-01   -0.26101E-02  4780   0.160E-01    0.608E-02
RMM:   6    -0.413211488155E+03   -0.14471E-03   -0.43612E-03  5819   0.621E-02    0.360E-02
RMM:   7    -0.413211504317E+03   -0.16162E-04   -0.53530E-04  5792   0.208E-02    0.214E-02
RMM:   8    -0.413211506443E+03   -0.21253E-05   -0.12190E-04  5247   0.108E-02    0.139E-02
RMM:   9    -0.413211493253E+03    0.13190E-04   -0.27308E-05  4708   0.602E-03    0.701E-03
RMM:  10    -0.413211489386E+03    0.38667E-05   -0.50566E-06  2936   0.302E-03    0.436E-03
RMM:  11    -0.413211486186E+03    0.31998E-05   -0.15466E-06  2505   0.207E-03    0.258E-03
RMM:  12    -0.413211479712E+03    0.64742E-05   -0.14087E-06  2509   0.197E-03    0.937E-04
RMM:  13    -0.413211475829E+03    0.38832E-05   -0.62702E-07  2416   0.137E-03    0.631E-04
RMM:  14    -0.413211475101E+03    0.72802E-06   -0.28016E-07  2036   0.928E-04
   41 T=    70. E= -.41286690E+03 F= -.41321148E+03 E0= -.41319041E+03  EK= 0.34458E+00 SP= 0.00E+00 SK= 0.00E+00
       N       E                     dE             d eps       ncg     rms          rms(c)
RMM:   1    -0.413218405933E+03   -0.69301E-02   -0.10702E+01  4311   0.115E+00    0.967E-01
RMM:   2    -0.413218277647E+03    0.12829E-03   -0.14643E-01  4288   0.133E-01    0.690E-01
RMM:   3    -0.413216926527E+03    0.13511E-02   -0.15968E-02  5069   0.727E-02    0.255E-01
RMM:   4    -0.413259754395E+03   -0.42828E-01   -0.55759E-02  5101   0.198E-01    0.878E-01
RMM:   5    -0.413214065609E+03    0.45689E-01   -0.20864E-02  4759   0.146E-01    0.610E-02
RMM:   6    -0.413214173484E+03   -0.10788E-03   -0.36235E-03  5781   0.569E-02    0.362E-02
RMM:   7    -0.413214185161E+03   -0.11677E-04   -0.48784E-04  5744   0.203E-02    0.219E-02
RMM:   8    -0.413214183616E+03    0.15451E-05   -0.13093E-04  5233   0.115E-02    0.137E-02
RMM:   9    -0.413214167587E+03    0.16029E-04   -0.23530E-05  4558   0.593E-03    0.606E-03
RMM:  10    -0.413214161621E+03    0.59665E-05   -0.51728E-06  2979   0.291E-03    0.388E-03
RMM:  11    -0.413214156276E+03    0.53450E-05   -0.12730E-06  2496   0.195E-03    0.218E-03
RMM:  12    -0.413214146830E+03    0.94455E-05   -0.97829E-07  2473   0.170E-03    0.804E-04
RMM:  13    -0.413214141238E+03    0.55920E-05   -0.45736E-07  2340   0.119E-03    0.457E-04
RMM:  14    -0.413214139749E+03    0.14889E-05   -0.22900E-07  1887   0.846E-04    0.306E-04
RMM:  15    -0.413214135904E+03    0.38456E-05   -0.12778E-07  1403   0.701E-04    0.146E-04
RMM:  16    -0.413214130305E+03    0.55992E-05   -0.94595E-08  1263   0.671E-04    0.153E-04
RMM:  17    -0.413214127327E+03    0.29775E-05   -0.58766E-08  1073   0.619E-04    0.970E-05
RMM:  18    -0.413214123324E+03    0.40032E-05   -0.58454E-08  1257   0.629E-04    0.762E-05
RMM:  19    -0.413214120520E+03    0.28036E-05   -0.40164E-08  1095   0.588E-04    0.484E-05
RMM:  20    -0.413214119841E+03    0.67895E-06   -0.21107E-08   830   0.536E-04
   42 T=    71. E= -.41286705E+03 F= -.41321412E+03 E0= -.41319308E+03  EK= 0.34707E+00 SP= 0.00E+00 SK= 0.00E+00
       N       E                     dE             d eps       ncg     rms          rms(c)
RMM:   1    -0.413248093405E+03   -0.33973E-01   -0.10942E+01  4311   0.136E+00    0.945E-01
RMM:   2    -0.413220553932E+03    0.27539E-01   -0.17190E-01  4301   0.147E-01    0.692E-01
RMM:   3    -0.413220225793E+03    0.32814E-03   -0.15345E-02  5081   0.785E-02    0.311E-01
RMM:   4    -0.413260627272E+03   -0.40401E-01   -0.57959E-02  5098   0.203E-01    0.868E-01
RMM:   5    -0.413216166674E+03    0.44461E-01   -0.19823E-02  4742   0.145E-01    0.630E-02
RMM:   6    -0.413216252654E+03   -0.85980E-04   -0.34951E-03  5753   0.560E-02    0.361E-02
RMM:   7    -0.413216259552E+03   -0.68983E-05   -0.50828E-04  5780   0.203E-02    0.238E-02
RMM:   8    -0.413216257249E+03    0.23027E-05   -0.13231E-04  5204   0.118E-02    0.128E-02
RMM:   9    -0.413216244576E+03    0.12673E-04   -0.21985E-05  4512   0.585E-03    0.515E-03
RMM:  10    -0.413216241240E+03    0.33360E-05   -0.48345E-06  2908   0.275E-03    0.335E-03
RMM:  11    -0.413216237479E+03    0.37613E-05   -0.13169E-06  2500   0.190E-03    0.182E-03
RMM:  12    -0.413216231940E+03    0.55390E-05   -0.81418E-07  2461   0.153E-03    0.654E-04
RMM:  13    -0.413216228660E+03    0.32797E-05   -0.39765E-07  2176   0.107E-03    0.325E-04
RMM:  14    -0.413216226925E+03    0.17349E-05   -0.21173E-07  1719   0.815E-04    0.219E-04
RMM:  15    -0.413216223393E+03    0.35329E-05   -0.13644E-07  1344   0.714E-04    0.110E-04
RMM:  16    -0.413216220847E+03    0.25455E-05   -0.86316E-08  1126   0.658E-04    0.844E-05
RMM:  17    -0.413216218533E+03    0.23138E-05   -0.67566E-08  1137   0.639E-04    0.571E-05
RMM:  18    -0.413216216008E+03    0.25255E-05   -0.54922E-08  1127   0.622E-04    0.365E-05
RMM:  19    -0.413216214227E+03    0.17805E-05   -0.37568E-08  1001   0.585E-04    0.249E-05
RMM:  20    -0.413216213554E+03    0.67302E-06   -0.21402E-08   825   0.551E-04
   43 T=    71. E= -.41286705E+03 F= -.41321621E+03 E0= -.41319521E+03  EK= 0.34917E+00 SP= 0.00E+00 SK= 0.00E+00
       N       E                     dE             d eps       ncg     rms          rms(c)
RMM:   1    -0.413227667205E+03   -0.11453E-01   -0.10836E+01  4312   0.131E+00    0.950E-01
RMM:   2    -0.413222106231E+03    0.55610E-02   -0.15813E-01  4301   0.157E-01    0.703E-01
RMM:   3    -0.413222709304E+03   -0.60307E-03   -0.18151E-02  5066   0.895E-02    0.330E-01
RMM:   4    -0.413258147008E+03   -0.35438E-01   -0.56352E-02  5088   0.201E-01    0.828E-01
RMM:   5    -0.413217489072E+03    0.40658E-01   -0.17298E-02  4716   0.137E-01    0.610E-02
RMM:   6    -0.413217544550E+03   -0.55477E-04   -0.31462E-03  5740   0.532E-02    0.350E-02
RMM:   7    -0.413217545508E+03   -0.95848E-06   -0.45388E-04  5752   0.197E-02    0.229E-02
RMM:   8    -0.413217542595E+03    0.29132E-05   -0.12073E-04  5186   0.114E-02    0.121E-02
RMM:   9    -0.413217531870E+03    0.10725E-04   -0.19660E-05  4418   0.560E-03    0.487E-03
RMM:  10    -0.413217529459E+03    0.24108E-05   -0.41955E-06  2829   0.263E-03    0.308E-03
RMM:  11    -0.413217526669E+03    0.27903E-05   -0.12792E-06  2497   0.187E-03    0.166E-03
RMM:  12    -0.413217522543E+03    0.41255E-05   -0.81100E-07  2457   0.150E-03    0.625E-04
RMM:  13    -0.413217519989E+03    0.25543E-05   -0.39877E-07  2117   0.106E-03    0.300E-04
RMM:  14    -0.413217518433E+03    0.15559E-05   -0.21671E-07  1652   0.810E-04    0.199E-04
RMM:  15    -0.413217515127E+03    0.33059E-05   -0.15421E-07  1345   0.728E-04    0.114E-04
RMM:  16    -0.413217513325E+03    0.18021E-05   -0.93537E-08  1135   0.660E-04    0.799E-05
RMM:  17    -0.413217511289E+03    0.20359E-05   -0.72690E-08  1116   0.643E-04    0.499E-05
RMM:  18    -0.413217509073E+03    0.22159E-05   -0.58852E-08  1111   0.625E-04    0.327E-05
RMM:  19    -0.413217507521E+03    0.15516E-05   -0.38944E-08   965   0.587E-04    0.226E-05
RMM:  20    -0.413217506951E+03    0.57024E-06   -0.21728E-08   790   0.555E-04
   44 T=    71. E= -.41286684E+03 F= -.41321751E+03 E0= -.41319652E+03  EK= 0.35067E+00 SP= 0.00E+00 SK= 0.00E+00
       N       E                     dE             d eps       ncg     rms          rms(c)
RMM:   1    -0.413253165662E+03   -0.35658E-01   -0.11061E+01  4311   0.149E+00    0.974E-01
RMM:   2    -0.413223037482E+03    0.30128E-01   -0.17448E-01  4336   0.168E-01    0.700E-01
RMM:   3    -0.413227206778E+03   -0.41693E-02   -0.19634E-02  5114   0.101E-01    0.417E-01
RMM:   4    -0.413247664388E+03   -0.20458E-01   -0.48345E-02  5059   0.189E-01    0.704E-01
RMM:   5    -0.413219081223E+03    0.28583E-01   -0.11359E-02  4672   0.118E-01    0.603E-02
RMM:   6    -0.413219071706E+03    0.95166E-05   -0.22223E-03  5643   0.454E-02    0.350E-02
RMM:   7    -0.413219067059E+03    0.46467E-05   -0.37113E-04  5660   0.185E-02    0.231E-02
RMM:   8    -0.413219057811E+03    0.92486E-05   -0.12023E-04  5099   0.116E-02    0.111E-02
RMM:   9    -0.413219044515E+03    0.13296E-04   -0.17201E-05  4367   0.565E-03    0.449E-03
RMM:  10    -0.413219040577E+03    0.39380E-05   -0.34161E-06  2760   0.241E-03    0.264E-03
RMM:  11    -0.413219034746E+03    0.58310E-05   -0.12210E-06  2487   0.183E-03    0.143E-03
RMM:  12    -0.413219028518E+03    0.62284E-05   -0.63762E-07  2432   0.138E-03    0.613E-04
RMM:  13    -0.413219024957E+03    0.35606E-05   -0.30462E-07  1943   0.948E-04    0.299E-04
RMM:  14    -0.413219021728E+03    0.32294E-05   -0.17230E-07  1505   0.753E-04    0.173E-04
RMM:  15    -0.413219016735E+03    0.49928E-05   -0.12813E-07  1321   0.706E-04    0.120E-04
RMM:  16    -0.413219014093E+03    0.26420E-05   -0.78728E-08  1109   0.644E-04    0.848E-05
RMM:  17    -0.413219009886E+03    0.42067E-05   -0.77492E-08  1311   0.656E-04    0.591E-05
RMM:  18    -0.413219007794E+03    0.20920E-05   -0.47896E-08  1070   0.587E-04    0.454E-05
RMM:  19    -0.413219006139E+03    0.16552E-05   -0.30071E-08   903   0.555E-04    0.226E-05
RMM:  20    -0.413219005831E+03    0.30752E-06   -0.15606E-08   712   0.527E-04
   45 T=    72. E= -.41286724E+03 F= -.41321901E+03 E0= -.41319805E+03  EK= 0.35176E+00 SP= 0.00E+00 SK= 0.00E+00
       N       E                     dE             d eps       ncg     rms          rms(c)
RMM:   1    -0.413259931144E+03   -0.40925E-01   -0.11024E+01  4311   0.160E+00    0.956E-01
RMM:   2    -0.413223108524E+03    0.36823E-01   -0.18275E-01  4361   0.183E-01    0.696E-01
RMM:   3    -0.413229511158E+03   -0.64026E-02   -0.20624E-02  5116   0.110E-01    0.468E-01
RMM:   4    -0.413243159991E+03   -0.13649E-01   -0.45938E-02  5040   0.186E-01    0.650E-01
RMM:   5    -0.413219202741E+03    0.23957E-01   -0.92151E-03  4633   0.110E-01    0.597E-02
RMM:   6    -0.413219177435E+03    0.25306E-04   -0.18632E-03  5546   0.418E-02    0.340E-02
RMM:   7    -0.413219171824E+03    0.56113E-05   -0.32817E-04  5641   0.175E-02    0.229E-02
RMM:   8    -0.413219161735E+03    0.10088E-04   -0.12336E-04  5078   0.116E-02    0.106E-02
RMM:   9    -0.413219148318E+03    0.13418E-04   -0.17112E-05  4366   0.569E-03    0.432E-03
RMM:  10    -0.413219144993E+03    0.33249E-05   -0.29859E-06  2714   0.230E-03    0.249E-03
RMM:  11    -0.413219139405E+03    0.55883E-05   -0.12914E-06  2492   0.183E-03    0.136E-03
RMM:  12    -0.413219134493E+03    0.49119E-05   -0.61030E-07  2438   0.135E-03    0.676E-04
RMM:  13    -0.413219131116E+03    0.33766E-05   -0.29468E-07  1875   0.925E-04    0.320E-04
RMM:  14    -0.413219127849E+03    0.32675E-05   -0.16988E-07  1427   0.737E-04    0.176E-04
RMM:  15    -0.413219123899E+03    0.39497E-05   -0.12491E-07  1268   0.691E-04    0.119E-04
RMM:  16    -0.413219121300E+03    0.25986E-05   -0.83379E-08  1142   0.644E-04    0.957E-05
RMM:  17    -0.413219117444E+03    0.38562E-05   -0.82798E-08  1325   0.651E-04    0.626E-05
RMM:  18    -0.413219115533E+03    0.19114E-05   -0.47322E-08  1023   0.576E-04    0.449E-05
RMM:  19    -0.413219114316E+03    0.12164E-05   -0.30749E-08   872   0.547E-04    0.255E-05
RMM:  20    -0.413219113848E+03    0.46857E-06   -0.20080E-08   755   0.525E-04
   46 T=    72. E= -.41286716E+03 F= -.41321911E+03 E0= -.41319817E+03  EK= 0.35195E+00 SP= 0.00E+00 SK= 0.00E+00
       N       E                     dE             d eps       ncg     rms          rms(c)
RMM:   1    -0.413239341196E+03   -0.20227E-01   -0.10848E+01  4311   0.157E+00    0.945E-01
RMM:   2    -0.413223091009E+03    0.16250E-01   -0.17649E-01  4363   0.191E-01    0.707E-01
RMM:   3    -0.413230675378E+03   -0.75844E-02   -0.22744E-02  5104   0.121E-01    0.492E-01
RMM:   4    -0.413242657969E+03   -0.11983E-01   -0.48060E-02  5033   0.191E-01    0.645E-01
RMM:   5    -0.413218700828E+03    0.23957E-01   -0.87493E-03  4613   0.109E-01    0.594E-02
RMM:   6    -0.413218670937E+03    0.29891E-04   -0.18083E-03  5526   0.411E-02    0.329E-02
RMM:   7    -0.413218667462E+03    0.34748E-05   -0.31169E-04  5641   0.171E-02    0.224E-02
RMM:   8    -0.413218657249E+03    0.10214E-04   -0.12564E-04  5087   0.117E-02    0.104E-02
RMM:   9    -0.413218645399E+03    0.11849E-04   -0.17169E-05  4333   0.569E-03    0.417E-03
RMM:  10    -0.413218643191E+03    0.22088E-05   -0.30165E-06  2720   0.231E-03    0.243E-03
RMM:  11    -0.413218639396E+03    0.37948E-05   -0.13386E-06  2505   0.185E-03    0.133E-03
RMM:  12    -0.413218636190E+03    0.32059E-05   -0.62882E-07  2434   0.136E-03    0.697E-04
RMM:  13    -0.413218633671E+03    0.25188E-05   -0.31848E-07  1873   0.943E-04    0.329E-04
RMM:  14    -0.413218631284E+03    0.23867E-05   -0.18655E-07  1442   0.750E-04    0.176E-04
RMM:  15    -0.413218628506E+03    0.27788E-05   -0.14214E-07  1279   0.701E-04    0.118E-04
RMM:  16    -0.413218626613E+03    0.18925E-05   -0.93716E-08  1166   0.648E-04    0.971E-05
RMM:  17    -0.413218623743E+03    0.28703E-05   -0.91171E-08  1293   0.653E-04    0.576E-05
RMM:  18    -0.413218622301E+03    0.14420E-05   -0.50053E-08   982   0.575E-04    0.417E-05
RMM:  19    -0.413218621562E+03    0.73882E-06   -0.32015E-08   842   0.544E-04
   47 T=    72. E= -.41286725E+03 F= -.41321862E+03 E0= -.41319770E+03  EK= 0.35137E+00 SP= 0.00E+00 SK= 0.00E+00
       N       E                     dE             d eps       ncg     rms          rms(c)
RMM:   1    -0.413245835588E+03   -0.27213E-01   -0.10851E+01  4306   0.171E+00    0.967E-01
RMM:   2    -0.413221472689E+03    0.24363E-01   -0.17843E-01  4424   0.202E-01    0.703E-01
RMM:   3    -0.413235070800E+03   -0.13598E-01   -0.27652E-02  5127   0.138E-01    0.590E-01
RMM:   4    -0.413232680755E+03    0.23900E-02   -0.43018E-02  4997   0.184E-01    0.526E-01
RMM:   5    -0.413217325860E+03    0.15355E-01   -0.54262E-03  4559   0.944E-02    0.580E-02
RMM:   6    -0.413217242495E+03    0.83365E-04   -0.97268E-04  5149   0.328E-02    0.311E-02
RMM:   7    -0.413217231651E+03    0.10843E-04   -0.19348E-04  5604   0.136E-02    0.166E-02
RMM:   8    -0.413217232191E+03   -0.53907E-06   -0.13066E-04  5222   0.116E-02    0.124E-02
RMM:   9    -0.413217214297E+03    0.17893E-04   -0.22999E-05  4569   0.625E-03    0.443E-03
RMM:  10    -0.413217211480E+03    0.28174E-05   -0.36558E-06  2785   0.252E-03    0.244E-03
RMM:  11    -0.413217205494E+03    0.59858E-05   -0.14869E-06  2469   0.199E-03    0.131E-03
RMM:  12    -0.413217201096E+03    0.43981E-05   -0.66497E-07  2388   0.143E-03    0.781E-04
RMM:  13    -0.413217197168E+03    0.39275E-05   -0.30666E-07  1859   0.982E-04    0.412E-04
RMM:  14    -0.413217193218E+03    0.39505E-05   -0.16115E-07  1487   0.751E-04    0.232E-04
RMM:  15    -0.413217189344E+03    0.38740E-05   -0.10894E-07  1215   0.666E-04    0.152E-04
RMM:  16    -0.413217187041E+03    0.23034E-05   -0.72090E-08  1076   0.607E-04    0.125E-04
RMM:  17    -0.413217183683E+03    0.33572E-05   -0.71497E-08  1177   0.614E-04    0.719E-05
RMM:  18    -0.413217181640E+03    0.20431E-05   -0.41424E-08   927   0.563E-04    0.574E-05
RMM:  19    -0.413217180938E+03    0.70265E-06   -0.20792E-08   700   0.517E-04
   48 T=    71. E= -.41286745E+03 F= -.41321718E+03 E0= -.41319627E+03  EK= 0.34973E+00 SP= 0.00E+00 SK= 0.00E+00
       N       E                     dE             d eps       ncg     rms          rms(c)
RMM:   1    -0.413247735911E+03   -0.30554E-01   -0.10719E+01  4305   0.184E+00    0.958E-01
RMM:   2    -0.413217839826E+03    0.29896E-01   -0.17984E-01  4486   0.214E-01    0.693E-01
RMM:   3    -0.413237429186E+03   -0.19589E-01   -0.32347E-02  5143   0.154E-01    0.674E-01
RMM:   4    -0.413224442850E+03    0.12986E-01   -0.41131E-02  4970   0.183E-01    0.447E-01
RMM:   5    -0.413213852387E+03    0.10590E-01   -0.43993E-03  4540   0.885E-02    0.609E-02
RMM:   6    -0.413213717675E+03    0.13471E-03   -0.56787E-04  4802   0.291E-02    0.322E-02
RMM:   7    -0.413213714177E+03    0.34972E-05   -0.25738E-04  5845   0.164E-02    0.190E-02
RMM:   8    -0.413213695494E+03    0.18684E-04   -0.10817E-04  5148   0.115E-02    0.105E-02
RMM:   9    -0.413213686720E+03    0.87734E-05   -0.14150E-05  4264   0.526E-03    0.462E-03
RMM:  10    -0.413213682707E+03    0.40137E-05   -0.24396E-06  2651   0.239E-03    0.234E-03
RMM:  11    -0.413213676509E+03    0.61982E-05   -0.15228E-06  2491   0.197E-03    0.157E-03
RMM:  12    -0.413213672725E+03    0.37832E-05   -0.56935E-07  2403   0.135E-03    0.872E-04
RMM:  13    -0.413213667906E+03    0.48195E-05   -0.32294E-07  1909   0.975E-04    0.470E-04
RMM:  14    -0.413213662152E+03    0.57536E-05   -0.25556E-07  1984   0.857E-04    0.498E-04
RMM:  15    -0.413213658742E+03    0.34100E-05   -0.11766E-07  1139   0.645E-04    0.202E-04
RMM:  16    -0.413213656288E+03    0.24544E-05   -0.85915E-08  1124   0.624E-04    0.114E-04
RMM:  17    -0.413213653593E+03    0.26944E-05   -0.72294E-08  1140   0.611E-04    0.103E-04
RMM:  18    -0.413213652124E+03    0.14693E-05   -0.45190E-08   966   0.561E-04    0.108E-04
RMM:  19    -0.413213650490E+03    0.16340E-05   -0.39302E-08   942   0.548E-04    0.490E-05
RMM:  20    -0.413213649583E+03    0.90741E-06   -0.24312E-08   785   0.518E-04
   49 T=    71. E= -.41286716E+03 F= -.41321365E+03 E0= -.41319275E+03  EK= 0.34649E+00 SP= 0.00E+00 SK= 0.00E+00
[...]
RMM:  13    -0.413878913365E+03   -0.27635E-05   -0.29037E-06  2770   0.259E-03    0.220E-03
RMM:  14    -0.413878914706E+03   -0.13416E-05   -0.11467E-06  2521   0.172E-03    0.120E-03
RMM:  15    -0.413878915638E+03   -0.93157E-06   -0.90806E-07  2478   0.144E-03
  138 T=   202. E= -.41288761E+03 F= -.41387892E+03 E0= -.41385577E+03  EK= 0.99131E+00 SP= 0.00E+00 SK= 0.00E+00
       N       E                     dE             d eps       ncg     rms          rms(c)
RMM:   1    -0.413866739066E+03    0.12176E-01   -0.22486E+01  4298   0.865E+00    0.125E+00
RMM:   2    -0.413783673769E+03    0.83065E-01   -0.63148E-01  5426   0.942E-01    0.142E+00
RMM:   3    -0.413733897030E+03    0.49777E-01   -0.12414E-01  5573   0.404E-01    0.110E+00
RMM:   4    -0.413718440733E+03    0.15456E-01   -0.44612E-02  5292   0.260E-01    0.627E-01
RMM:   5    -0.413722578609E+03   -0.41379E-02   -0.65465E-02  5002   0.307E-01    0.389E-01
RMM:   6    -0.413715237698E+03    0.73409E-02   -0.26939E-02  4923   0.205E-01    0.152E-01
RMM:   7    -0.413714441430E+03    0.79627E-03   -0.31556E-03  5336   0.810E-02    0.797E-02
RMM:   8    -0.413714361810E+03    0.79620E-04   -0.78521E-04  5727   0.335E-02    0.547E-02
RMM:   9    -0.413714326001E+03    0.35809E-04   -0.39224E-04  4503   0.255E-02    0.188E-02
RMM:  10    -0.413714343026E+03   -0.17024E-04   -0.11941E-04  5741   0.131E-02    0.127E-02
RMM:  11    -0.413714347157E+03   -0.41309E-05   -0.25812E-05  4832   0.627E-03    0.753E-03
RMM:  12    -0.413714352557E+03   -0.53997E-05   -0.95387E-06  3617   0.426E-03    0.348E-03
RMM:  13    -0.413714356676E+03   -0.41198E-05   -0.25979E-06  2727   0.237E-03    0.171E-03
RMM:  14    -0.413714359568E+03   -0.28918E-05   -0.13769E-06  2573   0.174E-03    0.873E-04
RMM:  15    -0.413714361484E+03   -0.19163E-05   -0.12384E-06  2483   0.148E-03    0.549E-04
RMM:  16    -0.413714361834E+03   -0.34965E-06   -0.91384E-07  2165   0.117E-03
  139 T=   171. E= -.41287608E+03 F= -.41371436E+03 E0= -.41369121E+03  EK= 0.83828E+00 SP= 0.00E+00 SK= 0.00E+00
       N       E                     dE             d eps       ncg     rms          rms(c)
RMM:   1    -0.413548215834E+03    0.16615E+00   -0.16227E+01  4298   0.752E+00    0.835E-01
RMM:   2    -0.413519989663E+03    0.28226E-01   -0.40622E-01  5420   0.744E-01    0.102E+00
RMM:   3    -0.413488567982E+03    0.31422E-01   -0.70359E-02  5623   0.299E-01    0.737E-01
RMM:   4    -0.413481829610E+03    0.67384E-02   -0.19190E-02  5361   0.169E-01    0.458E-01
RMM:   5    -0.413484441060E+03   -0.26114E-02   -0.33139E-02  5022   0.215E-01    0.310E-01
RMM:   6    -0.413480574813E+03    0.38662E-02   -0.15925E-02  4938   0.158E-01    0.120E-01
RMM:   7    -0.413480232151E+03    0.34266E-03   -0.24152E-03  5563   0.661E-02    0.753E-02
RMM:   8    -0.413480140857E+03    0.91294E-04   -0.54804E-04  5455   0.287E-02    0.446E-02
RMM:   9    -0.413480140246E+03    0.61095E-06   -0.33486E-04  4625   0.226E-02    0.166E-02
RMM:  10    -0.413480154553E+03   -0.14307E-04   -0.77940E-05  5639   0.107E-02    0.114E-02
RMM:  11    -0.413480160242E+03   -0.56885E-05   -0.18709E-05  4459   0.561E-03    0.621E-03
RMM:  12    -0.413480167050E+03   -0.68086E-05   -0.72198E-06  3316   0.385E-03    0.307E-03
RMM:  13    -0.413480171218E+03   -0.41676E-05   -0.22068E-06  2662   0.225E-03    0.164E-03
RMM:  14    -0.413480174228E+03   -0.30104E-05   -0.18792E-06  2639   0.191E-03    0.862E-04
RMM:  15    -0.413480175528E+03   -0.12992E-05   -0.14020E-06  2444   0.149E-03    0.617E-04
RMM:  16    -0.413480175154E+03    0.37373E-06   -0.13720E-06  2429   0.137E-03
  140 T=   124. E= -.41286921E+03 F= -.41348018E+03 E0= -.41345715E+03  EK= 0.61096E+00 SP= 0.00E+00 SK= 0.00E+00
       N       E                     dE             d eps       ncg     rms          rms(c)
RMM:   1    -0.413292058090E+03    0.18812E+00   -0.10243E+01  4295   0.610E+00    0.595E-01
RMM:   2    -0.413291069276E+03    0.98881E-03   -0.23255E-01  5405   0.553E-01    0.692E-01
RMM:   3    -0.413279119166E+03    0.11950E-01   -0.37782E-02  5633   0.211E-01    0.529E-01
RMM:   4    -0.413275381725E+03    0.37374E-02   -0.98415E-03  5342   0.121E-01    0.327E-01
RMM:   5    -0.413276803126E+03   -0.14214E-02   -0.16928E-02  5027   0.154E-01    0.220E-01
RMM:   6    -0.413274882679E+03    0.19204E-02   -0.83409E-03  4998   0.113E-01    0.903E-02
RMM:   7    -0.413274710394E+03    0.17229E-03   -0.13453E-03  5592   0.484E-02    0.584E-02
RMM:   8    -0.413274660000E+03    0.50394E-04   -0.36524E-04  5193   0.234E-02    0.308E-02
RMM:   9    -0.413274678780E+03   -0.18780E-04   -0.21215E-04  4914   0.172E-02    0.151E-02
RMM:  10    -0.413274683045E+03   -0.42650E-05   -0.37865E-05  5272   0.769E-03    0.917E-03
RMM:  11    -0.413274689181E+03   -0.61366E-05   -0.14144E-05  4156   0.490E-03    0.464E-03
RMM:  12    -0.413274696176E+03   -0.69943E-05   -0.47906E-06  2988   0.324E-03    0.249E-03
RMM:  13    -0.413274699614E+03   -0.34384E-05   -0.18292E-06  2617   0.198E-03    0.131E-03
RMM:  14    -0.413274702299E+03   -0.26853E-05   -0.17913E-06  2615   0.180E-03    0.762E-04
RMM:  15    -0.413274703356E+03   -0.10570E-05   -0.16186E-06  2436   0.152E-03    0.556E-04
RMM:  16    -0.413274702645E+03    0.71137E-06   -0.12929E-06  2307   0.130E-03
  141 T=    83. E= -.41286534E+03 F= -.41327470E+03 E0= -.41325190E+03  EK= 0.40936E+00 SP= 0.00E+00 SK= 0.00E+00
       N       E                     dE             d eps       ncg     rms          rms(c)
RMM:   1    -0.413155677485E+03    0.11903E+00   -0.61107E+00  4287   0.474E+00    0.438E-01
RMM:   2    -0.413158486778E+03   -0.28093E-02   -0.13114E-01  5378   0.411E-01    0.429E-01
RMM:   3    -0.413158160859E+03    0.32592E-03   -0.20924E-02  5666   0.151E-01    0.409E-01
RMM:   4    -0.413154936796E+03    0.32241E-02   -0.70719E-03  5283   0.103E-01    0.225E-01
RMM:   5    -0.413155240154E+03   -0.30336E-03   -0.67783E-03  4999   0.103E-01    0.122E-01
RMM:   6    -0.413154840664E+03    0.39949E-03   -0.33262E-03  5129   0.703E-02    0.670E-02
RMM:   7    -0.413154656729E+03    0.18394E-03   -0.52785E-04  4918   0.323E-02    0.323E-02
RMM:   8    -0.413154667038E+03   -0.10309E-04   -0.24155E-04  5713   0.178E-02    0.219E-02
RMM:   9    -0.413154672158E+03   -0.51200E-05   -0.86012E-05  4995   0.112E-02    0.127E-02
RMM:  10    -0.413154671150E+03    0.10073E-05   -0.21764E-05  4892   0.583E-03    0.637E-03
RMM:  11    -0.413154674322E+03   -0.31722E-05   -0.10281E-05  3946   0.407E-03    0.395E-03
RMM:  12    -0.413154677982E+03   -0.36594E-05   -0.26802E-06  2714   0.266E-03    0.185E-03
RMM:  13    -0.413154679405E+03   -0.14234E-05   -0.10677E-06  2523   0.159E-03    0.876E-04
RMM:  14    -0.413154680257E+03   -0.85169E-06   -0.82667E-07  2324   0.132E-03
  142 T=    59. E= -.41286392E+03 F= -.41315468E+03 E0= -.41313221E+03  EK= 0.29076E+00 SP= 0.00E+00 SK= 0.00E+00
       N       E                     dE             d eps       ncg     rms          rms(c)
RMM:   1    -0.413143140865E+03    0.11539E-01   -0.44772E+00  4264   0.398E+00    0.383E-01
RMM:   2    -0.413142366950E+03    0.77392E-03   -0.99015E-02  5319   0.358E-01    0.298E-01
RMM:   3    -0.413151159023E+03   -0.87921E-02   -0.20018E-02  5599   0.145E-01    0.462E-01
RMM:   4    -0.413142989347E+03    0.81697E-02   -0.89049E-03  5236   0.106E-01    0.199E-01
RMM:   5    -0.413142612876E+03    0.37647E-03   -0.30596E-03  4955   0.761E-02    0.683E-02
RMM:   6    -0.413142688296E+03   -0.75420E-04   -0.11728E-03  5548   0.405E-02    0.453E-02
RMM:   7    -0.413142617398E+03    0.70899E-04   -0.37961E-04  5182   0.230E-02    0.233E-02
RMM:   8    -0.413142611724E+03    0.56736E-05   -0.12436E-04  5653   0.133E-02    0.159E-02
RMM:   9    -0.413142613375E+03   -0.16510E-05   -0.48235E-05  5340   0.841E-03    0.112E-02
RMM:  10    -0.413142610703E+03    0.26715E-05   -0.10466E-05  4111   0.449E-03    0.499E-03
RMM:  11    -0.413142611443E+03   -0.73945E-06   -0.84612E-06  3788   0.357E-03
  143 T=    57. E= -.41286419E+03 F= -.41314261E+03 E0= -.41312060E+03  EK= 0.27842E+00 SP= 0.00E+00 SK= 0.00E+00
       N       E                     dE             d eps       ncg     rms          rms(c)
RMM:   1    -0.413236713325E+03   -0.94103E-01   -0.54502E+00  4264   0.438E+00    0.451E-01
RMM:   2    -0.413233844235E+03    0.28691E-02   -0.14094E-01  5324   0.413E-01    0.335E-01
RMM:   3    -0.413235547302E+03   -0.17031E-02   -0.19183E-02  5477   0.164E-01    0.258E-01
RMM:   4    -0.413244430785E+03   -0.88835E-02   -0.13812E-02  5386   0.115E-01    0.427E-01
RMM:   5    -0.413234842956E+03    0.95878E-02   -0.72731E-03  5000   0.983E-02    0.809E-02
RMM:   6    -0.413234881314E+03   -0.38359E-04   -0.16480E-03  5709   0.484E-02    0.489E-02
RMM:   7    -0.413234811305E+03    0.70009E-04   -0.43490E-04  5361   0.246E-02    0.261E-02
RMM:   8    -0.413234808422E+03    0.28831E-05   -0.13697E-04  5799   0.136E-02    0.163E-02
RMM:   9    -0.413234799663E+03    0.87591E-05   -0.48247E-05  5410   0.830E-03    0.101E-02
RMM:  10    -0.413234798241E+03    0.14216E-05   -0.13420E-05  4409   0.493E-03    0.561E-03
RMM:  11    -0.413234797863E+03    0.37789E-06   -0.47337E-06  3035   0.310E-03
  144 T=    75. E= -.41286602E+03 F= -.41323480E+03 E0= -.41321330E+03  EK= 0.36877E+00 SP= 0.00E+00 SK= 0.00E+00
       N       E                     dE             d eps       ncg     rms          rms(c)
RMM:   1    -0.413408059403E+03   -0.17326E+00   -0.87180E+00  4265   0.558E+00    0.618E-01
RMM:   2    -0.413399472940E+03    0.85865E-02   -0.26174E-01  5328   0.554E-01    0.478E-01
RMM:   3    -0.413401345549E+03   -0.18726E-02   -0.30963E-02  5433   0.214E-01    0.323E-01
RMM:   4    -0.413418122385E+03   -0.16777E-01   -0.23281E-02  5222   0.160E-01    0.566E-01
RMM:   5    -0.413401210501E+03    0.16912E-01   -0.11854E-02  5052   0.120E-01    0.129E-01
RMM:   6    -0.413400880431E+03    0.33007E-03   -0.32404E-03  5556   0.690E-02    0.691E-02
RMM:   7    -0.413400645208E+03    0.23522E-03   -0.87890E-04  5132   0.359E-02    0.327E-02
RMM:   8    -0.413400629597E+03    0.15611E-04   -0.21356E-04  5646   0.180E-02    0.207E-02
RMM:   9    -0.413400617095E+03    0.12503E-04   -0.53486E-05  5334   0.906E-03    0.100E-02
RMM:  10    -0.413400616011E+03    0.10836E-05   -0.18994E-05  4668   0.548E-03    0.593E-03
RMM:  11    -0.413400618400E+03   -0.23883E-05   -0.68706E-06  3428   0.367E-03    0.379E-03
RMM:  12    -0.413400622477E+03   -0.40771E-05   -0.20033E-06  2630   0.239E-03    0.228E-03
RMM:  13    -0.413400627643E+03   -0.51666E-05   -0.14001E-06  2570   0.186E-03    0.115E-03
RMM:  14    -0.413400633019E+03   -0.53762E-05   -0.10304E-06  2536   0.145E-03    0.749E-04
RMM:  15    -0.413400640016E+03   -0.69965E-05   -0.12733E-06  2552   0.144E-03    0.551E-04
RMM:  16    -0.413400646109E+03   -0.60927E-05   -0.11943E-06  2373   0.126E-03    0.343E-04
RMM:  17    -0.413400651050E+03   -0.49413E-05   -0.95686E-07  2098   0.109E-03    0.203E-04
RMM:  18    -0.413400655507E+03   -0.44569E-05   -0.85768E-07  2102   0.103E-03    0.166E-04
RMM:  19    -0.413400657836E+03   -0.23290E-05   -0.34880E-07  1432   0.714E-04    0.948E-05
RMM:  20    -0.413400659774E+03   -0.19377E-05   -0.20379E-07  1246   0.630E-04    0.602E-05
RMM:  21    -0.413400661180E+03   -0.14068E-05   -0.11151E-07  1083   0.578E-04    0.426E-05
RMM:  22    -0.413400661754E+03   -0.57317E-06   -0.54451E-08   954   0.538E-04
  145 T=   108. E= -.41287037E+03 F= -.41340066E+03 E0= -.41337962E+03  EK= 0.53029E+00 SP= 0.00E+00 SK= 0.00E+00
       N       E                     dE             d eps       ncg     rms          rms(c)
RMM:   1    -0.413601604926E+03   -0.20094E+00   -0.13333E+01  4268   0.683E+00    0.887E-01
RMM:   2    -0.413571536370E+03    0.30069E-01   -0.44283E-01  5326   0.721E-01    0.702E-01
RMM:   3    -0.413574251577E+03   -0.27152E-02   -0.51333E-02  5358   0.283E-01    0.426E-01
RMM:   4    -0.413573785123E+03    0.46645E-03   -0.18450E-02  4781   0.184E-01    0.152E-01
RMM:   5    -0.413581379286E+03   -0.75942E-02   -0.13409E-02  5463   0.119E-01    0.366E-01
RMM:   6    -0.413573541625E+03    0.78377E-02   -0.55136E-03  5144   0.797E-02    0.101E-01
RMM:   7    -0.413573068742E+03    0.47288E-03   -0.21646E-03  5549   0.525E-02    0.432E-02
RMM:   8    -0.413573035977E+03    0.32765E-04   -0.40232E-04  5668   0.250E-02    0.264E-02
RMM:   9    -0.413573019648E+03    0.16329E-04   -0.10073E-04  5393   0.125E-02    0.130E-02
RMM:  10    -0.413573015845E+03    0.38022E-05   -0.36364E-05  5452   0.737E-03    0.825E-03
RMM:  11    -0.413573016024E+03   -0.17834E-06   -0.12515E-05  4152   0.441E-03    0.603E-03
RMM:  12    -0.413573018165E+03   -0.21413E-05   -0.35275E-06  2798   0.321E-03    0.302E-03
RMM:  13    -0.413573021402E+03   -0.32369E-05   -0.23111E-06  2666   0.233E-03    0.154E-03
RMM:  14    -0.413573026581E+03   -0.51794E-05   -0.14444E-06  2576   0.190E-03    0.886E-04
RMM:  15    -0.413573031319E+03   -0.47379E-05   -0.99696E-07  2524   0.143E-03    0.583E-04
RMM:  16    -0.413573036245E+03   -0.49262E-05   -0.94589E-07  2397   0.125E-03    0.363E-04
RMM:  17    -0.413573040919E+03   -0.46736E-05   -0.95238E-07  2296   0.116E-03    0.251E-04
RMM:  18    -0.413573044958E+03   -0.40385E-05   -0.82944E-07  1947   0.102E-03    0.185E-04
RMM:  19    -0.413573047582E+03   -0.26245E-05   -0.46737E-07  1703   0.822E-04    0.128E-04
RMM:  20    -0.413573049321E+03   -0.17394E-05   -0.22458E-07  1282   0.654E-04    0.846E-05
RMM:  21    -0.413573050892E+03   -0.15705E-05   -0.14547E-07  1164   0.604E-04    0.496E-05
RMM:  22    -0.413573051579E+03   -0.68704E-06   -0.72208E-08  1000   0.554E-04
  146 T=   142. E= -.41287707E+03 F= -.41357305E+03 E0= -.41355229E+03  EK= 0.69598E+00 SP= 0.00E+00 SK= 0.00E+00
       N       E                     dE             d eps       ncg     rms          rms(c)
RMM:   1    -0.413722294281E+03   -0.14924E+00   -0.17233E+01  4267   0.755E+00    0.117E+00
RMM:   2    -0.413665436400E+03    0.56858E-01   -0.64066E-01  5344   0.841E-01    0.911E-01
RMM:   3    -0.413674261532E+03   -0.88251E-02   -0.80493E-02  5288   0.359E-01    0.571E-01
RMM:   4    -0.413745663045E+03   -0.71402E-01   -0.10545E-01  5224   0.317E-01    0.110E+00
RMM:   5    -0.413668779980E+03    0.76883E-01   -0.56489E-02  5024   0.266E-01    0.196E-01
RMM:   6    -0.413668183082E+03    0.59690E-03   -0.15170E-02  5645   0.141E-01    0.117E-01
RMM:   7    -0.413667511520E+03    0.67156E-03   -0.29546E-03  5239   0.642E-02    0.521E-02
RMM:   8    -0.413667496968E+03    0.14552E-04   -0.72505E-04  5768   0.315E-02    0.344E-02
RMM:   9    -0.413667477202E+03    0.19766E-04   -0.15942E-04  5483   0.151E-02    0.172E-02
RMM:  10    -0.413667470613E+03    0.65884E-05   -0.59473E-05  5445   0.925E-03    0.963E-03
RMM:  11    -0.413667469685E+03    0.92859E-06   -0.17347E-05  4473   0.475E-03    0.674E-03
RMM:  12    -0.413667469285E+03    0.39994E-06   -0.61681E-06  3367   0.387E-03
  147 T=   161. E= -.41287828E+03 F= -.41366747E+03 E0= -.41364677E+03  EK= 0.78919E+00 SP= 0.00E+00 SK= 0.00E+00
       N       E                     dE             d eps       ncg     rms          rms(c)
RMM:   1    -0.413753956073E+03   -0.86486E-01   -0.18838E+01  4265   0.760E+00    0.127E+00
RMM:   2    -0.413682881516E+03    0.71075E-01   -0.75736E-01  5385   0.885E-01    0.984E-01
RMM:   3    -0.413743828480E+03   -0.60947E-01   -0.13500E-01  5368   0.424E-01    0.116E+00
RMM:   4    -0.413700985825E+03    0.42843E-01   -0.82948E-02  5160   0.308E-01    0.673E-01
RMM:   5    -0.413685177832E+03    0.15808E-01   -0.40198E-02  5103   0.259E-01    0.194E-01
RMM:   6    -0.413684329409E+03    0.84842E-03   -0.85507E-03  5404   0.120E-01    0.107E-01
RMM:   7    -0.413683814463E+03    0.51495E-03   -0.19775E-03  4886   0.578E-02    0.564E-02
RMM:   8    -0.413683760487E+03    0.53975E-04   -0.65746E-04  5475   0.327E-02    0.381E-02
RMM:   9    -0.413683756968E+03    0.35195E-05   -0.23397E-04  5813   0.186E-02    0.287E-02
RMM:  10    -0.413683740655E+03    0.16312E-04   -0.95667E-05  5296   0.123E-02    0.123E-02
RMM:  11    -0.413683740693E+03   -0.37307E-07   -0.50548E-05  5742   0.769E-03    0.872E-03
RMM:  12    -0.413683739630E+03    0.10629E-05   -0.88404E-06  3870   0.425E-03    0.414E-03
RMM:  13    -0.413683740773E+03   -0.11429E-05   -0.41027E-06  2941   0.293E-03    0.221E-03
RMM:  14    -0.413683743010E+03   -0.22378E-05   -0.13840E-06  2537   0.207E-03    0.926E-04
RMM:  15    -0.413683744649E+03   -0.16388E-05   -0.85860E-07  2452   0.149E-03    0.534E-04
RMM:  16    -0.413683746824E+03   -0.21747E-05   -0.79344E-07  2410   0.134E-03    0.454E-04
RMM:  17    -0.413683748160E+03   -0.13365E-05   -0.48105E-07  2266   0.101E-03    0.495E-04
RMM:  18    -0.413683749558E+03   -0.13979E-05   -0.40377E-07  1783   0.879E-04    0.291E-04
RMM:  19    -0.413683750870E+03   -0.13117E-05   -0.39212E-07  1862   0.846E-04    0.132E-04
RMM:  20    -0.413683751637E+03   -0.76689E-06   -0.19917E-07  1350   0.642E-04
  148 T=   165. E= -.41287480E+03 F= -.41368375E+03 E0= -.41366288E+03  EK= 0.80895E+00 SP= 0.00E+00 SK= 0.00E+00
       N       E                     dE             d eps       ncg     rms          rms(c)
RMM:   1    -0.413761749725E+03   -0.77999E-01   -0.19668E+01  4265   0.748E+00    0.160E+00
RMM:   2    -0.413678246343E+03    0.83503E-01   -0.79616E-01  5409   0.945E-01    0.134E+00
RMM:   3    -0.413771348476E+03   -0.93102E-01   -0.18713E-01  5441   0.474E-01    0.153E+00
RMM:   4    -0.413696376834E+03    0.74972E-01   -0.12787E-01  5144   0.383E-01    0.807E-01
RMM:   5    -0.413675349300E+03    0.21028E-01   -0.50947E-02  4778   0.307E-01    0.222E-01
RMM:   6    -0.413674092990E+03    0.12563E-02   -0.86698E-03  5324   0.125E-01    0.110E-01
RMM:   7    -0.413673682673E+03    0.41032E-03   -0.21629E-03  5002   0.585E-02    0.635E-02
RMM:   8    -0.413673584360E+03    0.98313E-04   -0.77545E-04  5314   0.357E-02    0.386E-02
RMM:   9    -0.413673583433E+03    0.92683E-06   -0.32034E-04  5776   0.217E-02    0.311E-02
RMM:  10    -0.413673566095E+03    0.17338E-04   -0.92225E-05  5272   0.124E-02    0.147E-02
RMM:  11    -0.413673564317E+03    0.17774E-05   -0.61458E-05  5685   0.868E-03    0.810E-03
RMM:  12    -0.413673562185E+03    0.21328E-05   -0.81322E-06  3593   0.404E-03    0.421E-03
RMM:  13    -0.413673561838E+03    0.34699E-06   -0.40381E-06  2930   0.293E-03
  149 T=   160. E= -.41288620E+03 F= -.41367356E+03 E0= -.41365256E+03  EK= 0.78736E+00 SP= 0.00E+00 SK= 0.00E+00
       N       E                     dE             d eps       ncg     rms          rms(c)
RMM:   1    -0.413625021061E+03    0.48541E-01   -0.18968E+01  4265   0.712E+00    0.211E+00
RMM:   2    -0.413541648376E+03    0.83373E-01   -0.74201E-01  5390   0.959E-01    0.180E+00
RMM:   3    -0.413568821377E+03   -0.27173E-01   -0.15753E-01  5146   0.480E-01    0.113E+00
RMM:   4    -0.413824396049E+03   -0.25557E+00   -0.40174E-01  5208   0.585E-01    0.210E+00
RMM:   5    -0.413537725718E+03    0.28667E+00   -0.17963E-01  4850   0.484E-01    0.326E-01
RMM:   6    -0.413536709748E+03    0.10160E-02   -0.38971E-02  5729   0.213E-01    0.144E-01
RMM:   7    -0.413536285977E+03    0.42377E-03   -0.69304E-03  5521   0.869E-02    0.798E-02
RMM:   8    -0.413536224354E+03    0.61623E-04   -0.15670E-03  5644   0.447E-02    0.504E-02
RMM:   9    -0.413536206377E+03    0.17977E-04   -0.42437E-04  5189   0.251E-02    0.270E-02
RMM:  10    -0.413536207034E+03   -0.65735E-06   -0.14768E-04  5608   0.143E-02    0.153E-02
RMM:  11    -0.413536206084E+03    0.95018E-06   -0.46060E-05  5415   0.742E-03    0.835E-03
RMM:  12    -0.413536206097E+03   -0.12969E-07   -0.10165E-05  3867   0.414E-03    0.423E-03
RMM:  13    -0.413536206651E+03   -0.55434E-06   -0.24971E-06  2631   0.261E-03
  150 T=   132. E= -.41288835E+03 F= -.41353621E+03 E0= -.41351530E+03  EK= 0.64786E+00 SP= 0.00E+00 SK= 0.00E+00
