       N       E                     dE             d eps       ncg     rms          rms(c)
RMM:   1     0.220150084945E+04    0.22015E+04   -0.52443E+04  2132   0.654E+02
RMM:   2     0.705989521725E+03   -0.14955E+04   -0.16263E+04  2132   0.177E+02
RMM:   3     0.137912529628E+03   -0.56808E+03   -0.65708E+03  2132   0.117E+02
RMM:   4    -0.159370489183E+03   -0.29728E+03   -0.27868E+03  2132   0.936E+01
RMM:   5    -0.287403761409E+03   -0.12803E+03   -0.11443E+03  2132   0.595E+01
RMM:   6    -0.349930952746E+03   -0.62527E+02   -0.55172E+02  2132   0.423E+01
RMM:   7    -0.382796127460E+03   -0.32865E+02   -0.30420E+02  2132   0.293E+01
RMM:   8    -0.404329338839E+03   -0.21533E+02   -0.18422E+02  2132   0.233E+01
RMM:   9    -0.436000796025E+03   -0.31671E+02   -0.30594E+02  6095   0.173E+01
RMM:  10    -0.441261140031E+03   -0.52603E+01   -0.62572E+01  6396   0.538E+00
RMM:  11    -0.442511086834E+03   -0.12499E+01   -0.11271E+01  6209   0.173E+00
RMM:  12    -0.442889705672E+03   -0.37862E+00   -0.27897E+00  6374   0.603E-01    0.134E+02
RMM:  13    -0.425630644800E+03    0.17259E+02   -0.81101E+01  4672   0.119E+01    0.712E+01
RMM:  14    -0.499270275693E+03   -0.73640E+02   -0.54033E+02  5417   0.232E+01    0.306E+01
RMM:  15    -0.413897583973E+03    0.85373E+02   -0.19445E+02  5059   0.162E+01    0.586E+00
RMM:  16    -0.414089223259E+03   -0.19164E+00   -0.39140E+01  6072   0.601E+00    0.430E+00
RMM:  17    -0.413237640641E+03    0.85158E+00   -0.22245E+00  5328   0.178E+00    0.250E+00
RMM:  18    -0.413159902682E+03    0.77738E-01   -0.97420E-01  5931   0.103E+00    0.155E+00
RMM:  19    -0.413167530016E+03   -0.76273E-02   -0.28516E-01  5781   0.559E-01    0.858E-01
RMM:  20    -0.413182072102E+03   -0.14542E-01   -0.18356E-01  5245   0.482E-01    0.522E-01
RMM:  21    -0.413167542654E+03    0.14529E-01   -0.34246E-02  5021   0.222E-01    0.249E-01
RMM:  22    -0.413166161153E+03    0.13815E-02   -0.13658E-02  6120   0.954E-02    0.153E-01
RMM:  23    -0.413164344343E+03    0.18168E-02   -0.52365E-03  5813   0.670E-02    0.787E-02
RMM:  24    -0.413162934233E+03    0.14101E-02   -0.20163E-03  5721   0.435E-02    0.332E-02
RMM:  25    -0.413162755660E+03    0.17857E-03   -0.74835E-04  5903   0.226E-02    0.262E-02
RMM:  26    -0.413163000387E+03   -0.24473E-03   -0.48530E-04  5708   0.240E-02    0.283E-02
RMM:  27    -0.413163422372E+03   -0.42198E-03   -0.17447E-04  4564   0.185E-02    0.149E-02
RMM:  28    -0.413163926996E+03   -0.50462E-03   -0.17294E-04  5085   0.193E-02    0.859E-03
RMM:  29    -0.413164258869E+03   -0.33187E-03   -0.96460E-05  4416   0.136E-02    0.402E-03
RMM:  30    -0.413164466136E+03   -0.20727E-03   -0.69460E-05  3920   0.958E-03    0.242E-03
RMM:  31    -0.413164552370E+03   -0.86234E-04   -0.41363E-05  3116   0.545E-03    0.199E-03
RMM:  32    -0.413164574202E+03   -0.21832E-04   -0.16683E-05  2908   0.281E-03    0.862E-04
RMM:  33    -0.413164579086E+03   -0.48841E-05   -0.76298E-06  2723   0.177E-03    0.515E-04
RMM:  34    -0.413164579949E+03   -0.86223E-06   -0.34605E-06  2545   0.142E-03
    1 T=    61. E= -.41286680E+03 F= -.41316458E+03 E0= -.41314208E+03  EK= 0.29778E+00 SP= 0.00E+00 SK= 0.00E+00
       N       E                     dE             d eps       ncg     rms          rms(c)
RMM:   1    -0.413163374664E+03    0.12044E-02   -0.89373E+00  3978   0.612E-01    0.886E-01
RMM:   2    -0.413168470842E+03   -0.50962E-02   -0.10969E-01  3974   0.880E-02    0.652E-01
RMM:   3    -0.413164899517E+03    0.35713E-02   -0.17456E-02  4938   0.519E-02    0.119E-01
RMM:   4    -0.413195327943E+03   -0.30428E-01   -0.33841E-02  5201   0.153E-01    0.728E-01
RMM:   5    -0.413164058797E+03    0.31269E-01   -0.15014E-02  4838   0.122E-01    0.518E-02
RMM:   6    -0.413164264253E+03   -0.20546E-03   -0.27202E-03  5757   0.510E-02    0.341E-02
RMM:   7    -0.413164274596E+03   -0.10343E-04   -0.47410E-04  5819   0.192E-02    0.213E-02
RMM:   8    -0.413164273726E+03    0.86940E-06   -0.59461E-05  5220   0.822E-03    0.901E-03
RMM:   9    -0.413164276186E+03   -0.24600E-05   -0.12562E-05  3758   0.371E-03    0.661E-03
RMM:  10    -0.413164281510E+03   -0.53243E-05   -0.23358E-06  2601   0.221E-03    0.405E-03
RMM:  11    -0.413164285855E+03   -0.43446E-05   -0.13020E-06  2529   0.165E-03    0.223E-03
RMM:  12    -0.413164292960E+03   -0.71052E-05   -0.16731E-06  2562   0.182E-03    0.947E-04
RMM:  13    -0.413164296133E+03   -0.31726E-05   -0.72903E-07  2388   0.127E-03    0.734E-04
RMM:  14    -0.413164295951E+03    0.18187E-06   -0.35886E-07  1893   0.856E-04
    2 T=    61. E= -.41286661E+03 F= -.41316430E+03 E0= -.41314180E+03  EK= 0.29769E+00 SP= 0.00E+00 SK= 0.00E+00
       N       E                     dE             d eps       ncg     rms          rms(c)
RMM:   1    -0.413164340354E+03   -0.44221E-04   -0.89302E+00  4188   0.618E-01    0.905E-01
RMM:   2    -0.413168673124E+03   -0.43328E-02   -0.10858E-01  3992   0.883E-02    0.647E-01
RMM:   3    -0.413165243731E+03    0.34294E-02   -0.16356E-02  4863   0.470E-02    0.104E-01
RMM:   4    -0.413189998961E+03   -0.24755E-01   -0.25910E-02  5162   0.134E-01    0.659E-01
RMM:   5    -0.413164705640E+03    0.25293E-01   -0.12082E-02  4823   0.110E-01    0.483E-02
RMM:   6    -0.413164890127E+03   -0.18449E-03   -0.22787E-03  5771   0.461E-02    0.338E-02
RMM:   7    -0.413164881098E+03    0.90289E-05   -0.40910E-04  5628   0.194E-02    0.212E-02
RMM:   8    -0.413164870384E+03    0.10714E-04   -0.57032E-05  5027   0.854E-03    0.101E-02
RMM:   9    -0.413164868730E+03    0.16537E-05   -0.11615E-05  3727   0.380E-03    0.759E-03
RMM:  10    -0.413164868891E+03   -0.16065E-06   -0.20443E-06  2568   0.233E-03
    3 T=    61. E= -.41286696E+03 F= -.41316487E+03 E0= -.41314237E+03  EK= 0.29791E+00 SP= 0.00E+00 SK= 0.00E+00
       N       E                     dE             d eps       ncg     rms          rms(c)
RMM:   1    -0.413163766567E+03    0.11022E-02   -0.88634E+00  4220   0.621E-01    0.890E-01
RMM:   2    -0.413168273314E+03   -0.45067E-02   -0.10819E-01  4241   0.874E-02    0.642E-01
RMM:   3    -0.413170937027E+03   -0.26637E-02   -0.20632E-02  5163   0.855E-02    0.342E-01
RMM:   4    -0.413187078375E+03   -0.16141E-01   -0.37995E-02  5104   0.168E-01    0.619E-01
RMM:   5    -0.413164612860E+03    0.22466E-01   -0.83217E-03  4692   0.101E-01    0.598E-02
RMM:   6    -0.413164613347E+03   -0.48741E-06   -0.16641E-03  5429   0.414E-02    0.317E-02
RMM:   7    -0.413164630500E+03   -0.17153E-04   -0.33561E-04  5980   0.169E-02    0.189E-02
RMM:   8    -0.413164626176E+03    0.43247E-05   -0.60104E-05  5143   0.905E-03    0.771E-03
RMM:   9    -0.413164624580E+03    0.15957E-05   -0.76600E-06  3381   0.358E-03    0.393E-03
RMM:  10    -0.413164625788E+03   -0.12086E-05   -0.15919E-06  2537   0.212E-03    0.250E-03
RMM:  11    -0.413164627563E+03   -0.17744E-05   -0.13357E-06  2534   0.179E-03    0.147E-03
RMM:  12    -0.413164628462E+03   -0.89973E-06   -0.76333E-07  2490   0.140E-03
    4 T=    61. E= -.41286669E+03 F= -.41316463E+03 E0= -.41314214E+03  EK= 0.29794E+00 SP= 0.00E+00 SK= 0.00E+00
       N       E                     dE             d eps       ncg     rms          rms(c)
RMM:   1    -0.413163744484E+03    0.88308E-03   -0.89274E+00  4235   0.625E-01    0.884E-01
RMM:   2    -0.413168769168E+03   -0.50247E-02   -0.10985E-01  4017   0.869E-02    0.650E-01
RMM:   3    -0.413165415408E+03    0.33538E-02   -0.17421E-02  4948   0.509E-02    0.120E-01
RMM:   4    -0.413196246555E+03   -0.30831E-01   -0.33172E-02  5145   0.152E-01    0.735E-01
RMM:   5    -0.413164559470E+03    0.31687E-01   -0.14927E-02  4807   0.122E-01    0.502E-02
RMM:   6    -0.413164771118E+03   -0.21165E-03   -0.26762E-03  5751   0.506E-02    0.338E-02
RMM:   7    -0.413164775793E+03   -0.46749E-05   -0.45311E-04  5743   0.197E-02    0.215E-02
RMM:   8    -0.413164772081E+03    0.37117E-05   -0.64624E-05  5119   0.881E-03    0.998E-03
RMM:   9    -0.413164772694E+03   -0.61244E-06   -0.12548E-05  3847   0.399E-03    0.731E-03
RMM:  10    -0.413164776848E+03   -0.41543E-05   -0.20358E-06  2581   0.227E-03    0.448E-03
RMM:  11    -0.413164780451E+03   -0.36029E-05   -0.12254E-06  2527   0.176E-03    0.249E-03
RMM:  12    -0.413164786314E+03   -0.58631E-05   -0.19923E-06  2608   0.202E-03    0.110E-03
RMM:  13    -0.413164788370E+03   -0.20555E-05   -0.63858E-07  2422   0.134E-03    0.806E-04
RMM:  14    -0.413164788126E+03    0.24323E-06   -0.24804E-07  1905   0.862E-04
    5 T=    61. E= -.41286669E+03 F= -.41316479E+03 E0= -.41314231E+03  EK= 0.29810E+00 SP= 0.00E+00 SK= 0.00E+00
       N       E                     dE             d eps       ncg     rms          rms(c)
RMM:   1    -0.413166142912E+03   -0.13545E-02   -0.89523E+00  4248   0.649E-01    0.901E-01
RMM:   2    -0.413168912566E+03   -0.27697E-02   -0.11224E-01  4023   0.888E-02    0.650E-01
RMM:   3    -0.413165570695E+03    0.33419E-02   -0.16231E-02  4829   0.451E-02    0.985E-02
RMM:   4    -0.413187869383E+03   -0.22299E-01   -0.23060E-02  5148   0.127E-01    0.626E-01
RMM:   5    -0.413165115479E+03    0.22754E-01   -0.10932E-02  4816   0.104E-01    0.470E-02
RMM:   6    -0.413165277849E+03   -0.16237E-03   -0.20504E-03  5769   0.434E-02    0.326E-02
RMM:   7    -0.413165271489E+03    0.63594E-05   -0.37906E-04  5601   0.188E-02    0.206E-02
RMM:   8    -0.413165261474E+03    0.10016E-04   -0.52104E-05  4930   0.821E-03    0.973E-03
RMM:   9    -0.413165260103E+03    0.13706E-05   -0.10472E-05  3626   0.364E-03    0.738E-03
RMM:  10    -0.413165260476E+03   -0.37335E-06   -0.19130E-06  2556   0.228E-03
    6 T=    61. E= -.41286689E+03 F= -.41316526E+03 E0= -.41314280E+03  EK= 0.29837E+00 SP= 0.00E+00 SK= 0.00E+00
       N       E                     dE             d eps       ncg     rms          rms(c)
RMM:   1    -0.413164346729E+03    0.91337E-03   -0.88863E+00  4255   0.634E-01    0.897E-01
RMM:   2    -0.413168622771E+03   -0.42760E-02   -0.10843E-01  4256   0.873E-02    0.643E-01
RMM:   3    -0.413170083292E+03   -0.14605E-02   -0.19712E-02  5131   0.790E-02    0.308E-01
RMM:   4    -0.413190533316E+03   -0.20450E-01   -0.39352E-02  5100   0.169E-01    0.660E-01
RMM:   5    -0.413164972921E+03    0.25560E-01   -0.99032E-03  4707   0.107E-01    0.600E-02
RMM:   6    -0.413165011498E+03   -0.38576E-04   -0.19505E-03  5494   0.442E-02    0.323E-02
RMM:   7    -0.413165026931E+03   -0.15433E-04   -0.36444E-04  5981   0.171E-02    0.194E-02
RMM:   8    -0.413165020657E+03    0.62739E-05   -0.62251E-05  5150   0.907E-03    0.801E-03
RMM:   9    -0.413165017284E+03    0.33727E-05   -0.78331E-06  3348   0.355E-03    0.416E-03
RMM:  10    -0.413165017137E+03    0.14649E-06   -0.18533E-06  2563   0.217E-03
    7 T=    61. E= -.41286660E+03 F= -.41316502E+03 E0= -.41314257E+03  EK= 0.29842E+00 SP= 0.00E+00 SK= 0.00E+00
       N       E                     dE             d eps       ncg     rms          rms(c)
RMM:   1    -0.413164627535E+03    0.38975E-03   -0.89102E+00  4266   0.639E-01    0.883E-01
RMM:   2    -0.413169690714E+03   -0.50632E-02   -0.10934E-01  4142   0.882E-02    0.648E-01
RMM:   3    -0.413166431829E+03    0.32589E-02   -0.17357E-02  4962   0.534E-02    0.133E-01
RMM:   4    -0.413200129727E+03   -0.33698E-01   -0.36972E-02  5134   0.161E-01    0.768E-01
RMM:   5    -0.413165406675E+03    0.34723E-01   -0.16355E-02  4804   0.127E-01    0.520E-02
RMM:   6    -0.413165616725E+03   -0.21005E-03   -0.28210E-03  5729   0.526E-02    0.343E-02
RMM:   7    -0.413165617134E+03   -0.40844E-06   -0.47879E-04  5768   0.200E-02    0.218E-02
RMM:   8    -0.413165612995E+03    0.41384E-05   -0.67484E-05  5193   0.895E-03    0.993E-03
RMM:   9    -0.413165612429E+03    0.56673E-06   -0.12997E-05  3878   0.403E-03    0.703E-03
RMM:  10    -0.413165615347E+03   -0.29184E-05   -0.20999E-06  2580   0.227E-03    0.432E-03
RMM:  11    -0.413165617654E+03   -0.23070E-05   -0.11732E-06  2528   0.171E-03    0.243E-03
RMM:  12    -0.413165621536E+03   -0.38814E-05   -0.18668E-06  2593   0.197E-03    0.106E-03
RMM:  13    -0.413165622932E+03   -0.13969E-05   -0.69238E-07  2421   0.134E-03    0.845E-04
RMM:  14    -0.413165622693E+03    0.23997E-06   -0.25387E-07  1925   0.872E-04
    8 T=    61. E= -.41286689E+03 F= -.41316562E+03 E0= -.41314319E+03  EK= 0.29873E+00 SP= 0.00E+00 SK= 0.00E+00
       N       E                     dE             d eps       ncg     rms          rms(c)
RMM:   1    -0.413165240552E+03    0.38238E-03   -0.89464E+00  4281   0.648E-01    0.897E-01
RMM:   2    -0.413169821368E+03   -0.45808E-02   -0.10931E-01  4169   0.889E-02    0.651E-01
RMM:   3    -0.413166195611E+03    0.36258E-02   -0.16829E-02  4847   0.488E-02    0.103E-01
RMM:   4    -0.413191508540E+03   -0.25313E-01   -0.26523E-02  5139   0.136E-01    0.666E-01
RMM:   5    -0.413165613723E+03    0.25895E-01   -0.12410E-02  4804   0.110E-01    0.479E-02
RMM:   6    -0.413165794663E+03   -0.18094E-03   -0.22967E-03  5766   0.459E-02    0.327E-02
RMM:   7    -0.413165792020E+03    0.26429E-05   -0.39625E-04  5639   0.190E-02    0.209E-02
RMM:   8    -0.413165782016E+03    0.10004E-04   -0.59717E-05  4983   0.855E-03    0.101E-02
RMM:   9    -0.413165780322E+03    0.16940E-05   -0.11606E-05  3792   0.388E-03    0.762E-03
RMM:  10    -0.413165780882E+03   -0.56032E-06   -0.19470E-06  2562   0.230E-03
    9 T=    61. E= -.41286684E+03 F= -.41316578E+03 E0= -.41314337E+03  EK= 0.29894E+00 SP= 0.00E+00 SK= 0.00E+00
       N       E                     dE             d eps       ncg     rms          rms(c)
RMM:   1    -0.413165303713E+03    0.47661E-03   -0.89149E+00  4295   0.648E-01    0.903E-01
RMM:   2    -0.413169682488E+03   -0.43788E-02   -0.10849E-01  4318   0.892E-02    0.645E-01
RMM:   3    -0.413172089158E+03   -0.24067E-02   -0.20688E-02  5137   0.852E-02    0.341E-01
RMM:   4    -0.413188159053E+03   -0.16070E-01   -0.37721E-02  5082   0.166E-01    0.617E-01
RMM:   5    -0.413165841059E+03    0.22318E-01   -0.82449E-03  4678   0.100E-01    0.592E-02
RMM:   6    -0.413165854426E+03   -0.13368E-04   -0.16977E-03  5425   0.411E-02    0.324E-02
RMM:   7    -0.413165861080E+03   -0.66543E-05   -0.32932E-04  5928   0.170E-02    0.190E-02
RMM:   8    -0.413165852644E+03    0.84362E-05   -0.59251E-05  5127   0.889E-03    0.770E-03
RMM:   9    -0.413165848420E+03    0.42244E-05   -0.72144E-06  3285   0.349E-03    0.399E-03
RMM:  10    -0.413165847299E+03    0.11206E-05   -0.16364E-06  2539   0.211E-03    0.252E-03
RMM:  11    -0.413165845359E+03    0.19401E-05   -0.12543E-06  2516   0.175E-03    0.142E-03
RMM:  12    -0.413165843482E+03    0.18767E-05   -0.74070E-07  2468   0.138E-03    0.591E-04
RMM:  13    -0.413165842286E+03    0.11963E-05   -0.37865E-07  2091   0.997E-04    0.312E-04
RMM:  14    -0.413165840975E+03    0.13106E-05   -0.24309E-07  1610   0.800E-04    0.206E-04
RMM:  15    -0.413165839146E+03    0.18290E-05   -0.22641E-07  1511   0.756E-04    0.156E-04
RMM:  16    -0.413165837317E+03    0.18289E-05   -0.18677E-07  1361   0.697E-04    0.142E-04
RMM:  17    -0.413165835403E+03    0.19145E-05   -0.15896E-07  1333   0.669E-04    0.765E-05
RMM:  18    -0.413165834290E+03    0.11129E-05   -0.82143E-08  1026   0.588E-04    0.404E-05
RMM:  19    -0.413165833663E+03    0.62678E-06   -0.44414E-08   849   0.547E-04
   10 T=    61. E= -.41286666E+03 F= -.41316583E+03 E0= -.41314345E+03  EK= 0.29917E+00 SP= 0.00E+00 SK= 0.00E+00
       N       E                     dE             d eps       ncg     rms          rms(c)
RMM:   1    -0.413165597025E+03    0.23726E-03   -0.88968E+00  4290   0.652E-01    0.883E-01
RMM:   2    -0.413170481779E+03   -0.48848E-02   -0.10922E-01  4217   0.882E-02    0.646E-01
RMM:   3    -0.413167361658E+03    0.31201E-02   -0.17039E-02  4927   0.525E-02    0.129E-01
RMM:   4    -0.413200414311E+03   -0.33053E-01   -0.36110E-02  5132   0.158E-01    0.760E-01
RMM:   5    -0.413166395662E+03    0.34019E-01   -0.16143E-02  4793   0.126E-01    0.516E-02
RMM:   6    -0.413166607612E+03   -0.21195E-03   -0.28153E-03  5732   0.519E-02    0.347E-02
RMM:   7    -0.413166608102E+03   -0.49088E-06   -0.47255E-04  5655   0.200E-02    0.219E-02
RMM:   8    -0.413166601543E+03    0.65590E-05   -0.66725E-05  5168   0.897E-03    0.100E-02
RMM:   9    -0.413166599891E+03    0.16524E-05   -0.13143E-05  3917   0.408E-03    0.719E-03
RMM:  10    -0.413166601460E+03   -0.15692E-05   -0.20530E-06  2584   0.227E-03    0.443E-03
RMM:  11    -0.413166602748E+03   -0.12879E-05   -0.10886E-06  2506   0.167E-03    0.254E-03
RMM:  12    -0.413166604957E+03   -0.22091E-05   -0.16880E-06  2557   0.195E-03    0.108E-03
RMM:  13    -0.413166605718E+03   -0.76052E-06   -0.64955E-07  2405   0.135E-03
   11 T=    61. E= -.41286693E+03 F= -.41316661E+03 E0= -.41314425E+03  EK= 0.29967E+00 SP= 0.00E+00 SK= 0.00E+00
       N       E                     dE             d eps       ncg     rms          rms(c)
RMM:   1    -0.413165770585E+03    0.83437E-03   -0.89636E+00  4293   0.659E-01    0.894E-01
RMM:   2    -0.413170454508E+03   -0.46839E-02   -0.10991E-01  4238   0.880E-02    0.653E-01
RMM:   3    -0.413167055499E+03    0.33990E-02   -0.17201E-02  4867   0.490E-02    0.108E-01
RMM:   4    -0.413194353558E+03   -0.27298E-01   -0.28907E-02  5128   0.141E-01    0.691E-01
RMM:   5    -0.413166389729E+03    0.27964E-01   -0.13388E-02  4796   0.114E-01    0.483E-02
RMM:   6    -0.413166578869E+03   -0.18914E-03   -0.24046E-03  5778   0.472E-02    0.323E-02
RMM:   7    -0.413166576927E+03    0.19425E-05   -0.39523E-04  5667   0.190E-02    0.208E-02
RMM:   8    -0.413166567163E+03    0.97642E-05   -0.63917E-05  5008   0.877E-03    0.102E-02
RMM:   9    -0.413166565357E+03    0.18058E-05   -0.12427E-05  3889   0.402E-03    0.761E-03
RMM:  10    -0.413166566095E+03   -0.73803E-06   -0.19434E-06  2564   0.228E-03
   12 T=    61. E= -.41286660E+03 F= -.41316657E+03 E0= -.41314424E+03  EK= 0.29996E+00 SP= 0.00E+00 SK= 0.00E+00
       N       E                     dE             d eps       ncg     rms          rms(c)
RMM:   1    -0.413166852261E+03   -0.28690E-03   -0.89511E+00  4302   0.666E-01    0.908E-01
RMM:   2    -0.413170665069E+03   -0.38128E-02   -0.10914E-01  4315   0.879E-02    0.648E-01
RMM:   3    -0.413173810056E+03   -0.31450E-02   -0.21168E-02  5134   0.863E-02    0.351E-01
RMM:   4    -0.413188863630E+03   -0.15054E-01   -0.37886E-02  5073   0.167E-01    0.608E-01
RMM:   5    -0.413167164886E+03    0.21699E-01   -0.79092E-03  4658   0.987E-02    0.590E-02
RMM:   6    -0.413167170589E+03   -0.57034E-05   -0.16455E-03  5407   0.404E-02    0.324E-02
RMM:   7    -0.413167179411E+03   -0.88216E-05   -0.32474E-04  5913   0.168E-02    0.191E-02
RMM:   8    -0.413167170615E+03    0.87960E-05   -0.58631E-05  5131   0.888E-03    0.772E-03
RMM:   9    -0.413167165326E+03    0.52886E-05   -0.72053E-06  3284   0.350E-03    0.396E-03
RMM:  10    -0.413167163614E+03    0.17125E-05   -0.15717E-06  2526   0.210E-03    0.250E-03
RMM:  11    -0.413167160679E+03    0.29345E-05   -0.12187E-06  2510   0.175E-03    0.142E-03
RMM:  12    -0.413167158111E+03    0.25688E-05   -0.69267E-07  2462   0.136E-03    0.582E-04
RMM:  13    -0.413167156403E+03    0.17071E-05   -0.36067E-07  2093   0.991E-04    0.330E-04
RMM:  14    -0.413167154820E+03    0.15833E-05   -0.21492E-07  1594   0.786E-04    0.222E-04
RMM:  15    -0.413167152082E+03    0.27382E-05   -0.22634E-07  1554   0.766E-04    0.168E-04
RMM:  16    -0.413167149641E+03    0.24405E-05   -0.16742E-07  1368   0.691E-04    0.142E-04
RMM:  17    -0.413167147312E+03    0.23297E-05   -0.13639E-07  1319   0.656E-04    0.755E-05
RMM:  18    -0.413167146037E+03    0.12750E-05   -0.71401E-08   980   0.573E-04    0.457E-05
RMM:  19    -0.413167145212E+03    0.82510E-06   -0.41454E-08   854   0.544E-04
   13 T=    61. E= -.41286668E+03 F= -.41316715E+03 E0= -.41314484E+03  EK= 0.30047E+00 SP= 0.00E+00 SK= 0.00E+00
       N       E                     dE             d eps       ncg     rms          rms(c)
RMM:   1    -0.413167283155E+03   -0.13712E-03   -0.89032E+00  4296   0.673E-01    0.886E-01
RMM:   2    -0.413171561468E+03   -0.42783E-02   -0.11021E-01  4251   0.885E-02    0.645E-01
RMM:   3    -0.413168570685E+03    0.29908E-02   -0.16781E-02  4955   0.512E-02    0.132E-01
RMM:   4    -0.413202526431E+03   -0.33956E-01   -0.37309E-02  5125   0.161E-01    0.770E-01
RMM:   5    -0.413167596367E+03    0.34930E-01   -0.16592E-02  4790   0.128E-01    0.521E-02
RMM:   6    -0.413167803070E+03   -0.20670E-03   -0.28592E-03  5726   0.525E-02    0.351E-02
RMM:   7    -0.413167796228E+03    0.68413E-05   -0.47891E-04  5655   0.202E-02    0.222E-02
RMM:   8    -0.413167788789E+03    0.74396E-05   -0.68828E-05  5187   0.912E-03    0.102E-02
RMM:   9    -0.413167785712E+03    0.30764E-05   -0.13539E-05  3979   0.414E-03    0.726E-03
RMM:  10    -0.413167785500E+03    0.21197E-06   -0.20727E-06  2579   0.227E-03
   14 T=    61. E= -.41286679E+03 F= -.41316779E+03 E0= -.41314552E+03  EK= 0.30100E+00 SP= 0.00E+00 SK= 0.00E+00
       N       E                     dE             d eps       ncg     rms          rms(c)
RMM:   1    -0.413167036895E+03    0.74882E-03   -0.89849E+00  4302   0.667E-01    0.892E-01
RMM:   2    -0.413171996669E+03   -0.49598E-02   -0.11035E-01  4326   0.887E-02    0.655E-01
RMM:   3    -0.413175274860E+03   -0.32782E-02   -0.22726E-02  5132   0.911E-02    0.368E-01
RMM:   4    -0.413190481653E+03   -0.15207E-01   -0.40307E-02  5066   0.172E-01    0.621E-01
RMM:   5    -0.413167817766E+03    0.22664E-01   -0.81986E-03  4648   0.101E-01    0.583E-02
RMM:   6    -0.413167829716E+03   -0.11950E-04   -0.16712E-03  5402   0.406E-02    0.309E-02
RMM:   7    -0.413167843970E+03   -0.14254E-04   -0.32389E-04  5935   0.165E-02    0.186E-02
RMM:   8    -0.413167841107E+03    0.28630E-05   -0.59880E-05  5122   0.890E-03    0.758E-03
RMM:   9    -0.413167839194E+03    0.19137E-05   -0.71739E-06  3251   0.355E-03    0.385E-03
RMM:  10    -0.413167840210E+03   -0.10168E-05   -0.15216E-06  2519   0.207E-03    0.243E-03
RMM:  11    -0.413167841654E+03   -0.14433E-05   -0.12629E-06  2514   0.175E-03    0.143E-03
RMM:  12    -0.413167842073E+03   -0.41928E-06   -0.67413E-07  2452   0.135E-03
   15 T=    61. E= -.41286650E+03 F= -.41316784E+03 E0= -.41314561E+03  EK= 0.30134E+00 SP= 0.00E+00 SK= 0.00E+00
       N       E                     dE             d eps       ncg     rms          rms(c)
RMM:   1    -0.413168521482E+03   -0.67983E-03   -0.89811E+00  4295   0.673E-01    0.910E-01
RMM:   2    -0.413172752813E+03   -0.42313E-02   -0.10952E-01  4267   0.894E-02    0.650E-01
RMM:   3    -0.413169694438E+03    0.30584E-02   -0.16808E-02  4958   0.523E-02    0.137E-01
RMM:   4    -0.413204298406E+03   -0.34604E-01   -0.38026E-02  5120   0.162E-01    0.777E-01
RMM:   5    -0.413168700124E+03    0.35598E-01   -0.16948E-02  4790   0.129E-01    0.527E-02
RMM:   6    -0.413168907713E+03   -0.20759E-03   -0.29223E-03  5746   0.532E-02    0.362E-02
RMM:   7    -0.413168894119E+03    0.13594E-04   -0.48957E-04  5694   0.207E-02    0.229E-02
RMM:   8    -0.413168882090E+03    0.12029E-04   -0.73244E-05  5192   0.947E-03    0.108E-02
RMM:   9    -0.413168876042E+03    0.60482E-05   -0.13938E-05  3997   0.425E-03    0.763E-03
RMM:  10    -0.413168872205E+03    0.38372E-05   -0.22074E-06  2585   0.235E-03    0.464E-03
RMM:  11    -0.413168869539E+03    0.26658E-05   -0.11563E-06  2509   0.173E-03    0.269E-03
RMM:  12    -0.413168864363E+03    0.51759E-05   -0.19094E-06  2587   0.206E-03    0.118E-03
RMM:  13    -0.413168861235E+03    0.31286E-05   -0.68406E-07  2423   0.140E-03    0.953E-04
RMM:  14    -0.413168861425E+03   -0.19021E-06   -0.26434E-07  1985   0.905E-04
   16 T=    61. E= -.41286682E+03 F= -.41316886E+03 E0= -.41314666E+03  EK= 0.30204E+00 SP= 0.00E+00 SK= 0.00E+00
       N       E                     dE             d eps       ncg     rms          rms(c)
RMM:   1    -0.413168792714E+03    0.68520E-04   -0.89231E+00  4295   0.691E-01    0.892E-01
RMM:   2    -0.413173292113E+03   -0.44994E-02   -0.10952E-01  4270   0.910E-02    0.645E-01
RMM:   3    -0.413169888658E+03    0.34035E-02   -0.16544E-02  4880   0.504E-02    0.115E-01
RMM:   4    -0.413199234167E+03   -0.29346E-01   -0.31319E-02  5127   0.147E-01    0.716E-01
RMM:   5    -0.413169174529E+03    0.30060E-01   -0.14448E-02  4795   0.119E-01    0.498E-02
RMM:   6    -0.413169365354E+03   -0.19082E-03   -0.26061E-03  5778   0.490E-02    0.338E-02
RMM:   7    -0.413169355088E+03    0.10266E-04   -0.42121E-04  5650   0.196E-02    0.214E-02
RMM:   8    -0.413169342440E+03    0.12648E-04   -0.68421E-05  5055   0.910E-03    0.106E-02
RMM:   9    -0.413169337674E+03    0.47661E-05   -0.13442E-05  3976   0.417E-03    0.786E-03
RMM:  10    -0.413169335153E+03    0.25210E-05   -0.20582E-06  2573   0.232E-03    0.476E-03
RMM:  11    -0.413169333287E+03    0.18653E-05   -0.12222E-06  2507   0.180E-03    0.268E-03
RMM:  12    -0.413169329932E+03    0.33558E-05   -0.17999E-06  2572   0.204E-03    0.113E-03
RMM:  13    -0.413169328002E+03    0.19297E-05   -0.57891E-07  2379   0.134E-03    0.811E-04
RMM:  14    -0.413169328028E+03   -0.26237E-07   -0.24875E-07  1940   0.872E-04
   17 T=    62. E= -.41286671E+03 F= -.41316933E+03 E0= -.41314717E+03  EK= 0.30261E+00 SP= 0.00E+00 SK= 0.00E+00
       N       E                     dE             d eps       ncg     rms          rms(c)
RMM:   1    -0.413168974547E+03    0.35346E-03   -0.90060E+00  4298   0.679E-01    0.890E-01
RMM:   2    -0.413173930793E+03   -0.49562E-02   -0.11112E-01  4270   0.904E-02    0.655E-01
RMM:   3    -0.413170443958E+03    0.34868E-02   -0.17691E-02  4883   0.516E-02    0.115E-01
RMM:   4    -0.413200240673E+03   -0.29797E-01   -0.32002E-02  5121   0.149E-01    0.722E-01
RMM:   5    -0.413169671346E+03    0.30569E-01   -0.14752E-02  4792   0.120E-01    0.493E-02
RMM:   6    -0.413169855810E+03   -0.18446E-03   -0.25377E-03  5765   0.492E-02    0.330E-02
RMM:   7    -0.413169854843E+03    0.96643E-06   -0.42354E-04  5645   0.195E-02    0.211E-02
RMM:   8    -0.413169846029E+03    0.88149E-05   -0.66809E-05  5074   0.903E-03    0.101E-02
RMM:   9    -0.413169843319E+03    0.27101E-05   -0.13188E-05  3928   0.413E-03    0.743E-03
RMM:  10    -0.413169843596E+03   -0.27726E-06   -0.19625E-06  2561   0.226E-03
   18 T=    62. E= -.41286660E+03 F= -.41316984E+03 E0= -.41314773E+03  EK= 0.30324E+00 SP= 0.00E+00 SK= 0.00E+00
       N       E                     dE             d eps       ncg     rms          rms(c)
RMM:   1    -0.413172131943E+03   -0.22886E-02   -0.90327E+00  4303   0.716E-01    0.910E-01
RMM:   2    -0.413174768239E+03   -0.26363E-02   -0.11072E-01  4335   0.907E-02    0.654E-01
RMM:   3    -0.413177549597E+03   -0.27814E-02   -0.21430E-02  5127   0.868E-02    0.347E-01
RMM:   4    -0.413194111147E+03   -0.16562E-01   -0.39473E-02  5068   0.170E-01    0.627E-01
RMM:   5    -0.413170998457E+03    0.23113E-01   -0.85505E-03  4663   0.102E-01    0.587E-02
RMM:   6    -0.413171017300E+03   -0.18843E-04   -0.17684E-03  5419   0.417E-02    0.324E-02
RMM:   7    -0.413171020093E+03   -0.27934E-05   -0.33431E-04  5911   0.169E-02    0.193E-02
RMM:   8    -0.413171009694E+03    0.10399E-04   -0.60291E-05  5110   0.909E-03    0.785E-03
RMM:   9    -0.413171003508E+03    0.61855E-05   -0.75126E-06  3288   0.359E-03    0.404E-03
RMM:  10    -0.413171001155E+03    0.23540E-05   -0.16272E-06  2527   0.211E-03    0.257E-03
RMM:  11    -0.413170997451E+03    0.37034E-05   -0.11477E-06  2502   0.173E-03    0.142E-03
RMM:  12    -0.413170993989E+03    0.34623E-05   -0.66521E-07  2451   0.135E-03    0.557E-04
RMM:  13    -0.413170991841E+03    0.21475E-05   -0.33791E-07  2068   0.980E-04    0.319E-04
RMM:  14    -0.413170989918E+03    0.19233E-05   -0.19228E-07  1573   0.772E-04    0.217E-04
RMM:  15    -0.413170986389E+03    0.35285E-05   -0.17816E-07  1425   0.737E-04    0.157E-04
RMM:  16    -0.413170983664E+03    0.27254E-05   -0.12149E-07  1267   0.668E-04    0.139E-04
RMM:  17    -0.413170980554E+03    0.31098E-05   -0.11266E-07  1268   0.653E-04    0.735E-05
RMM:  18    -0.413170978742E+03    0.18122E-05   -0.63662E-08  1019   0.586E-04    0.372E-05
RMM:  19    -0.413170977766E+03    0.97621E-06   -0.34899E-08   842   0.548E-04
   19 T=    62. E= -.41286684E+03 F= -.41317098E+03 E0= -.41314890E+03  EK= 0.30414E+00 SP= 0.00E+00 SK= 0.00E+00
       N       E                     dE             d eps       ncg     rms          rms(c)
RMM:   1    -0.413170812400E+03    0.16634E-03   -0.89684E+00  4297   0.690E-01    0.899E-01
RMM:   2    -0.413174992240E+03   -0.41798E-02   -0.11019E-01  4270   0.888E-02    0.648E-01
RMM:   3    -0.413172311139E+03    0.26811E-02   -0.16804E-02  4974   0.521E-02    0.141E-01
RMM:   4    -0.413207794408E+03   -0.35483E-01   -0.39602E-02  5120   0.165E-01    0.786E-01
RMM:   5    -0.413171238353E+03    0.36556E-01   -0.17427E-02  4781   0.131E-01    0.535E-02
RMM:   6    -0.413171436226E+03   -0.19787E-03   -0.30110E-03  5725   0.543E-02    0.362E-02
RMM:   7    -0.413171425229E+03    0.10997E-04   -0.50358E-04  5660   0.207E-02    0.230E-02
RMM:   8    -0.413171412813E+03    0.12416E-04   -0.75643E-05  5215   0.961E-03    0.108E-02
RMM:   9    -0.413171406635E+03    0.61780E-05   -0.14674E-05  4070   0.433E-03    0.752E-03
RMM:  10    -0.413171403085E+03    0.35498E-05   -0.22232E-06  2584   0.233E-03    0.464E-03
RMM:  11    -0.413171400880E+03    0.22050E-05   -0.10873E-06  2502   0.168E-03    0.275E-03
RMM:  12    -0.413171396403E+03    0.44772E-05   -0.17122E-06  2551   0.202E-03    0.117E-03
RMM:  13    -0.413171393835E+03    0.25682E-05   -0.68954E-07  2413   0.141E-03    0.947E-04
RMM:  14    -0.413171393842E+03   -0.68321E-08   -0.27408E-07  2007   0.921E-04
   20 T=    62. E= -.41286655E+03 F= -.41317139E+03 E0= -.41314936E+03  EK= 0.30485E+00 SP= 0.00E+00 SK= 0.00E+00
       N       E                     dE             d eps       ncg     rms          rms(c)
RMM:   1    -0.413171674758E+03   -0.28092E-03   -0.90301E+00  4296   0.692E-01    0.891E-01
RMM:   2    -0.413176569303E+03   -0.48945E-02   -0.11174E-01  4284   0.895E-02    0.656E-01
RMM:   3    -0.413173051800E+03    0.35175E-02   -0.17689E-02  4887   0.500E-02    0.112E-01
RMM:   4    -0.413201798497E+03   -0.28747E-01   -0.30779E-02  5124   0.146E-01    0.709E-01
RMM:   5    -0.413172331782E+03    0.29467E-01   -0.14228E-02  4786   0.118E-01    0.490E-02
RMM:   6    -0.413172508497E+03   -0.17671E-03   -0.25341E-03  5783   0.487E-02    0.320E-02
RMM:   7    -0.413172512333E+03   -0.38357E-05   -0.39118E-04  5651   0.190E-02    0.204E-02
RMM:   8    -0.413172503388E+03    0.89449E-05   -0.70432E-05  5042   0.903E-03    0.106E-02
RMM:   9    -0.413172499577E+03    0.38105E-05   -0.13473E-05  4021   0.422E-03    0.780E-03
RMM:  10    -0.413172498930E+03    0.64775E-06   -0.19652E-06  2567   0.227E-03
   21 T=    62. E= -.41286668E+03 F= -.41317250E+03 E0= -.41315051E+03  EK= 0.30582E+00 SP= 0.00E+00 SK= 0.00E+00
       N       E                     dE             d eps       ncg     rms          rms(c)
RMM:   1    -0.413173295150E+03   -0.79557E-03   -0.90665E+00  4301   0.704E-01    0.908E-01
RMM:   2    -0.413177672423E+03   -0.43773E-02   -0.11169E-01  4334   0.911E-02    0.658E-01
RMM:   3    -0.413180285277E+03   -0.26129E-02   -0.21800E-02  5127   0.872E-02    0.350E-01
RMM:   4    -0.413197539950E+03   -0.17255E-01   -0.40757E-02  5075   0.172E-01    0.637E-01
RMM:   5    -0.413173614792E+03    0.23925E-01   -0.88808E-03  4658   0.104E-01    0.581E-02
RMM:   6    -0.413173644216E+03   -0.29425E-04   -0.18353E-03  5445   0.424E-02    0.322E-02
RMM:   7    -0.413173647747E+03   -0.35304E-05   -0.33793E-04  5886   0.170E-02    0.194E-02
RMM:   8    -0.413173640699E+03    0.70473E-05   -0.60858E-05  5117   0.901E-03    0.790E-03
RMM:   9    -0.413173635026E+03    0.56729E-05   -0.77509E-06  3327   0.357E-03    0.410E-03
RMM:  10    -0.413173632854E+03    0.21726E-05   -0.16478E-06  2532   0.210E-03    0.262E-03
RMM:  11    -0.413173629448E+03    0.34060E-05   -0.10955E-06  2490   0.170E-03    0.142E-03
RMM:  12    -0.413173626036E+03    0.34114E-05   -0.66783E-07  2449   0.134E-03    0.532E-04
RMM:  13    -0.413173623992E+03    0.20440E-05   -0.33040E-07  2070   0.971E-04    0.311E-04
RMM:  14    -0.413173622112E+03    0.18802E-05   -0.18556E-07  1576   0.762E-04    0.210E-04
RMM:  15    -0.413173618778E+03    0.33341E-05   -0.15390E-07  1346   0.712E-04    0.146E-04
RMM:  16    -0.413173616052E+03    0.27261E-05   -0.10931E-07  1234   0.660E-04    0.144E-04
RMM:  17    -0.413173613076E+03    0.29760E-05   -0.94141E-08  1195   0.637E-04    0.745E-05
RMM:  18    -0.413173610835E+03    0.22413E-05   -0.60106E-08  1007   0.593E-04    0.357E-05
RMM:  19    -0.413173609822E+03    0.10128E-05   -0.31483E-08   830   0.556E-04    0.261E-05
RMM:  20    -0.413173609409E+03    0.41339E-06   -0.16869E-08   741   0.540E-04
   22 T=    62. E= -.41286679E+03 F= -.41317361E+03 E0= -.41315167E+03  EK= 0.30682E+00 SP= 0.00E+00 SK= 0.00E+00
       N       E                     dE             d eps       ncg     rms          rms(c)
RMM:   1    -0.413174009994E+03   -0.40017E-03   -0.90391E+00  4294   0.707E-01    0.909E-01
RMM:   2    -0.413178321613E+03   -0.43116E-02   -0.11104E-01  4285   0.909E-02    0.652E-01
RMM:   3    -0.413175086896E+03    0.32347E-02   -0.16852E-02  4920   0.528E-02    0.135E-01
RMM:   4    -0.413209627436E+03   -0.34541E-01   -0.37886E-02  5121   0.162E-01    0.775E-01
RMM:   5    -0.413174145284E+03    0.35482E-01   -0.17032E-02  4782   0.129E-01    0.528E-02
RMM:   6    -0.413174341279E+03   -0.19599E-03   -0.30027E-03  5746   0.534E-02    0.362E-02
RMM:   7    -0.413174330125E+03    0.11154E-04   -0.48810E-04  5645   0.209E-02    0.230E-02
RMM:   8    -0.413174316628E+03    0.13498E-04   -0.77437E-05  5171   0.971E-03    0.112E-02
RMM:   9    -0.413174309609E+03    0.70185E-05   -0.14630E-05  4094   0.439E-03    0.794E-03
RMM:  10    -0.413174305001E+03    0.46082E-05   -0.22571E-06  2592   0.238E-03    0.487E-03
RMM:  11    -0.413174301817E+03    0.31836E-05   -0.12030E-06  2511   0.177E-03    0.283E-03
RMM:  12    -0.413174295761E+03    0.60563E-05   -0.18695E-06  2567   0.211E-03    0.119E-03
RMM:  13    -0.413174292338E+03    0.34230E-05   -0.67611E-07  2403   0.143E-03    0.958E-04
RMM:  14    -0.413174292542E+03   -0.20443E-06   -0.28026E-07  2023   0.925E-04
   23 T=    63. E= -.41286659E+03 F= -.41317429E+03 E0= -.41315240E+03  EK= 0.30770E+00 SP= 0.00E+00 SK= 0.00E+00
       N       E                     dE             d eps       ncg     rms          rms(c)
RMM:   1    -0.413175114133E+03   -0.82179E-03   -0.90617E+00  4295   0.710E-01    0.893E-01
RMM:   2    -0.413180308071E+03   -0.51939E-02   -0.11225E-01  4288   0.932E-02    0.656E-01
RMM:   3    -0.413176219274E+03    0.40888E-02   -0.17420E-02  4783   0.504E-02    0.966E-02
RMM:   4    -0.413198922910E+03   -0.22704E-01   -0.23614E-02  5125   0.128E-01    0.631E-01
RMM:   5    -0.413175736506E+03    0.23186E-01   -0.11387E-02  4800   0.105E-01    0.464E-02
RMM:   6    -0.413175860267E+03   -0.12376E-03   -0.19861E-03  5808   0.425E-02    0.287E-02
RMM:   7    -0.413175856335E+03    0.39323E-05   -0.24283E-04  5612   0.160E-02    0.147E-02
RMM:   8    -0.413175852085E+03    0.42495E-05   -0.48869E-05  4965   0.726E-03    0.990E-03
RMM:   9    -0.413175847818E+03    0.42676E-05   -0.10381E-05  3783   0.368E-03    0.740E-03
RMM:  10    -0.413175846421E+03    0.13967E-05   -0.17180E-06  2546   0.221E-03    0.450E-03
RMM:  11    -0.413175844804E+03    0.16172E-05   -0.17180E-06  2544   0.205E-03    0.226E-03
RMM:  12    -0.413175842386E+03    0.24173E-05   -0.13152E-06  2495   0.182E-03    0.948E-04
RMM:  13    -0.413175841561E+03    0.82528E-06   -0.43276E-07  2260   0.116E-03
   24 T=    63. E= -.41286692E+03 F= -.41317584E+03 E0= -.41315399E+03  EK= 0.30892E+00 SP= 0.00E+00 SK= 0.00E+00
       N       E                     dE             d eps       ncg     rms          rms(c)
RMM:   1    -0.413176461744E+03   -0.61936E-03   -0.91307E+00  4297   0.718E-01    0.907E-01
RMM:   2    -0.413181142830E+03   -0.46811E-02   -0.11299E-01  4284   0.947E-02    0.662E-01
RMM:   3    -0.413177125253E+03    0.40176E-02   -0.17436E-02  4713   0.508E-02    0.899E-02
RMM:   4    -0.413196365226E+03   -0.19240E-01   -0.19772E-02  5134   0.117E-01    0.582E-01
RMM:   5    -0.413176747356E+03    0.19618E-01   -0.96670E-03  4803   0.963E-02    0.452E-02
RMM:   6    -0.413176849698E+03   -0.10234E-03   -0.17135E-03  5821   0.390E-02    0.276E-02
RMM:   7    -0.413176846133E+03    0.35651E-05   -0.20034E-04  5593   0.147E-02    0.136E-02
RMM:   8    -0.413176841727E+03    0.44055E-05   -0.39232E-05  4871   0.656E-03    0.937E-03
RMM:   9    -0.413176837590E+03    0.41366E-05   -0.83182E-06  3478   0.336E-03    0.703E-03
RMM:  10    -0.413176835476E+03    0.21141E-05   -0.15071E-06  2524   0.214E-03    0.425E-03
RMM:  11    -0.413176832335E+03    0.31417E-05   -0.18900E-06  2560   0.215E-03    0.208E-03
RMM:  12    -0.413176828765E+03    0.35694E-05   -0.11007E-06  2482   0.170E-03    0.940E-04
RMM:  13    -0.413176827892E+03    0.87370E-06   -0.37474E-07  2205   0.108E-03
   25 T=    63. E= -.41286670E+03 F= -.41317683E+03 E0= -.41315503E+03  EK= 0.31013E+00 SP= 0.00E+00 SK= 0.00E+00
       N       E                     dE             d eps       ncg     rms          rms(c)
RMM:   1    -0.413178491240E+03   -0.16625E-02   -0.91352E+00  4294   0.726E-01    0.918E-01
RMM:   2    -0.413182052641E+03   -0.35614E-02   -0.11289E-01  4284   0.968E-02    0.657E-01
RMM:   3    -0.413178373688E+03    0.36790E-02   -0.16727E-02  4667   0.484E-02    0.903E-02
RMM:   4    -0.413194500149E+03   -0.16126E-01   -0.16492E-02  5139   0.107E-01    0.534E-01
RMM:   5    -0.413178105759E+03    0.16394E-01   -0.82297E-03  4815   0.882E-02    0.450E-02
RMM:   6    -0.413178172880E+03   -0.67121E-04   -0.14606E-03  5814   0.357E-02    0.266E-02
RMM:   7    -0.413178164192E+03    0.86877E-05   -0.16015E-04  5477   0.137E-02    0.122E-02
RMM:   8    -0.413178155983E+03    0.82089E-05   -0.25886E-05  4504   0.533E-03    0.823E-03
RMM:   9    -0.413178153057E+03    0.29259E-05   -0.65708E-06  3261   0.303E-03    0.626E-03
RMM:  10    -0.413178148651E+03    0.44066E-05   -0.12905E-06  2525   0.199E-03    0.385E-03
RMM:  11    -0.413178141301E+03    0.73499E-05   -0.19070E-06  2564   0.216E-03    0.198E-03
RMM:  12    -0.413178135502E+03    0.57986E-05   -0.87253E-07  2443   0.157E-03    0.971E-04
RMM:  13    -0.413178134155E+03    0.13473E-05   -0.32079E-07  2151   0.997E-04    0.570E-04
RMM:  14    -0.413178132830E+03    0.13245E-05   -0.14978E-07  1550   0.734E-04    0.434E-04
RMM:  15    -0.413178127330E+03    0.54999E-05   -0.25827E-07  2288   0.891E-04    0.634E-04
RMM:  16    -0.413178125672E+03    0.16585E-05   -0.66769E-08  1127   0.599E-04    0.435E-04
RMM:  17    -0.413178122392E+03    0.32795E-05   -0.47123E-08   893   0.570E-04    0.291E-04
RMM:  18    -0.413178119569E+03    0.28236E-05   -0.58845E-08  1154   0.611E-04    0.502E-05
RMM:  19    -0.413178117216E+03    0.23532E-05   -0.48110E-08  1147   0.591E-04    0.225E-04
RMM:  20    -0.413178117079E+03    0.13661E-06   -0.11740E-08   692   0.504E-04
   26 T=    63. E= -.41286658E+03 F= -.41317812E+03 E0= -.41315637E+03  EK= 0.31153E+00 SP= 0.00E+00 SK= 0.00E+00
       N       E                     dE             d eps       ncg     rms          rms(c)
RMM:   1    -0.413179528024E+03   -0.14108E-02   -0.91205E+00  4291   0.735E-01    0.898E-01
RMM:   2    -0.413183992775E+03   -0.44648E-02   -0.11385E-01  4283   0.997E-02    0.657E-01
RMM:   3    -0.413180397092E+03    0.35957E-02   -0.17363E-02  4785   0.535E-02    0.103E-01
RMM:   4    -0.413205680703E+03   -0.25284E-01   -0.26353E-02  5129   0.135E-01    0.665E-01
RMM:   5    -0.413179860688E+03    0.25820E-01   -0.12715E-02  4799   0.110E-01    0.478E-02
RMM:   6    -0.413180002853E+03   -0.14217E-03   -0.22074E-03  5819   0.445E-02    0.312E-02
RMM:   7    -0.413180004357E+03   -0.15037E-05   -0.32787E-04  5627   0.181E-02    0.185E-02
RMM:   8    -0.413179996215E+03    0.81414E-05   -0.64584E-05  4991   0.867E-03    0.105E-02
RMM:   9    -0.413179991087E+03    0.51282E-05   -0.12324E-05  3962   0.412E-03    0.764E-03
RMM:  10    -0.413179989045E+03    0.20420E-05   -0.18691E-06  2550   0.228E-03    0.458E-03
RMM:  11    -0.413179987143E+03    0.19021E-05   -0.14411E-06  2519   0.193E-03    0.238E-03
RMM:  12    -0.413179984419E+03    0.27239E-05   -0.14723E-06  2519   0.189E-03    0.101E-03
RMM:  13    -0.413179983214E+03    0.12056E-05   -0.47974E-07  2313   0.123E-03    0.627E-04
RMM:  14    -0.413179982858E+03    0.35518E-06   -0.22369E-07  1823   0.834E-04
   27 T=    64. E= -.41286684E+03 F= -.41317998E+03 E0= -.41315828E+03  EK= 0.31314E+00 SP= 0.00E+00 SK= 0.00E+00
       N       E                     dE             d eps       ncg     rms          rms(c)
RMM:   1    -0.413180785372E+03   -0.80216E-03   -0.92241E+00  4291   0.739E-01    0.909E-01
RMM:   2    -0.413185260529E+03   -0.44752E-02   -0.11504E-01  4278   0.101E-01    0.667E-01
RMM:   3    -0.413181367077E+03    0.38935E-02   -0.18073E-02  4679   0.532E-02    0.874E-02
RMM:   4    -0.413199521898E+03   -0.18155E-01   -0.18587E-02  5139   0.114E-01    0.566E-01
RMM:   5    -0.413181013317E+03    0.18509E-01   -0.92343E-03  4812   0.933E-02    0.449E-02
RMM:   6    -0.413181108283E+03   -0.94966E-04   -0.16363E-03  5837   0.378E-02    0.281E-02
RMM:   7    -0.413181105738E+03    0.25451E-05   -0.21055E-04  5562   0.152E-02    0.143E-02
RMM:   8    -0.413181101652E+03    0.40854E-05   -0.39396E-05  4867   0.673E-03    0.934E-03
RMM:   9    -0.413181097675E+03    0.39771E-05   -0.82267E-06  3496   0.338E-03    0.693E-03
RMM:  10    -0.413181096005E+03    0.16701E-05   -0.15349E-06  2521   0.216E-03    0.402E-03
RMM:  11    -0.413181093816E+03    0.21889E-05   -0.16257E-06  2538   0.201E-03    0.197E-03
RMM:  12    -0.413181091114E+03    0.27020E-05   -0.10800E-06  2474   0.167E-03    0.912E-04
RMM:  13    -0.413181090180E+03    0.93367E-06   -0.38131E-07  2202   0.109E-03
   28 T=    64. E= -.41286652E+03 F= -.41318109E+03 E0= -.41315944E+03  EK= 0.31457E+00 SP= 0.00E+00 SK= 0.00E+00
       N       E                     dE             d eps       ncg     rms          rms(c)
RMM:   1    -0.413183894478E+03   -0.28034E-02   -0.92434E+00  4290   0.763E-01    0.926E-01
RMM:   2    -0.413187185737E+03   -0.32913E-02   -0.11495E-01  4277   0.103E-01    0.663E-01
RMM:   3    -0.413183200856E+03    0.39849E-02   -0.17110E-02  4458   0.483E-02    0.766E-02
RMM:   4    -0.413189084425E+03   -0.58836E-02   -0.60809E-03  5141   0.653E-02    0.325E-01
RMM:   5    -0.413183140653E+03    0.59438E-02   -0.30900E-03  4832   0.537E-02    0.421E-02
RMM:   6    -0.413183172501E+03   -0.31848E-04   -0.76284E-04  5710   0.259E-02    0.288E-02
RMM:   7    -0.413183148197E+03    0.24304E-04   -0.24872E-04  5240   0.163E-02    0.174E-02
RMM:   8    -0.413183135034E+03    0.13163E-04   -0.19255E-05  4132   0.566E-03    0.713E-03
RMM:   9    -0.413183131741E+03    0.32927E-05   -0.30643E-06  2697   0.235E-03    0.472E-03
RMM:  10    -0.413183126372E+03    0.53694E-05   -0.13233E-06  2489   0.188E-03    0.253E-03
RMM:  11    -0.413183120838E+03    0.55339E-05   -0.82172E-07  2427   0.148E-03    0.117E-03
RMM:  12    -0.413183115945E+03    0.48934E-05   -0.46892E-07  2217   0.113E-03    0.482E-04
RMM:  13    -0.413183112773E+03    0.31716E-05   -0.26761E-07  1856   0.865E-04    0.288E-04
RMM:  14    -0.413183108764E+03    0.40095E-05   -0.15057E-07  1367   0.719E-04    0.182E-04
RMM:  15    -0.413183103480E+03    0.52838E-05   -0.12009E-07  1309   0.684E-04    0.927E-05
RMM:  16    -0.413183100854E+03    0.26255E-05   -0.68259E-08  1077   0.614E-04    0.743E-05
RMM:  17    -0.413183096000E+03    0.48546E-05   -0.85793E-08  1291   0.638E-04    0.405E-05
RMM:  18    -0.413183094934E+03    0.10663E-05   -0.32086E-08   847   0.545E-04    0.246E-05
RMM:  19    -0.413183094325E+03    0.60819E-06   -0.19071E-08   746   0.525E-04
   29 T=    64. E= -.41286676E+03 F= -.41318309E+03 E0= -.41316150E+03  EK= 0.31634E+00 SP= 0.00E+00 SK= 0.00E+00
       N       E                     dE             d eps       ncg     rms          rms(c)
RMM:   1    -0.413186601365E+03   -0.35064E-02   -0.92256E+00  4286   0.795E-01    0.907E-01
RMM:   2    -0.413189452574E+03   -0.28512E-02   -0.11771E-01  4275   0.113E-01    0.661E-01
RMM:   3    -0.413185167728E+03    0.42848E-02   -0.17146E-02  4583   0.553E-02    0.840E-02
RMM:   4    -0.413198846141E+03   -0.13678E-01   -0.13862E-02  5136   0.985E-02    0.492E-01
RMM:   5    -0.413184963675E+03    0.13882E-01   -0.70213E-03  4822   0.809E-02    0.436E-02
RMM:   6    -0.413185020996E+03   -0.57321E-04   -0.12639E-03  5844   0.330E-02    0.268E-02
RMM:   7    -0.413185024593E+03   -0.35967E-05   -0.21404E-04  5487   0.151E-02    0.162E-02
RMM:   8    -0.413185010406E+03    0.14186E-04   -0.33960E-05  4745   0.660E-03    0.839E-03
RMM:   9    -0.413185008747E+03    0.16597E-05   -0.68188E-06  3224   0.321E-03    0.628E-03
RMM:  10    -0.413185005539E+03    0.32077E-05   -0.15017E-06  2502   0.211E-03    0.345E-03
RMM:  11    -0.413185002565E+03    0.29738E-05   -0.10649E-06  2497   0.169E-03    0.181E-03
RMM:  12    -0.413184999123E+03    0.34416E-05   -0.83135E-07  2456   0.146E-03    0.977E-04
RMM:  13    -0.413184997604E+03    0.15199E-05   -0.32696E-07  2147   0.101E-03    0.445E-04
RMM:  14    -0.413184996474E+03    0.11292E-05   -0.16066E-07  1532   0.738E-04    0.307E-04
RMM:  15    -0.413184993911E+03    0.25638E-05   -0.11747E-07  1435   0.699E-04    0.133E-04
RMM:  16    -0.413184991482E+03    0.24290E-05   -0.76308E-08  1171   0.637E-04    0.144E-04
RMM:  17    -0.413184989943E+03    0.15386E-05   -0.39361E-08   873   0.575E-04    0.957E-05
RMM:  18    -0.413184986418E+03    0.35252E-05   -0.56074E-08  1014   0.603E-04    0.420E-05
RMM:  19    -0.413184985761E+03    0.65630E-06   -0.18961E-08   736   0.547E-04
   30 T=    65. E= -.41286679E+03 F= -.41318499E+03 E0= -.41316344E+03  EK= 0.31820E+00 SP= 0.00E+00 SK= 0.00E+00
       N       E                     dE             d eps       ncg     rms          rms(c)
RMM:   1    -0.413186242741E+03   -0.12563E-02   -0.93277E+00  4292   0.761E-01    0.912E-01
RMM:   2    -0.413191604437E+03   -0.53617E-02   -0.11752E-01  4277   0.111E-01    0.672E-01
RMM:   3    -0.413186932203E+03    0.46722E-02   -0.18694E-02  4593   0.614E-02    0.833E-02
RMM:   4    -0.413202984321E+03   -0.16052E-01   -0.16238E-02  5134   0.107E-01    0.533E-01
RMM:   5    -0.413186629357E+03    0.16355E-01   -0.82165E-03  4815   0.876E-02    0.442E-02
RMM:   6    -0.413186704921E+03   -0.75564E-04   -0.14503E-03  5844   0.354E-02    0.271E-02
RMM:   7    -0.413186711222E+03   -0.63014E-05   -0.20272E-04  5528   0.149E-02    0.147E-02
RMM:   8    -0.413186701637E+03    0.95856E-05   -0.34117E-05  4744   0.635E-03    0.849E-03
RMM:   9    -0.413186701273E+03    0.36393E-06   -0.81225E-06  3491   0.337E-03
   31 T=    65. E= -.41286655E+03 F= -.41318670E+03 E0= -.41316520E+03  EK= 0.32016E+00 SP= 0.00E+00 SK= 0.00E+00
       N       E                     dE             d eps       ncg     rms          rms(c)
RMM:   1    -0.413192415905E+03   -0.57143E-02   -0.93935E+00  4297   0.818E-01    0.933E-01
RMM:   2    -0.413193828569E+03   -0.14127E-02   -0.12144E-01  4311   0.119E-01    0.671E-01
RMM:   3    -0.413193540622E+03    0.28795E-03   -0.20312E-02  5030   0.890E-02    0.285E-01
RMM:   4    -0.413222659970E+03   -0.29119E-01   -0.45605E-02  5074   0.181E-01    0.751E-01
RMM:   5    -0.413189184302E+03    0.33476E-01   -0.13878E-02  4727   0.122E-01    0.584E-02
RMM:   6    -0.413189303581E+03   -0.11928E-03   -0.27459E-03  5711   0.501E-02    0.357E-02
RMM:   7    -0.413189305232E+03   -0.16510E-05   -0.45507E-04  5760   0.196E-02    0.230E-02
RMM:   8    -0.413189296120E+03    0.91116E-05   -0.83270E-05  5150   0.103E-02    0.103E-02
RMM:   9    -0.413189286915E+03    0.92054E-05   -0.12290E-05  3868   0.437E-03    0.530E-03
RMM:  10    -0.413189281836E+03    0.50792E-05   -0.26020E-06  2642   0.242E-03    0.344E-03
RMM:  11    -0.413189276597E+03    0.52389E-05   -0.11730E-06  2498   0.179E-03    0.179E-03
RMM:  12    -0.413189269136E+03    0.74604E-05   -0.94013E-07  2469   0.157E-03    0.634E-04
RMM:  13    -0.413189265505E+03    0.36316E-05   -0.47084E-07  2283   0.115E-03    0.399E-04
RMM:  14    -0.413189263507E+03    0.19972E-05   -0.24729E-07  1838   0.854E-04    0.307E-04
RMM:  15    -0.413189258495E+03    0.50123E-05   -0.16911E-07  1542   0.754E-04    0.189E-04
RMM:  16    -0.413189254113E+03    0.43818E-05   -0.11277E-07  1268   0.673E-04    0.201E-04
RMM:  17    -0.413189249981E+03    0.41324E-05   -0.86388E-08  1148   0.634E-04    0.132E-04
RMM:  18    -0.413189247544E+03    0.24370E-05   -0.58275E-08  1040   0.603E-04    0.556E-05
RMM:  19    -0.413189244611E+03    0.29334E-05   -0.57044E-08  1169   0.610E-04    0.396E-05
RMM:  20    -0.413189244335E+03    0.27574E-06   -0.22451E-08   767   0.537E-04
   32 T=    66. E= -.41286675E+03 F= -.41318924E+03 E0= -.41316780E+03  EK= 0.32249E+00 SP= 0.00E+00 SK= 0.00E+00
       N       E                     dE             d eps       ncg     rms          rms(c)
RMM:   1    -0.413193706981E+03   -0.44624E-02   -0.93675E+00  4298   0.830E-01    0.920E-01
RMM:   2    -0.413195502744E+03   -0.17958E-02   -0.12204E-01  4283   0.121E-01    0.667E-01
RMM:   3    -0.413191236647E+03    0.42661E-02   -0.17385E-02  4369   0.643E-02    0.745E-02
RMM:   4    -0.413194746063E+03   -0.35094E-02   -0.37738E-03  5150   0.517E-02    0.252E-01
RMM:   5    -0.413191215355E+03    0.35307E-02   -0.18630E-03  4827   0.420E-02    0.417E-02
RMM:   6    -0.413191249966E+03   -0.34611E-04   -0.62406E-04  5617   0.240E-02    0.312E-02
RMM:   7    -0.413191212665E+03    0.37301E-04   -0.24523E-04  5107   0.162E-02    0.176E-02
RMM:   8    -0.413191203624E+03    0.90412E-05   -0.25209E-05  4538   0.576E-03    0.681E-03
RMM:   9    -0.413191201566E+03    0.20580E-05   -0.28103E-06  2620   0.226E-03    0.423E-03
RMM:  10    -0.413191197221E+03    0.43447E-05   -0.10156E-06  2486   0.166E-03    0.229E-03
RMM:  11    -0.413191193039E+03    0.41826E-05   -0.69285E-07  2400   0.129E-03    0.955E-04
RMM:  12    -0.413191189403E+03    0.36355E-05   -0.36129E-07  2089   0.985E-04    0.407E-04
RMM:  13    -0.413191186427E+03    0.29764E-05   -0.19852E-07  1618   0.783E-04    0.245E-04
RMM:  14    -0.413191183486E+03    0.29410E-05   -0.10196E-07  1122   0.664E-04    0.171E-04
RMM:  15    -0.413191179311E+03    0.41752E-05   -0.85283E-08  1118   0.650E-04    0.784E-05
RMM:  16    -0.413191176597E+03    0.27131E-05   -0.58942E-08  1049   0.616E-04    0.796E-05
RMM:  17    -0.413191173766E+03    0.28311E-05   -0.45755E-08  1001   0.592E-04    0.428E-05
RMM:  18    -0.413191171627E+03    0.21394E-05   -0.34848E-08   940   0.568E-04    0.320E-05
RMM:  19    -0.413191171040E+03    0.58730E-06   -0.14606E-08   694   0.525E-04
   33 T=    66. E= -.41286653E+03 F= -.41319117E+03 E0= -.41316977E+03  EK= 0.32464E+00 SP= 0.00E+00 SK= 0.00E+00
       N       E                     dE             d eps       ncg     rms          rms(c)
RMM:   1    -0.413193940020E+03   -0.27684E-02   -0.94595E+00  4301   0.813E-01    0.917E-01
RMM:   2    -0.413198013881E+03   -0.40739E-02   -0.12164E-01  4277   0.123E-01    0.678E-01
RMM:   3    -0.413193585934E+03    0.44279E-02   -0.18962E-02  4341   0.694E-02    0.618E-02
RMM:   4    -0.413196295564E+03   -0.27096E-02   -0.29045E-03  5149   0.457E-02    0.223E-01
RMM:   5    -0.413193546660E+03    0.27489E-02   -0.14579E-03  4829   0.373E-02    0.407E-02
RMM:   6    -0.413193583416E+03   -0.36756E-04   -0.57331E-04  5561   0.227E-02    0.300E-02
RMM:   7    -0.413193554999E+03    0.28417E-04   -0.23030E-04  5077   0.157E-02    0.187E-02
RMM:   8    -0.413193545971E+03    0.90283E-05   -0.24826E-05  4357   0.551E-03    0.672E-03
RMM:   9    -0.413193545048E+03    0.92291E-06   -0.26609E-06  2578   0.222E-03
   34 T=    67. E= -.41286656E+03 F= -.41319355E+03 E0= -.41317219E+03  EK= 0.32699E+00 SP= 0.00E+00 SK= 0.00E+00
       N       E                     dE             d eps       ncg     rms          rms(c)
RMM:   1    -0.413206638668E+03   -0.13093E-01   -0.96112E+00  4302   0.919E-01    0.938E-01
RMM:   2    -0.413200354234E+03    0.62844E-02   -0.13608E-01  4282   0.134E-01    0.681E-01
RMM:   3    -0.413196453343E+03    0.39009E-02   -0.17145E-02  4565   0.719E-02    0.104E-01
RMM:   4    -0.413215321704E+03   -0.18868E-01   -0.19111E-02  5145   0.116E-01    0.576E-01
RMM:   5    -0.413196204033E+03    0.19118E-01   -0.95870E-03  4816   0.949E-02    0.470E-02
RMM:   6    -0.413196290337E+03   -0.86303E-04   -0.17135E-03  5838   0.390E-02    0.324E-02
RMM:   7    -0.413196290926E+03   -0.58897E-06   -0.36177E-04  5469   0.188E-02    0.206E-02
RMM:   8    -0.413196270236E+03    0.20689E-04   -0.48609E-05  5011   0.820E-03    0.920E-03
RMM:   9    -0.413196266476E+03    0.37603E-05   -0.89495E-06  3415   0.360E-03    0.646E-03
RMM:  10    -0.413196260504E+03    0.59722E-05   -0.18199E-06  2541   0.228E-03    0.364E-03
RMM:  11    -0.413196255082E+03    0.54219E-05   -0.11657E-06  2502   0.177E-03    0.187E-03
RMM:  12    -0.413196248409E+03    0.66723E-05   -0.97853E-07  2480   0.158E-03    0.921E-04
RMM:  13    -0.413196245504E+03    0.29057E-05   -0.38515E-07  2189   0.108E-03    0.466E-04
RMM:  14    -0.413196243765E+03    0.17387E-05   -0.19154E-07  1654   0.783E-04    0.312E-04
RMM:  15    -0.413196238571E+03    0.51938E-05   -0.14377E-07  1511   0.728E-04    0.169E-04
RMM:  16    -0.413196235074E+03    0.34972E-05   -0.81542E-08  1132   0.640E-04    0.139E-04
RMM:  17    -0.413196230877E+03    0.41969E-05   -0.68434E-08  1123   0.626E-04    0.123E-04
RMM:  18    -0.413196226217E+03    0.46597E-05   -0.67539E-08  1203   0.623E-04    0.401E-05
RMM:  19    -0.413196224898E+03    0.13192E-05   -0.28518E-08   847   0.551E-04    0.248E-05
RMM:  20    -0.413196224440E+03    0.45863E-06   -0.15988E-08   738   0.532E-04
   35 T=    67. E= -.41286671E+03 F= -.41319622E+03 E0= -.41317492E+03  EK= 0.32951E+00 SP= 0.00E+00 SK= 0.00E+00
       N       E                     dE             d eps       ncg     rms          rms(c)
RMM:   1    -0.413202367297E+03   -0.61424E-02   -0.95408E+00  4301   0.897E-01    0.937E-01
RMM:   2    -0.413202376079E+03   -0.87813E-05   -0.12503E-01  4262   0.133E-01    0.675E-01
RMM:   3    -0.413198512780E+03    0.38633E-02   -0.17878E-02  4442   0.717E-02    0.833E-02
RMM:   4    -0.413206446506E+03   -0.79337E-02   -0.80915E-03  5159   0.759E-02    0.378E-01
RMM:   5    -0.413198457119E+03    0.79894E-02   -0.41058E-03  4822   0.627E-02    0.442E-02
RMM:   6    -0.413198480282E+03   -0.23163E-04   -0.96021E-04  5733   0.302E-02    0.320E-02
RMM:   7    -0.413198463848E+03    0.16435E-04   -0.31043E-04  5242   0.179E-02    0.195E-02
RMM:   8    -0.413198448859E+03    0.14989E-04   -0.31846E-05  4853   0.674E-03    0.876E-03
RMM:   9    -0.413198446175E+03    0.26835E-05   -0.49199E-06  2874   0.272E-03    0.526E-03
RMM:  10    -0.413198441056E+03    0.51194E-05   -0.15312E-06  2515   0.207E-03    0.275E-03
RMM:  11    -0.413198436118E+03    0.49382E-05   -0.93654E-07  2464   0.160E-03    0.138E-03
RMM:  12    -0.413198431302E+03    0.48152E-05   -0.55082E-07  2324   0.124E-03    0.670E-04
RMM:  13    -0.413198428177E+03    0.31252E-05   -0.28676E-07  1934   0.911E-04    0.324E-04
RMM:  14    -0.413198425204E+03    0.29732E-05   -0.14441E-07  1399   0.715E-04    0.203E-04
RMM:  15    -0.413198420925E+03    0.42792E-05   -0.84478E-08  1096   0.649E-04    0.114E-04
RMM:  16    -0.413198417440E+03    0.34845E-05   -0.59646E-08   991   0.621E-04    0.734E-05
RMM:  17    -0.413198414860E+03    0.25799E-05   -0.42399E-08   922   0.601E-04    0.476E-05
RMM:  18    -0.413198410592E+03    0.42687E-05   -0.52494E-08  1140   0.618E-04    0.317E-05
RMM:  19    -0.413198409757E+03    0.83521E-06   -0.16662E-08   683   0.532E-04
   36 T=    68. E= -.41286654E+03 F= -.41319841E+03 E0= -.41317715E+03  EK= 0.33187E+00 SP= 0.00E+00 SK= 0.00E+00
       N       E                     dE             d eps       ncg     rms          rms(c)
RMM:   1    -0.413208689957E+03   -0.10279E-01   -0.96523E+00  4304   0.933E-01    0.925E-01
RMM:   2    -0.413206056895E+03    0.26331E-02   -0.12796E-01  4263   0.131E-01    0.683E-01
RMM:   3    -0.413201479213E+03    0.45777E-02   -0.18773E-02  4534   0.679E-02    0.803E-02
RMM:   4    -0.413214214751E+03   -0.12736E-01   -0.12871E-02  5153   0.954E-02    0.477E-01
RMM:   5    -0.413201317343E+03    0.12897E-01   -0.65315E-03  4822   0.790E-02    0.451E-02
RMM:   6    -0.413201338956E+03   -0.21613E-04   -0.13133E-03  5773   0.344E-02    0.310E-02
RMM:   7    -0.413201344549E+03   -0.55931E-05   -0.33805E-04  5389   0.180E-02    0.205E-02
RMM:   8    -0.413201327057E+03    0.17492E-04   -0.39646E-05  4907   0.749E-03    0.934E-03
RMM:   9    -0.413201325942E+03    0.11149E-05   -0.69857E-06  3135   0.325E-03    0.593E-03
RMM:  10    -0.413201323789E+03    0.21530E-05   -0.17212E-06  2525   0.225E-03    0.316E-03
RMM:  11    -0.413201321278E+03    0.25109E-05   -0.12436E-06  2501   0.181E-03    0.160E-03
RMM:  12    -0.413201318427E+03    0.28517E-05   -0.80225E-07  2449   0.145E-03    0.832E-04
RMM:  13    -0.413201316823E+03    0.16034E-05   -0.36046E-07  2097   0.101E-03    0.412E-04
RMM:  14    -0.413201315354E+03    0.14697E-05   -0.18595E-07  1600   0.766E-04    0.259E-04
RMM:  15    -0.413201312489E+03    0.28644E-05   -0.11699E-07  1275   0.687E-04    0.120E-04
RMM:  16    -0.413201310177E+03    0.23124E-05   -0.74378E-08  1053   0.638E-04    0.883E-05
RMM:  17    -0.413201308227E+03    0.19501E-05   -0.46469E-08   908   0.604E-04    0.546E-05
RMM:  18    -0.413201304974E+03    0.32529E-05   -0.54044E-08  1077   0.620E-04    0.284E-05
RMM:  19    -0.413201304001E+03    0.97251E-06   -0.24600E-08   828   0.565E-04
   37 T=    68. E= -.41286681E+03 F= -.41320130E+03 E0= -.41318008E+03  EK= 0.33449E+00 SP= 0.00E+00 SK= 0.00E+00
       N       E                     dE             d eps       ncg     rms          rms(c)
RMM:   1    -0.413212980806E+03   -0.11676E-01   -0.97555E+00  4308   0.958E-01    0.943E-01
RMM:   2    -0.413208866543E+03    0.41143E-02   -0.13511E-01  4261   0.128E-01    0.689E-01
RMM:   3    -0.413204388886E+03    0.44777E-02   -0.18127E-02  4756   0.636E-02    0.118E-01
RMM:   4    -0.413235969484E+03   -0.31581E-01   -0.32743E-02  5134   0.151E-01    0.742E-01
RMM:   5    -0.413203861950E+03    0.32108E-01   -0.16050E-02  4798   0.123E-01    0.519E-02
RMM:   6    -0.413203928593E+03   -0.66643E-04   -0.26850E-03  5839   0.490E-02    0.334E-02
RMM:   7    -0.413203937555E+03   -0.89621E-05   -0.36220E-04  5639   0.183E-02    0.182E-02
RMM:   8    -0.413203928304E+03    0.92505E-05   -0.57282E-05  4986   0.799E-03    0.104E-02
RMM:   9    -0.413203927418E+03    0.88617E-06   -0.18984E-05  4463   0.477E-03    0.791E-03
RMM:  10    -0.413203922336E+03    0.50819E-05   -0.26200E-06  2654   0.266E-03    0.436E-03
RMM:  11    -0.413203919931E+03    0.24054E-05   -0.12850E-06  2497   0.185E-03    0.274E-03
RMM:  12    -0.413203913627E+03    0.63041E-05   -0.19949E-06  2558   0.224E-03    0.142E-03
RMM:  13    -0.413203910601E+03    0.30256E-05   -0.69542E-07  2405   0.147E-03    0.883E-04
RMM:  14    -0.413203910161E+03    0.44016E-06   -0.26910E-07  2053   0.933E-04
   38 T=    69. E= -.41286681E+03 F= -.41320391E+03 E0= -.41318273E+03  EK= 0.33710E+00 SP= 0.00E+00 SK= 0.00E+00
       N       E                     dE             d eps       ncg     rms          rms(c)
RMM:   1    -0.413212598803E+03   -0.86882E-02   -0.97375E+00  4307   0.992E-01    0.953E-01
RMM:   2    -0.413211379092E+03    0.12197E-02   -0.13086E-01  4264   0.125E-01    0.685E-01
RMM:   3    -0.413207048816E+03    0.43303E-02   -0.18093E-02  4854   0.598E-02    0.130E-01
RMM:   4    -0.413241970713E+03   -0.34922E-01   -0.36820E-02  5132   0.160E-01    0.779E-01
RMM:   5    -0.413206396518E+03    0.35574E-01   -0.17654E-02  4795   0.130E-01    0.541E-02
RMM:   6    -0.413206480098E+03   -0.83580E-04   -0.29956E-03  5817   0.515E-02    0.349E-02
RMM:   7    -0.413206489649E+03   -0.95511E-05   -0.41171E-04  5674   0.193E-02    0.196E-02
RMM:   8    -0.413206476686E+03    0.12963E-04   -0.68947E-05  5072   0.870E-03    0.112E-02
RMM:   9    -0.413206473292E+03    0.33943E-05   -0.20483E-05  4538   0.503E-03    0.796E-03
RMM:  10    -0.413206465817E+03    0.74750E-05   -0.28704E-06  2676   0.270E-03    0.448E-03
RMM:  11    -0.413206461698E+03    0.41192E-05   -0.12598E-06  2495   0.186E-03    0.279E-03
RMM:  12    -0.413206451258E+03    0.10439E-04   -0.18865E-06  2543   0.221E-03    0.142E-03
RMM:  13    -0.413206446151E+03    0.51073E-05   -0.71580E-07  2418   0.149E-03    0.910E-04
RMM:  14    -0.413206445470E+03    0.68082E-06   -0.28352E-07  2096   0.955E-04
   39 T=    69. E= -.41286666E+03 F= -.41320645E+03 E0= -.41318531E+03  EK= 0.33979E+00 SP= 0.00E+00 SK= 0.00E+00
       N       E                     dE             d eps       ncg     rms          rms(c)
RMM:   1    -0.413220329485E+03   -0.13883E-01   -0.98194E+00  4309   0.104E+00    0.934E-01
RMM:   2    -0.413214929144E+03    0.54003E-02   -0.13999E-01  4264   0.129E-01    0.689E-01
RMM:   3    -0.413210486535E+03    0.44426E-02   -0.18116E-02  4906   0.642E-02    0.151E-01
RMM:   4    -0.413253820478E+03   -0.43334E-01   -0.47201E-02  5129   0.181E-01    0.865E-01
RMM:   5    -0.413209441145E+03    0.44379E-01   -0.21722E-02  4790   0.144E-01    0.568E-02
RMM:   6    -0.413209566797E+03   -0.12565E-03   -0.36320E-03  5828   0.565E-02    0.356E-02
RMM:   7    -0.413209575908E+03   -0.91117E-05   -0.43524E-04  5679   0.195E-02    0.187E-02
RMM:   8    -0.413209570872E+03    0.50364E-05   -0.57895E-05  4882   0.759E-03    0.998E-03
RMM:   9    -0.413209566291E+03    0.45810E-05   -0.17690E-05  4291   0.439E-03    0.710E-03
RMM:  10    -0.413209563516E+03    0.27750E-05   -0.48064E-06  2985   0.286E-03    0.443E-03
RMM:  11    -0.413209560004E+03    0.35119E-05   -0.15427E-06  2501   0.207E-03    0.267E-03
RMM:  12    -0.413209552156E+03    0.78481E-05   -0.18546E-06  2528   0.218E-03    0.111E-03
RMM:  13    -0.413209548929E+03    0.32269E-05   -0.61331E-07  2418   0.141E-03    0.836E-04
RMM:  14    -0.413209548783E+03    0.14629E-06   -0.26509E-07  2071   0.916E-04
   40 T=    70. E= -.41286687E+03 F= -.41320955E+03 E0= -.41318845E+03  EK= 0.34268E+00 SP= 0.00E+00 SK= 0.00E+00
       N       E                     dE             d eps       ncg     rms          rms(c)
RMM:   1    -0.413218548409E+03   -0.89995E-02   -0.99002E+00  4311   0.106E+00    0.949E-01
RMM:   2    -0.413217233821E+03    0.13146E-02   -0.13579E-01  4267   0.134E-01    0.698E-01
RMM:   3    -0.413213196889E+03    0.40369E-02   -0.19843E-02  4956   0.689E-02    0.174E-01
RMM:   4    -0.413259501525E+03   -0.46305E-01   -0.52876E-02  5134   0.192E-01    0.897E-01
RMM:   5    -0.413211606953E+03    0.47895E-01   -0.22939E-02  4790   0.149E-01    0.587E-02
RMM:   6    -0.413211750471E+03   -0.14352E-03   -0.38964E-03  5820   0.585E-02    0.363E-02
RMM:   7    -0.413211762768E+03   -0.12297E-04   -0.47682E-04  5730   0.203E-02    0.203E-02
RMM:   8    -0.413211763202E+03   -0.43451E-06   -0.94142E-05  5192   0.962E-03    0.129E-02
RMM:   9    -0.413211753509E+03    0.96937E-05   -0.24689E-05  4625   0.551E-03    0.764E-03
RMM:  10    -0.413211749832E+03    0.36771E-05   -0.40889E-06  2787   0.296E-03    0.454E-03
RMM:  11    -0.413211747055E+03    0.27767E-05   -0.15084E-06  2500   0.205E-03    0.277E-03
RMM:  12    -0.413211740482E+03    0.65729E-05   -0.17199E-06  2529   0.212E-03    0.114E-03
RMM:  13    -0.413211736190E+03    0.42914E-05   -0.74809E-07  2442   0.149E-03    0.795E-04
RMM:  14    -0.413211735599E+03    0.59152E-06   -0.30830E-07  2130   0.979E-04
   41 T=    70. E= -.41286651E+03 F= -.41321174E+03 E0= -.41319067E+03  EK= 0.34523E+00 SP= 0.00E+00 SK= 0.00E+00
       N       E                     dE             d eps       ncg     rms          rms(c)
RMM:   1    -0.413234045952E+03   -0.22310E-01   -0.10037E+01  4312   0.120E+00    0.967E-01
RMM:   2    -0.413219349824E+03    0.14696E-01   -0.14377E-01  4297   0.136E-01    0.696E-01
RMM:   3    -0.413217054547E+03    0.22953E-02   -0.19665E-02  5042   0.751E-02    0.240E-01
RMM:   4    -0.413260692650E+03   -0.43638E-01   -0.56194E-02  5104   0.199E-01    0.883E-01
RMM:   5    -0.413214253382E+03    0.46439E-01   -0.21189E-02  4766   0.147E-01    0.619E-02
RMM:   6    -0.413214370113E+03   -0.11673E-03   -0.37324E-03  5781   0.576E-02    0.378E-02
RMM:   7    -0.413214375721E+03   -0.56084E-05   -0.50825E-04  5722   0.210E-02    0.230E-02
RMM:   8    -0.413214372121E+03    0.36005E-05   -0.13074E-04  5244   0.116E-02    0.143E-02
RMM:   9    -0.413214356338E+03    0.15782E-04   -0.23426E-05  4552   0.592E-03    0.661E-03
RMM:  10    -0.413214350311E+03    0.60278E-05   -0.51782E-06  2985   0.298E-03    0.405E-03
RMM:  11    -0.413214345611E+03    0.46994E-05   -0.13095E-06  2497   0.197E-03    0.236E-03
RMM:  12    -0.413214336269E+03    0.93419E-05   -0.11926E-06  2483   0.184E-03    0.948E-04
RMM:  13    -0.413214330210E+03    0.60598E-05   -0.56129E-07  2384   0.131E-03    0.562E-04
RMM:  14    -0.413214329029E+03    0.11808E-05   -0.27164E-07  2016   0.912E-04    0.387E-04
RMM:  15    -0.413214326328E+03    0.27009E-05   -0.14165E-07  1476   0.721E-04    0.226E-04
RMM:  16    -0.413214318798E+03    0.75295E-05   -0.13156E-07  1543   0.731E-04    0.278E-04
RMM:  17    -0.413214316801E+03    0.19974E-05   -0.56435E-08   975   0.597E-04    0.177E-04
RMM:  18    -0.413214311011E+03    0.57903E-05   -0.72126E-08  1345   0.644E-04    0.147E-04
RMM:  19    -0.413214309048E+03    0.19623E-05   -0.35054E-08   947   0.558E-04    0.598E-05
RMM:  20    -0.413214307588E+03    0.14604E-05   -0.29958E-08   960   0.559E-04    0.581E-05
RMM:  21    -0.413214307421E+03    0.16714E-06   -0.13383E-08   709   0.520E-04
   42 T=    71. E= -.41286661E+03 F= -.41321431E+03 E0= -.41319327E+03  EK= 0.34769E+00 SP= 0.00E+00 SK= 0.00E+00
       N       E                     dE             d eps       ncg     rms          rms(c)
RMM:   1    -0.413236719923E+03   -0.22412E-01   -0.10018E+01  4312   0.124E+00    0.945E-01
RMM:   2    -0.413221649209E+03    0.15071E-01   -0.15607E-01  4309   0.144E-01    0.696E-01
RMM:   3    -0.413220755675E+03    0.89353E-03   -0.19614E-02  5058   0.837E-02    0.297E-01
RMM:   4    -0.413259753631E+03   -0.38998E-01   -0.57275E-02  5097   0.202E-01    0.854E-01
RMM:   5    -0.413216431887E+03    0.43322E-01   -0.18833E-02  4743   0.141E-01    0.629E-02
RMM:   6    -0.413216519094E+03   -0.87207E-04   -0.34519E-03  5755   0.555E-02    0.374E-02
RMM:   7    -0.413216522647E+03   -0.35532E-05   -0.52141E-04  5739   0.209E-02    0.245E-02
RMM:   8    -0.413216518784E+03    0.38627E-05   -0.12981E-04  5197   0.119E-02    0.132E-02
RMM:   9    -0.413216506739E+03    0.12045E-04   -0.20431E-05  4450   0.575E-03    0.557E-03
RMM:  10    -0.413216503338E+03    0.34010E-05   -0.46312E-06  2897   0.276E-03    0.351E-03
RMM:  11    -0.413216500171E+03    0.31679E-05   -0.12873E-06  2496   0.190E-03    0.193E-03
RMM:  12    -0.413216494780E+03    0.53901E-05   -0.94565E-07  2476   0.162E-03    0.750E-04
RMM:  13    -0.413216491287E+03    0.34929E-05   -0.46268E-07  2288   0.116E-03    0.381E-04
RMM:  14    -0.413216489806E+03    0.14810E-05   -0.23590E-07  1850   0.852E-04    0.265E-04
RMM:  15    -0.413216486742E+03    0.30646E-05   -0.13973E-07  1417   0.717E-04    0.129E-04
RMM:  16    -0.413216483447E+03    0.32949E-05   -0.91391E-08  1153   0.659E-04    0.107E-04
RMM:  17    -0.413216481124E+03    0.23231E-05   -0.62783E-08  1053   0.630E-04    0.731E-05
RMM:  18    -0.413216478305E+03    0.28190E-05   -0.54972E-08  1138   0.626E-04    0.457E-05
RMM:  19    -0.413216476149E+03    0.21562E-05   -0.40385E-08  1061   0.594E-04    0.312E-05
RMM:  20    -0.413216475374E+03    0.77475E-06   -0.21626E-08   827   0.552E-04
   43 T=    71. E= -.41286668E+03 F= -.41321648E+03 E0= -.41319547E+03  EK= 0.34979E+00 SP= 0.00E+00 SK= 0.00E+00
       N       E                     dE             d eps       ncg     rms          rms(c)
RMM:   1    -0.413232591072E+03   -0.16115E-01   -0.10068E+01  4314   0.127E+00    0.949E-01
RMM:   2    -0.413223269814E+03    0.93213E-02   -0.15634E-01  4317   0.154E-01    0.708E-01
RMM:   3    -0.413223308190E+03   -0.38376E-04   -0.21722E-02  5061   0.923E-02    0.329E-01
RMM:   4    -0.413258910381E+03   -0.35602E-01   -0.57501E-02  5086   0.204E-01    0.831E-01
RMM:   5    -0.413217769107E+03    0.41141E-01   -0.17220E-02  4720   0.137E-01    0.626E-02
RMM:   6    -0.413217830466E+03   -0.61359E-04   -0.32047E-03  5729   0.536E-02    0.361E-02
RMM:   7    -0.413217831242E+03   -0.77608E-06   -0.48263E-04  5753   0.205E-02    0.239E-02
RMM:   8    -0.413217825509E+03    0.57325E-05   -0.12584E-04  5180   0.118E-02    0.125E-02
RMM:   9    -0.413217814802E+03    0.10707E-04   -0.19118E-05  4401   0.565E-03    0.509E-03
RMM:  10    -0.413217812574E+03    0.22278E-05   -0.42173E-06  2828   0.265E-03    0.320E-03
RMM:  11    -0.413217810100E+03    0.24748E-05   -0.12931E-06  2496   0.188E-03    0.172E-03
RMM:  12    -0.413217806179E+03    0.39207E-05   -0.86964E-07  2465   0.154E-03    0.707E-04
RMM:  13    -0.413217803558E+03    0.26213E-05   -0.43481E-07  2173   0.110E-03    0.328E-04
RMM:  14    -0.413217801887E+03    0.16703E-05   -0.23145E-07  1729   0.831E-04    0.213E-04
RMM:  15    -0.413217798323E+03    0.35649E-05   -0.16540E-07  1399   0.741E-04    0.130E-04
RMM:  16    -0.413217796330E+03    0.19923E-05   -0.95186E-08  1140   0.665E-04    0.928E-05
RMM:  17    -0.413217794221E+03    0.21093E-05   -0.73540E-08  1142   0.644E-04    0.587E-05
RMM:  18    -0.413217791673E+03    0.25475E-05   -0.62314E-08  1179   0.630E-04    0.363E-05
RMM:  19    -0.413217789836E+03    0.18372E-05   -0.39137E-08   988   0.582E-04    0.260E-05
RMM:  20    -0.413217789152E+03    0.68452E-06   -0.22271E-08   808   0.549E-04
   44 T=    72. E= -.41286647E+03 F= -.41321779E+03 E0= -.41319681E+03  EK= 0.35132E+00 SP= 0.00E+00 SK= 0.00E+00
       N       E                     dE             d eps       ncg     rms          rms(c)
RMM:   1    -0.413251335781E+03   -0.33546E-01   -0.10209E+01  4312   0.142E+00    0.972E-01
RMM:   2    -0.413224264056E+03    0.27072E-01   -0.16587E-01  4324   0.165E-01    0.705E-01
RMM:   3    -0.413227378608E+03   -0.31146E-02   -0.22610E-02  5097   0.103E-01    0.404E-01
RMM:   4    -0.413249548702E+03   -0.22170E-01   -0.50329E-02  5059   0.193E-01    0.720E-01
RMM:   5    -0.413219267653E+03    0.30281E-01   -0.11833E-02  4683   0.119E-01    0.618E-02
RMM:   6    -0.413219264725E+03    0.29287E-05   -0.23417E-03  5641   0.467E-02    0.363E-02
RMM:   7    -0.413219259254E+03    0.54709E-05   -0.40916E-04  5658   0.194E-02    0.240E-02
RMM:   8    -0.413219250562E+03    0.86920E-05   -0.12317E-04  5103   0.120E-02    0.115E-02
RMM:   9    -0.413219237768E+03    0.12794E-04   -0.16447E-05  4331   0.560E-03    0.465E-03
RMM:  10    -0.413219233945E+03    0.38233E-05   -0.34192E-06  2772   0.244E-03    0.278E-03
RMM:  11    -0.413219228737E+03    0.52074E-05   -0.12163E-06  2489   0.182E-03    0.150E-03
RMM:  12    -0.413219222642E+03    0.60949E-05   -0.68504E-07  2433   0.141E-03    0.670E-04
RMM:  13    -0.413219218891E+03    0.37513E-05   -0.33569E-07  2006   0.992E-04    0.308E-04
RMM:  14    -0.413219215697E+03    0.31941E-05   -0.18945E-07  1570   0.777E-04    0.184E-04
RMM:  15    -0.413219210545E+03    0.51522E-05   -0.13679E-07  1349   0.716E-04    0.126E-04
RMM:  16    -0.413219207590E+03    0.29552E-05   -0.85179E-08  1139   0.655E-04    0.905E-05
RMM:  17    -0.413219203175E+03    0.44150E-05   -0.80078E-08  1309   0.658E-04    0.573E-05
RMM:  18    -0.413219200718E+03    0.24566E-05   -0.51067E-08  1093   0.594E-04    0.451E-05
RMM:  19    -0.413219198767E+03    0.19515E-05   -0.35279E-08   974   0.563E-04    0.243E-05
RMM:  20    -0.413219198373E+03    0.39383E-06   -0.17722E-08   729   0.526E-04
   45 T=    72. E= -.41286677E+03 F= -.41321920E+03 E0= -.41319824E+03  EK= 0.35242E+00 SP= 0.00E+00 SK= 0.00E+00
       N       E                     dE             d eps       ncg     rms          rms(c)
RMM:   1    -0.413245462616E+03   -0.26264E-01   -0.10050E+01  4312   0.147E+00    0.955E-01
RMM:   2    -0.413224186594E+03    0.21276E-01   -0.15811E-01  4338   0.174E-01    0.699E-01
RMM:   3    -0.413230289565E+03   -0.61030E-02   -0.25556E-02  5101   0.117E-01    0.463E-01
RMM:   4    -0.413242654162E+03   -0.12365E-01   -0.46575E-02  5039   0.188E-01    0.635E-01
RMM:   5    -0.413219121360E+03    0.23533E-01   -0.83259E-03  4637   0.106E-01    0.592E-02
RMM:   6    -0.413219086468E+03    0.34892E-04   -0.17953E-03  5529   0.410E-02    0.341E-02
RMM:   7    -0.413219079396E+03    0.70727E-05   -0.33773E-04  5577   0.180E-02    0.226E-02
RMM:   8    -0.413219066932E+03    0.12464E-04   -0.12447E-04  5068   0.119E-02    0.106E-02
RMM:   9    -0.413219054842E+03    0.12090E-04   -0.14339E-05  4193   0.537E-03    0.436E-03
RMM:  10    -0.413219051468E+03    0.33731E-05   -0.28570E-06  2703   0.229E-03    0.253E-03
RMM:  11    -0.413219046485E+03    0.49836E-05   -0.11503E-06  2482   0.176E-03    0.133E-03
RMM:  12    -0.413219041281E+03    0.52041E-05   -0.62572E-07  2388   0.133E-03    0.652E-04
RMM:  13    -0.413219037878E+03    0.34029E-05   -0.30377E-07  1897   0.944E-04    0.306E-04
RMM:  14    -0.413219034624E+03    0.32535E-05   -0.17280E-07  1437   0.749E-04    0.169E-04
RMM:  15    -0.413219030015E+03    0.46095E-05   -0.12973E-07  1311   0.710E-04    0.123E-04
RMM:  16    -0.413219027296E+03    0.27191E-05   -0.84490E-08  1165   0.652E-04    0.900E-05
RMM:  17    -0.413219022443E+03    0.48531E-05   -0.86108E-08  1384   0.664E-04    0.649E-05
RMM:  18    -0.413219020636E+03    0.18066E-05   -0.43223E-08   988   0.565E-04    0.407E-05
RMM:  19    -0.413219019044E+03    0.15917E-05   -0.32040E-08   916   0.546E-04    0.226E-05
RMM:  20    -0.413219018547E+03    0.49684E-06   -0.18064E-08   740   0.518E-04
   46 T=    72. E= -.41286660E+03 F= -.41321902E+03 E0= -.41319808E+03  EK= 0.35241E+00 SP= 0.00E+00 SK= 0.00E+00
       N       E                     dE             d eps       ncg     rms          rms(c)
RMM:   1    -0.413233568973E+03   -0.14550E-01   -0.99578E+00  4312   0.148E+00    0.947E-01
RMM:   2    -0.413223508842E+03    0.10060E-01   -0.15441E-01  4366   0.179E-01    0.708E-01
RMM:   3    -0.413232205199E+03   -0.86964E-02   -0.29272E-02  5093   0.130E-01    0.511E-01
RMM:   4    -0.413239613339E+03   -0.74081E-02   -0.47585E-02  5022   0.191E-01    0.606E-01
RMM:   5    -0.413218104204E+03    0.21509E-01   -0.71394E-03  4607   0.102E-01    0.582E-02
RMM:   6    -0.413218046103E+03    0.58101E-04   -0.15285E-03  5432   0.385E-02    0.317E-02
RMM:   7    -0.413218042963E+03    0.31397E-05   -0.29017E-04  5558   0.169E-02    0.214E-02
RMM:   8    -0.413218031769E+03    0.11194E-04   -0.12720E-04  5076   0.120E-02    0.102E-02
RMM:   9    -0.413218021157E+03    0.10612E-04   -0.13673E-05  4123   0.532E-03    0.422E-03
RMM:  10    -0.413218018986E+03    0.21704E-05   -0.28411E-06  2711   0.227E-03    0.242E-03
RMM:  11    -0.413218015457E+03    0.35295E-05   -0.11920E-06  2486   0.177E-03    0.124E-03
RMM:  12    -0.413218012122E+03    0.33347E-05   -0.61551E-07  2374   0.131E-03    0.664E-04
RMM:  13    -0.413218009421E+03    0.27016E-05   -0.31310E-07  1839   0.938E-04    0.311E-04
RMM:  14    -0.413218006741E+03    0.26797E-05   -0.17909E-07  1399   0.747E-04    0.162E-04
RMM:  15    -0.413218003515E+03    0.32254E-05   -0.13785E-07  1299   0.705E-04    0.115E-04
RMM:  16    -0.413218001383E+03    0.21322E-05   -0.88282E-08  1174   0.648E-04    0.858E-05
RMM:  17    -0.413217997367E+03    0.40163E-05   -0.94139E-08  1358   0.665E-04    0.566E-05
RMM:  18    -0.413217996044E+03    0.13228E-05   -0.41554E-08   931   0.559E-04    0.394E-05
RMM:  19    -0.413217994820E+03    0.12240E-05   -0.27625E-08   844   0.538E-04    0.222E-05
RMM:  20    -0.413217994058E+03    0.76261E-06   -0.17694E-08   720   0.521E-04
   47 T=    72. E= -.41286671E+03 F= -.41321799E+03 E0= -.41319707E+03  EK= 0.35128E+00 SP= 0.00E+00 SK= 0.00E+00
       N       E                     dE             d eps       ncg     rms          rms(c)
RMM:   1    -0.413245058384E+03   -0.27064E-01   -0.99768E+00  4307   0.164E+00    0.962E-01
RMM:   2    -0.413221147472E+03    0.23911E-01   -0.16830E-01  4417   0.195E-01    0.706E-01
RMM:   3    -0.413236548555E+03   -0.15401E-01   -0.32620E-02  5130   0.146E-01    0.622E-01
RMM:   4    -0.413230134837E+03    0.64137E-02   -0.44431E-02  4984   0.188E-01    0.500E-01
RMM:   5    -0.413215992664E+03    0.14142E-01   -0.47601E-03  4546   0.912E-02    0.592E-02
RMM:   6    -0.413215881919E+03    0.11074E-03   -0.82444E-04  4985   0.317E-02    0.313E-02
RMM:   7    -0.413215866137E+03    0.15783E-04   -0.18915E-04  5611   0.138E-02    0.156E-02
RMM:   8    -0.413215867316E+03   -0.11794E-05   -0.11734E-04  5226   0.111E-02    0.126E-02
RMM:   9    -0.413215850242E+03    0.17074E-04   -0.23096E-05  4580   0.617E-03    0.452E-03
RMM:  10    -0.413215847599E+03    0.26430E-05   -0.36669E-06  2783   0.254E-03    0.245E-03
RMM:  11    -0.413215841787E+03    0.58124E-05   -0.15422E-06  2451   0.202E-03    0.136E-03
RMM:  12    -0.413215838025E+03    0.37622E-05   -0.66160E-07  2371   0.142E-03    0.812E-04
RMM:  13    -0.413215833699E+03    0.43254E-05   -0.32258E-07  1927   0.101E-03    0.423E-04
RMM:  14    -0.413215829394E+03    0.43051E-05   -0.16503E-07  1540   0.751E-04    0.242E-04
RMM:  15    -0.413215825439E+03    0.39550E-05   -0.97804E-08  1107   0.638E-04    0.138E-04
RMM:  16    -0.413215822451E+03    0.29879E-05   -0.70784E-08  1061   0.608E-04    0.113E-04
RMM:  17    -0.413215818549E+03    0.39027E-05   -0.69239E-08  1168   0.615E-04    0.817E-05
RMM:  18    -0.413215816097E+03    0.24511E-05   -0.37312E-08   921   0.563E-04    0.604E-05
RMM:  19    -0.413215814847E+03    0.12500E-05   -0.20867E-08   726   0.522E-04    0.396E-05
RMM:  20    -0.413215813653E+03    0.11948E-05   -0.18960E-08   738   0.521E-04    0.205E-05
RMM:  21    -0.413215813217E+03    0.43525E-06   -0.92734E-09   578   0.499E-04
   48 T=    71. E= -.41286699E+03 F= -.41321581E+03 E0= -.41319490E+03  EK= 0.34883E+00 SP= 0.00E+00 SK= 0.00E+00
       N       E                     dE             d eps       ncg     rms          rms(c)
RMM:   1    -0.413242861191E+03   -0.27048E-01   -0.97853E+00  4306   0.176E+00    0.950E-01
RMM:   2    -0.413216458475E+03    0.26403E-01   -0.16574E-01  4478   0.205E-01    0.695E-01
RMM:   3    -0.413240047758E+03   -0.23589E-01   -0.38826E-02  5146   0.165E-01    0.726E-01
RMM:   4    -0.413220717747E+03    0.19330E-01   -0.43238E-02  4956   0.189E-01    0.409E-01
RMM:   5    -0.413211591342E+03    0.91264E-02   -0.39048E-03  4596   0.871E-02    0.634E-02
RMM:   6    -0.413211419173E+03    0.17217E-03   -0.45203E-04  4676   0.287E-02    0.329E-02
RMM:   7    -0.413211429443E+03   -0.10271E-04   -0.31084E-04  5765   0.186E-02    0.237E-02
RMM:   8    -0.413211397429E+03    0.32014E-04   -0.10171E-04  5024   0.116E-02    0.999E-03
RMM:   9    -0.413211391764E+03    0.56655E-05   -0.20722E-05  5024   0.586E-03    0.487E-03
RMM:  10    -0.413211387895E+03    0.38690E-05   -0.25185E-06  2652   0.246E-03    0.262E-03
RMM:  11    -0.413211382189E+03    0.57052E-05   -0.15149E-06  2495   0.201E-03    0.192E-03
[...]
RMM:   7    -0.413159399470E+03   -0.22508E-04   -0.43707E-04  5906   0.187E-02    0.210E-02
RMM:   8    -0.413159399673E+03   -0.20361E-06   -0.91177E-05  5239   0.102E-02    0.983E-03
RMM:   9    -0.413159399681E+03   -0.77198E-08   -0.11097E-05  3552   0.405E-03    0.453E-03
RMM:  10    -0.413159402787E+03   -0.31058E-05   -0.23899E-06  2621   0.224E-03    0.291E-03
RMM:  11    -0.413159407230E+03   -0.44435E-05   -0.13344E-06  2512   0.184E-03    0.154E-03
RMM:  12    -0.413159410783E+03   -0.35524E-05   -0.76485E-07  2455   0.141E-03    0.573E-04
RMM:  13    -0.413159412915E+03   -0.21325E-05   -0.40983E-07  2178   0.105E-03    0.331E-04
RMM:  14    -0.413159414553E+03   -0.16382E-05   -0.23724E-07  1706   0.832E-04    0.229E-04
RMM:  15    -0.413159417497E+03   -0.29441E-05   -0.19762E-07  1553   0.782E-04    0.147E-04
RMM:  16    -0.413159418961E+03   -0.14635E-05   -0.11905E-07  1358   0.682E-04    0.931E-05
RMM:  17    -0.413159420670E+03   -0.17091E-05   -0.10080E-07  1369   0.656E-04    0.645E-05
RMM:  18    -0.413159421774E+03   -0.11038E-05   -0.60676E-08  1079   0.583E-04    0.372E-05
RMM:  19    -0.413159422968E+03   -0.11943E-05   -0.46134E-08  1033   0.568E-04    0.221E-05
RMM:  20    -0.413159423298E+03   -0.32986E-06   -0.23662E-08   811   0.527E-04
  139 T=    60. E= -.41286695E+03 F= -.41315942E+03 E0= -.41313868E+03  EK= 0.29248E+00 SP= 0.00E+00 SK= 0.00E+00
       N       E                     dE             d eps       ncg     rms          rms(c)
RMM:   1    -0.413158085675E+03    0.13373E-02   -0.82973E+00  4268   0.817E-01    0.853E-01
RMM:   2    -0.413161766590E+03   -0.36809E-02   -0.98024E-02  4337   0.931E-02    0.612E-01
RMM:   3    -0.413160305609E+03    0.14610E-02   -0.15788E-02  5060   0.581E-02    0.169E-01
RMM:   4    -0.413191988546E+03   -0.31683E-01   -0.38347E-02  5122   0.165E-01    0.751E-01
RMM:   5    -0.413158885610E+03    0.33103E-01   -0.15363E-02  4783   0.125E-01    0.587E-02
RMM:   6    -0.413158900570E+03   -0.14960E-04   -0.27129E-03  5658   0.503E-02    0.320E-02
RMM:   7    -0.413158926733E+03   -0.26163E-04   -0.44088E-04  5906   0.185E-02    0.205E-02
RMM:   8    -0.413158928818E+03   -0.20848E-05   -0.89399E-05  5240   0.100E-02    0.981E-03
RMM:   9    -0.413158929429E+03   -0.61122E-06   -0.10893E-05  3478   0.397E-03    0.459E-03
RMM:  10    -0.413158933368E+03   -0.39386E-05   -0.26212E-06  2644   0.228E-03    0.296E-03
RMM:  11    -0.413158938299E+03   -0.49310E-05   -0.13296E-06  2512   0.182E-03    0.153E-03
RMM:  12    -0.413158942481E+03   -0.41818E-05   -0.78506E-07  2450   0.142E-03    0.546E-04
RMM:  13    -0.413158944778E+03   -0.22972E-05   -0.41399E-07  2162   0.106E-03    0.331E-04
RMM:  14    -0.413158946499E+03   -0.17211E-05   -0.23994E-07  1713   0.836E-04    0.229E-04
RMM:  15    -0.413158949397E+03   -0.28979E-05   -0.19198E-07  1531   0.775E-04    0.135E-04
RMM:  16    -0.413158951008E+03   -0.16112E-05   -0.12363E-07  1377   0.687E-04    0.909E-05
RMM:  17    -0.413158952516E+03   -0.15084E-05   -0.93544E-08  1323   0.646E-04    0.654E-05
RMM:  18    -0.413158953641E+03   -0.11250E-05   -0.63611E-08  1130   0.590E-04    0.355E-05
RMM:  19    -0.413158954877E+03   -0.12360E-05   -0.48302E-08  1062   0.569E-04    0.216E-05
RMM:  20    -0.413158955162E+03   -0.28512E-06   -0.22181E-08   787   0.522E-04
  140 T=    59. E= -.41286673E+03 F= -.41315896E+03 E0= -.41313822E+03  EK= 0.29222E+00 SP= 0.00E+00 SK= 0.00E+00
       N       E                     dE             d eps       ncg     rms          rms(c)
RMM:   1    -0.413157571721E+03    0.13832E-02   -0.84460E+00  4268   0.821E-01    0.846E-01
RMM:   2    -0.413162160649E+03   -0.45889E-02   -0.10021E-01  4334   0.935E-02    0.620E-01
RMM:   3    -0.413159996032E+03    0.21646E-02   -0.15925E-02  5022   0.567E-02    0.147E-01
RMM:   4    -0.413192199786E+03   -0.32204E-01   -0.37114E-02  5130   0.162E-01    0.754E-01
RMM:   5    -0.413158897386E+03    0.33302E-01   -0.15714E-02  4791   0.126E-01    0.566E-02
RMM:   6    -0.413158925938E+03   -0.28553E-04   -0.27331E-03  5684   0.503E-02    0.309E-02
RMM:   7    -0.413158955079E+03   -0.29141E-04   -0.43150E-04  5930   0.181E-02    0.194E-02
RMM:   8    -0.413158962643E+03   -0.75639E-05   -0.83762E-05  5243   0.962E-03    0.949E-03
RMM:   9    -0.413158966534E+03   -0.38918E-05   -0.10412E-05  3422   0.384E-03    0.451E-03
RMM:  10    -0.413158973940E+03   -0.74052E-05   -0.25968E-06  2629   0.227E-03    0.293E-03
RMM:  11    -0.413158982102E+03   -0.81623E-05   -0.13101E-06  2512   0.179E-03    0.150E-03
RMM:  12    -0.413158989804E+03   -0.77019E-05   -0.88196E-07  2461   0.145E-03    0.529E-04
RMM:  13    -0.413158993459E+03   -0.36554E-05   -0.43892E-07  2140   0.106E-03    0.342E-04
RMM:  14    -0.413158996030E+03   -0.25705E-05   -0.25308E-07  1701   0.839E-04    0.228E-04
RMM:  15    -0.413159000101E+03   -0.40715E-05   -0.21000E-07  1591   0.787E-04    0.137E-04
RMM:  16    -0.413159002756E+03   -0.26544E-05   -0.14880E-07  1484   0.705E-04    0.106E-04
RMM:  17    -0.413159004323E+03   -0.15669E-05   -0.93826E-08  1220   0.620E-04    0.726E-05
RMM:  18    -0.413159005798E+03   -0.14750E-05   -0.72216E-08  1136   0.592E-04    0.321E-05
RMM:  19    -0.413159006820E+03   -0.10229E-05   -0.47856E-08  1001   0.562E-04    0.178E-05
RMM:  20    -0.413159007192E+03   -0.37111E-06   -0.26505E-08   812   0.530E-04
  141 T=    60. E= -.41286672E+03 F= -.41315901E+03 E0= -.41313828E+03  EK= 0.29229E+00 SP= 0.00E+00 SK= 0.00E+00
       N       E                     dE             d eps       ncg     rms          rms(c)
RMM:   1    -0.413157514998E+03    0.14918E-02   -0.85600E+00  4267   0.828E-01    0.862E-01
RMM:   2    -0.413161903702E+03   -0.43887E-02   -0.10047E-01  4329   0.948E-02    0.617E-01
RMM:   3    -0.413159667953E+03    0.22357E-02   -0.14313E-02  4994   0.516E-02    0.126E-01
RMM:   4    -0.413189469446E+03   -0.29801E-01   -0.32726E-02  5143   0.152E-01    0.723E-01
RMM:   5    -0.413158977761E+03    0.30492E-01   -0.14731E-02  4805   0.121E-01    0.549E-02
RMM:   6    -0.413159003976E+03   -0.26215E-04   -0.25453E-03  5694   0.487E-02    0.319E-02
RMM:   7    -0.413159024544E+03   -0.20568E-04   -0.41580E-04  5891   0.179E-02    0.192E-02
RMM:   8    -0.413159027584E+03   -0.30393E-05   -0.78467E-05  5241   0.942E-03    0.944E-03
RMM:   9    -0.413159028458E+03   -0.87479E-06   -0.94877E-06  3348   0.370E-03
  142 T=    59. E= -.41286690E+03 F= -.41315903E+03 E0= -.41313831E+03  EK= 0.29213E+00 SP= 0.00E+00 SK= 0.00E+00
       N       E                     dE             d eps       ncg     rms          rms(c)
RMM:   1    -0.413156415778E+03    0.26118E-02   -0.86205E+00  4266   0.834E-01    0.858E-01
RMM:   2    -0.413160801267E+03   -0.43855E-02   -0.10098E-01  4349   0.943E-02    0.610E-01
RMM:   3    -0.413161002767E+03   -0.20150E-03   -0.14862E-02  5140   0.649E-02    0.227E-01
RMM:   4    -0.413187606926E+03   -0.26604E-01   -0.38088E-02  5105   0.165E-01    0.706E-01
RMM:   5    -0.413158510086E+03    0.29097E-01   -0.12972E-02  4776   0.118E-01    0.642E-02
RMM:   6    -0.413158414547E+03    0.95539E-04   -0.22673E-03  5496   0.474E-02    0.307E-02
RMM:   7    -0.413158451420E+03   -0.36872E-04   -0.42260E-04  6012   0.187E-02    0.204E-02
RMM:   8    -0.413158453608E+03   -0.21877E-05   -0.92270E-05  5342   0.103E-02    0.956E-03
RMM:   9    -0.413158455212E+03   -0.16044E-05   -0.13819E-05  4147   0.454E-03    0.422E-03
RMM:  10    -0.413158458376E+03   -0.31642E-05   -0.21347E-06  2598   0.215E-03    0.281E-03
RMM:  11    -0.413158464350E+03   -0.59741E-05   -0.14877E-06  2531   0.192E-03    0.157E-03
RMM:  12    -0.413158469166E+03   -0.48154E-05   -0.85326E-07  2485   0.144E-03    0.700E-04
RMM:  13    -0.413158471607E+03   -0.24414E-05   -0.40157E-07  2063   0.102E-03    0.357E-04
RMM:  14    -0.413158474340E+03   -0.27329E-05   -0.28300E-07  1699   0.848E-04    0.215E-04
RMM:  15    -0.413158477002E+03   -0.26623E-05   -0.22388E-07  1605   0.779E-04    0.176E-04
RMM:  16    -0.413158478916E+03   -0.19141E-05   -0.15635E-07  1411   0.693E-04    0.119E-04
RMM:  17    -0.413158481231E+03   -0.23145E-05   -0.14918E-07  1476   0.690E-04    0.708E-05
RMM:  18    -0.413158482159E+03   -0.92844E-06   -0.73864E-08  1103   0.581E-04
  143 T=    59. E= -.41286668E+03 F= -.41315848E+03 E0= -.41313777E+03  EK= 0.29180E+00 SP= 0.00E+00 SK= 0.00E+00
       N       E                     dE             d eps       ncg     rms          rms(c)
RMM:   1    -0.413156415931E+03    0.20653E-02   -0.87400E+00  4264   0.839E-01    0.843E-01
RMM:   2    -0.413161953716E+03   -0.55378E-02   -0.10302E-01  4331   0.954E-02    0.614E-01
RMM:   3    -0.413159292880E+03    0.26608E-02   -0.12959E-02  4899   0.466E-02    0.860E-02
RMM:   4    -0.413175760337E+03   -0.16467E-01   -0.17145E-02  5149   0.110E-01    0.539E-01
RMM:   5    -0.413159096797E+03    0.16664E-01   -0.83192E-03  4823   0.898E-02    0.462E-02
RMM:   6    -0.413159101192E+03   -0.43954E-05   -0.14728E-03  5706   0.375E-02    0.297E-02
RMM:   7    -0.413159117756E+03   -0.16564E-04   -0.28861E-04  5725   0.151E-02    0.161E-02
RMM:   8    -0.413159123453E+03   -0.56964E-05   -0.54275E-05  5145   0.808E-03    0.803E-03
RMM:   9    -0.413159126499E+03   -0.30462E-05   -0.59208E-06  3032   0.296E-03    0.410E-03
RMM:  10    -0.413159133888E+03   -0.73896E-05   -0.16987E-06  2546   0.197E-03    0.247E-03
RMM:  11    -0.413159141076E+03   -0.71881E-05   -0.97242E-07  2484   0.153E-03    0.120E-03
RMM:  12    -0.413159147671E+03   -0.65949E-05   -0.70025E-07  2362   0.126E-03    0.518E-04
RMM:  13    -0.413159151111E+03   -0.34394E-05   -0.35637E-07  2015   0.951E-04    0.299E-04
RMM:  14    -0.413159153709E+03   -0.25983E-05   -0.21444E-07  1530   0.777E-04    0.189E-04
RMM:  15    -0.413159156665E+03   -0.29563E-05   -0.16986E-07  1412   0.730E-04    0.120E-04
RMM:  16    -0.413159159481E+03   -0.28155E-05   -0.15138E-07  1472   0.705E-04    0.101E-04
RMM:  17    -0.413159160140E+03   -0.65939E-06   -0.70164E-08  1061   0.580E-04
  144 T=    59. E= -.41286695E+03 F= -.41315916E+03 E0= -.41313846E+03  EK= 0.29221E+00 SP= 0.00E+00 SK= 0.00E+00
       N       E                     dE             d eps       ncg     rms          rms(c)
RMM:   1    -0.413156137574E+03    0.30219E-02   -0.89018E+00  4264   0.846E-01    0.857E-01
RMM:   2    -0.413161773432E+03   -0.56359E-02   -0.10389E-01  4326   0.979E-02    0.616E-01
RMM:   3    -0.413158991226E+03    0.27822E-02   -0.12089E-02  4779   0.448E-02    0.773E-02
RMM:   4    -0.413165762678E+03   -0.67715E-02   -0.71726E-03  5174   0.719E-02    0.348E-01
RMM:   5    -0.413158966642E+03    0.67960E-02   -0.34972E-03  4839   0.584E-02    0.416E-02
RMM:   6    -0.413158961240E+03    0.54015E-05   -0.72104E-04  5604   0.272E-02    0.290E-02
RMM:   7    -0.413158970691E+03   -0.94511E-05   -0.21517E-04  5547   0.132E-02    0.152E-02
RMM:   8    -0.413158970919E+03   -0.22788E-06   -0.37973E-05  4991   0.710E-03    0.741E-03
RMM:   9    -0.413158972770E+03   -0.18504E-05   -0.43272E-06  2827   0.245E-03    0.350E-03
RMM:  10    -0.413158978114E+03   -0.53442E-05   -0.10704E-06  2506   0.164E-03    0.193E-03
RMM:  11    -0.413158984666E+03   -0.65521E-05   -0.85220E-07  2442   0.138E-03    0.930E-04
RMM:  12    -0.413158988892E+03   -0.42264E-05   -0.46964E-07  2122   0.105E-03    0.433E-04
RMM:  13    -0.413158991741E+03   -0.28492E-05   -0.28405E-07  1771   0.852E-04    0.202E-04
RMM:  14    -0.413158994648E+03   -0.29065E-05   -0.21241E-07  1540   0.769E-04    0.181E-04
RMM:  15    -0.413158996934E+03   -0.22864E-05   -0.15481E-07  1349   0.691E-04    0.116E-04
RMM:  16    -0.413158998940E+03   -0.20056E-05   -0.12707E-07  1316   0.657E-04    0.651E-05
RMM:  17    -0.413158999536E+03   -0.59644E-06   -0.60215E-08   979   0.564E-04
  145 T=    59. E= -.41286681E+03 F= -.41315900E+03 E0= -.41313830E+03  EK= 0.29218E+00 SP= 0.00E+00 SK= 0.00E+00
       N       E                     dE             d eps       ncg     rms          rms(c)
RMM:   1    -0.413155445789E+03    0.35532E-02   -0.89879E+00  4264   0.853E-01    0.865E-01
RMM:   2    -0.413160547984E+03   -0.51022E-02   -0.10418E-01  4329   0.971E-02    0.608E-01
RMM:   3    -0.413158392452E+03    0.21555E-02   -0.11219E-02  4721   0.409E-02    0.857E-02
RMM:   4    -0.413158989935E+03   -0.59748E-03   -0.11935E-03  5214   0.293E-02    0.105E-01
RMM:   5    -0.413158461275E+03    0.52866E-03   -0.39578E-04  4928   0.204E-02    0.430E-02
RMM:   6    -0.413158441284E+03    0.19991E-04   -0.27308E-04  5291   0.173E-02    0.287E-02
RMM:   7    -0.413158438768E+03    0.25158E-05   -0.16534E-04  5099   0.119E-02    0.155E-02
RMM:   8    -0.413158433805E+03    0.49632E-05   -0.16803E-05  4259   0.557E-03    0.746E-03
RMM:   9    -0.413158435195E+03   -0.13898E-05   -0.55362E-06  2796   0.265E-03    0.260E-03
RMM:  10    -0.413158437926E+03   -0.27307E-05   -0.16964E-06  2493   0.196E-03    0.132E-03
RMM:  11    -0.413158442447E+03   -0.45219E-05   -0.11628E-06  2483   0.156E-03    0.654E-04
RMM:  12    -0.413158444244E+03   -0.17965E-05   -0.46592E-07  2120   0.107E-03    0.368E-04
RMM:  13    -0.413158445408E+03   -0.11639E-05   -0.23568E-07  1702   0.817E-04    0.330E-04
RMM:  14    -0.413158447372E+03   -0.19640E-05   -0.20990E-07  1456   0.737E-04    0.181E-04
RMM:  15    -0.413158448414E+03   -0.10418E-05   -0.11180E-07  1195   0.638E-04    0.120E-04
RMM:  16    -0.413158448896E+03   -0.48193E-06   -0.57466E-08   959   0.570E-04
  146 T=    59. E= -.41286663E+03 F= -.41315845E+03 E0= -.41313776E+03  EK= 0.29182E+00 SP= 0.00E+00 SK= 0.00E+00
       N       E                     dE             d eps       ncg     rms          rms(c)
RMM:   1    -0.413155019765E+03    0.34286E-02   -0.90545E+00  4264   0.858E-01    0.842E-01
RMM:   2    -0.413161275593E+03   -0.62558E-02   -0.10632E-01  4337   0.963E-02    0.608E-01
RMM:   3    -0.413159011745E+03    0.22638E-02   -0.10705E-02  4776   0.395E-02    0.779E-02
RMM:   4    -0.413160358777E+03   -0.13470E-02   -0.18671E-03  5224   0.370E-02    0.156E-01
RMM:   5    -0.413159064572E+03    0.12942E-02   -0.73824E-04  4873   0.278E-02    0.390E-02
RMM:   6    -0.413159053118E+03    0.11454E-04   -0.29472E-04  5366   0.180E-02    0.270E-02
RMM:   7    -0.413159068699E+03   -0.15581E-04   -0.16552E-04  5348   0.111E-02    0.157E-02
RMM:   8    -0.413159066138E+03    0.25608E-05   -0.21204E-05  4512   0.581E-03    0.776E-03
RMM:   9    -0.413159067967E+03   -0.18287E-05   -0.56919E-06  2779   0.260E-03    0.277E-03
RMM:  10    -0.413159073067E+03   -0.51002E-05   -0.14864E-06  2493   0.190E-03    0.152E-03
RMM:  11    -0.413159081900E+03   -0.88330E-05   -0.11086E-06  2497   0.157E-03    0.813E-04
RMM:  12    -0.413159085073E+03   -0.31732E-05   -0.41256E-07  2103   0.105E-03    0.435E-04
RMM:  13    -0.413159088443E+03   -0.33695E-05   -0.28660E-07  1782   0.842E-04    0.264E-04
RMM:  14    -0.413159092648E+03   -0.42050E-05   -0.26007E-07  1565   0.767E-04    0.188E-04
RMM:  15    -0.413159094123E+03   -0.14751E-05   -0.11072E-07  1173   0.635E-04    0.108E-04
RMM:  16    -0.413159096097E+03   -0.19740E-05   -0.11098E-07  1204   0.638E-04    0.437E-05
RMM:  17    -0.413159097343E+03   -0.12466E-05   -0.68672E-08  1071   0.582E-04    0.391E-05
RMM:  18    -0.413159097666E+03   -0.32283E-06   -0.29723E-08   788   0.518E-04
  147 T=    59. E= -.41286696E+03 F= -.41315910E+03 E0= -.41313841E+03  EK= 0.29214E+00 SP= 0.00E+00 SK= 0.00E+00
       N       E                     dE             d eps       ncg     rms          rms(c)
RMM:   1    -0.413154614558E+03    0.44828E-02   -0.92403E+00  4264   0.867E-01    0.851E-01
RMM:   2    -0.413161562118E+03   -0.69476E-02   -0.10805E-01  4337   0.975E-02    0.615E-01
RMM:   3    -0.413159010106E+03    0.25520E-02   -0.10417E-02  4886   0.404E-02    0.859E-02
RMM:   4    -0.413165881578E+03   -0.68715E-02   -0.72687E-03  5171   0.724E-02    0.349E-01
RMM:   5    -0.413159000185E+03    0.68814E-02   -0.35154E-03  4849   0.583E-02    0.404E-02
RMM:   6    -0.413158995242E+03    0.49436E-05   -0.69426E-04  5624   0.261E-02    0.269E-02
RMM:   7    -0.413159014243E+03   -0.19001E-04   -0.18621E-04  5633   0.120E-02    0.136E-02
RMM:   8    -0.413159017302E+03   -0.30590E-05   -0.34829E-05  4975   0.665E-03    0.688E-03
RMM:   9    -0.413159019512E+03   -0.22099E-05   -0.35821E-06  2767   0.239E-03    0.322E-03
RMM:  10    -0.413159025892E+03   -0.63804E-05   -0.10784E-06  2508   0.165E-03    0.177E-03
RMM:  11    -0.413159033540E+03   -0.76480E-05   -0.87999E-07  2451   0.139E-03    0.877E-04
RMM:  12    -0.413159038102E+03   -0.45617E-05   -0.44222E-07  2126   0.103E-03    0.428E-04
RMM:  13    -0.413159041185E+03   -0.30832E-05   -0.26894E-07  1694   0.831E-04    0.202E-04
RMM:  14    -0.413159044380E+03   -0.31953E-05   -0.21452E-07  1427   0.758E-04    0.187E-04
RMM:  15    -0.413159046465E+03   -0.20850E-05   -0.14547E-07  1322   0.693E-04    0.970E-05
RMM:  16    -0.413159048342E+03   -0.18770E-05   -0.12606E-07  1302   0.659E-04    0.578E-05
RMM:  17    -0.413159048824E+03   -0.48142E-06   -0.59831E-08   981   0.569E-04
  148 T=    60. E= -.41286665E+03 F= -.41315905E+03 E0= -.41313837E+03  EK= 0.29240E+00 SP= 0.00E+00 SK= 0.00E+00
       N       E                     dE             d eps       ncg     rms          rms(c)
RMM:   1    -0.413154876526E+03    0.41718E-02   -0.93646E+00  4264   0.875E-01    0.869E-01
RMM:   2    -0.413160960608E+03   -0.60841E-02   -0.10765E-01  4319   0.101E-01    0.607E-01
RMM:   3    -0.413159149234E+03    0.18114E-02   -0.98922E-03  4928   0.427E-02    0.112E-01
RMM:   4    -0.413174634908E+03   -0.15486E-01   -0.15947E-02  5167   0.106E-01    0.521E-01
RMM:   5    -0.413159038688E+03    0.15596E-01   -0.78650E-03  4835   0.865E-02    0.462E-02
RMM:   6    -0.413159052536E+03   -0.13848E-04   -0.13772E-03  5723   0.355E-02    0.283E-02
RMM:   7    -0.413159058861E+03   -0.63251E-05   -0.24196E-04  5811   0.138E-02    0.138E-02
RMM:   8    -0.413159060357E+03   -0.14959E-05   -0.45202E-05  5144   0.723E-03    0.735E-03
RMM:   9    -0.413159060419E+03   -0.62457E-07   -0.51032E-06  2978   0.285E-03
  149 T=    60. E= -.41286663E+03 F= -.41315906E+03 E0= -.41313838E+03  EK= 0.29243E+00 SP= 0.00E+00 SK= 0.00E+00
       N       E                     dE             d eps       ncg     rms          rms(c)
RMM:   1    -0.413153991257E+03    0.50691E-02   -0.93899E+00  4266   0.879E-01    0.846E-01
RMM:   2    -0.413160741078E+03   -0.67498E-02   -0.10924E-01  4347   0.984E-02    0.603E-01
RMM:   3    -0.413160246200E+03    0.49488E-03   -0.10140E-02  5135   0.523E-02    0.175E-01
RMM:   4    -0.413195037286E+03   -0.34791E-01   -0.40860E-02  5139   0.169E-01    0.780E-01
RMM:   5    -0.413159082794E+03    0.35954E-01   -0.17139E-02  4813   0.131E-01    0.637E-02
RMM:   6    -0.413159093536E+03   -0.10742E-04   -0.28169E-03  5615   0.522E-02    0.265E-02
RMM:   7    -0.413159133483E+03   -0.39947E-04   -0.43853E-04  6091   0.181E-02    0.171E-02
RMM:   8    -0.413159142305E+03   -0.88222E-05   -0.82083E-05  5442   0.941E-03    0.919E-03
RMM:   9    -0.413159145185E+03   -0.28802E-05   -0.12350E-05  3736   0.416E-03    0.385E-03
RMM:  10    -0.413159149598E+03   -0.44131E-05   -0.26286E-06  2615   0.226E-03    0.251E-03
RMM:  11    -0.413159156189E+03   -0.65908E-05   -0.16144E-06  2529   0.193E-03    0.151E-03
RMM:  12    -0.413159161042E+03   -0.48529E-05   -0.84736E-07  2488   0.143E-03    0.578E-04
RMM:  13    -0.413159163411E+03   -0.23692E-05   -0.40933E-07  2049   0.101E-03    0.308E-04
RMM:  14    -0.413159165476E+03   -0.20652E-05   -0.26621E-07  1636   0.839E-04    0.197E-04
RMM:  15    -0.413159167812E+03   -0.23357E-05   -0.23747E-07  1509   0.783E-04    0.124E-04
RMM:  16    -0.413159168805E+03   -0.99310E-06   -0.13813E-07  1318   0.685E-04
  150 T=    60. E= -.41286667E+03 F= -.41315917E+03 E0= -.41313849E+03  EK= 0.29250E+00 SP= 0.00E+00 SK= 0.00E+00
