       N       E                     dE             d eps       ncg     rms          rms(c)
RMM:   1     0.220121885377E+04    0.22012E+04   -0.52443E+04  2132   0.654E+02
RMM:   2     0.705692598143E+03   -0.14955E+04   -0.16263E+04  2132   0.177E+02
RMM:   3     0.137766978535E+03   -0.56793E+03   -0.65730E+03  2132   0.117E+02
RMM:   4    -0.159005209511E+03   -0.29677E+03   -0.27816E+03  2132   0.936E+01
RMM:   5    -0.287433257287E+03   -0.12843E+03   -0.11442E+03  2132   0.595E+01
RMM:   6    -0.349838857385E+03   -0.62406E+02   -0.55184E+02  2132   0.423E+01
RMM:   7    -0.382729113624E+03   -0.32890E+02   -0.30426E+02  2132   0.293E+01
RMM:   8    -0.404206001188E+03   -0.21477E+02   -0.18408E+02  2132   0.233E+01
RMM:   9    -0.436062906022E+03   -0.31857E+02   -0.30750E+02  6109   0.173E+01
RMM:  10    -0.441320191309E+03   -0.52573E+01   -0.62785E+01  6392   0.539E+00
RMM:  11    -0.442512874266E+03   -0.11927E+01   -0.10961E+01  6228   0.173E+00
RMM:  12    -0.442883386003E+03   -0.37051E+00   -0.26338E+00  6372   0.598E-01    0.134E+02
RMM:  13    -0.425586027197E+03    0.17297E+02   -0.80802E+01  4673   0.119E+01    0.712E+01
RMM:  14    -0.499130056024E+03   -0.73544E+02   -0.53803E+02  5417   0.232E+01    0.306E+01
RMM:  15    -0.415666181464E+03    0.83464E+02   -0.19810E+02  5090   0.163E+01    0.686E+00
RMM:  16    -0.414006711495E+03    0.16595E+01   -0.39177E+01  6083   0.607E+00    0.424E+00
RMM:  17    -0.413214006541E+03    0.79270E+00   -0.24859E+00  5398   0.185E+00    0.244E+00
RMM:  18    -0.413172114787E+03    0.41892E-01   -0.79669E-01  5968   0.916E-01    0.165E+00
RMM:  19    -0.413168159721E+03    0.39551E-02   -0.28605E-01  5719   0.570E-01    0.860E-01
RMM:  20    -0.413184345885E+03   -0.16186E-01   -0.22565E-01  5553   0.502E-01    0.556E-01
RMM:  21    -0.413167959441E+03    0.16386E-01   -0.32309E-02  5010   0.222E-01    0.261E-01
RMM:  22    -0.413165773116E+03    0.21863E-02   -0.16853E-02  6000   0.115E-01    0.137E-01
RMM:  23    -0.413164638976E+03    0.11341E-02   -0.56925E-03  5966   0.683E-02    0.853E-02
RMM:  24    -0.413163333543E+03    0.13054E-02   -0.16798E-03  5339   0.415E-02    0.454E-02
RMM:  25    -0.413162921756E+03    0.41179E-03   -0.88357E-04  5314   0.274E-02    0.366E-02
RMM:  26    -0.413163052995E+03   -0.13124E-03   -0.84798E-04  5840   0.295E-02    0.331E-02
RMM:  27    -0.413163465685E+03   -0.41269E-03   -0.19620E-04  4527   0.201E-02    0.178E-02
RMM:  28    -0.413163922343E+03   -0.45666E-03   -0.17803E-04  5243   0.186E-02    0.881E-03
RMM:  29    -0.413164308633E+03   -0.38629E-03   -0.10678E-04  4389   0.152E-02    0.453E-03
RMM:  30    -0.413164535540E+03   -0.22691E-03   -0.78705E-05  4143   0.102E-02    0.318E-03
RMM:  31    -0.413164655318E+03   -0.11978E-03   -0.52697E-05  3231   0.661E-03    0.309E-03
RMM:  32    -0.413164679849E+03   -0.24531E-04   -0.20391E-05  2952   0.299E-03    0.150E-03
RMM:  33    -0.413164691854E+03   -0.12005E-04   -0.83816E-06  2791   0.222E-03    0.546E-04
RMM:  34    -0.413164694142E+03   -0.22881E-05   -0.46341E-06  2642   0.160E-03    0.750E-04
RMM:  35    -0.413164693593E+03    0.54897E-06   -0.21272E-06  2231   0.115E-03
    1 T=    61. E= -.41286691E+03 F= -.41316469E+03 E0= -.41314220E+03  EK= 0.29778E+00 SP= 0.00E+00 SK= 0.00E+00
       N       E                     dE             d eps       ncg     rms          rms(c)
RMM:   1    -0.413159133789E+03    0.55604E-02   -0.10044E+01  4008   0.657E-01    0.885E-01
RMM:   2    -0.413167469219E+03   -0.83354E-02   -0.12309E-01  3987   0.959E-02    0.646E-01
RMM:   3    -0.413164591640E+03    0.28776E-02   -0.10566E-02  4719   0.439E-02    0.111E-01
RMM:   4    -0.413183833670E+03   -0.19242E-01   -0.20200E-02  5211   0.118E-01    0.580E-01
RMM:   5    -0.413164283029E+03    0.19551E-01   -0.96908E-03  4857   0.972E-02    0.411E-02
RMM:   6    -0.413164413517E+03   -0.13049E-03   -0.16758E-03  5795   0.396E-02    0.281E-02
RMM:   7    -0.413164418662E+03   -0.51446E-05   -0.30972E-04  5689   0.160E-02    0.167E-02
RMM:   8    -0.413164419478E+03   -0.81641E-06   -0.38852E-05  4808   0.671E-03    0.721E-03
RMM:   9    -0.413164422879E+03   -0.34001E-05   -0.83129E-06  3284   0.310E-03    0.563E-03
RMM:  10    -0.413164427846E+03   -0.49671E-05   -0.16387E-06  2562   0.192E-03    0.352E-03
RMM:  11    -0.413164433822E+03   -0.59761E-05   -0.13706E-06  2537   0.170E-03    0.165E-03
RMM:  12    -0.413164440204E+03   -0.63820E-05   -0.12488E-06  2507   0.156E-03    0.741E-04
RMM:  13    -0.413164441156E+03   -0.95210E-06   -0.48774E-07  2147   0.103E-03
    2 T=    61. E= -.41286677E+03 F= -.41316444E+03 E0= -.41314194E+03  EK= 0.29767E+00 SP= 0.00E+00 SK= 0.00E+00
       N       E                     dE             d eps       ncg     rms          rms(c)
RMM:   1    -0.413160229614E+03    0.42106E-02   -0.10057E+01  4196   0.661E-01    0.907E-01
RMM:   2    -0.413167397937E+03   -0.71683E-02   -0.12105E-01  3999   0.947E-02    0.640E-01
RMM:   3    -0.413165143631E+03    0.22543E-02   -0.10450E-02  4763   0.424E-02    0.125E-01
RMM:   4    -0.413185998663E+03   -0.20855E-01   -0.21248E-02  5184   0.122E-01    0.604E-01
RMM:   5    -0.413164854528E+03    0.21144E-01   -0.10291E-02  4835   0.101E-01    0.425E-02
RMM:   6    -0.413164991480E+03   -0.13695E-03   -0.18236E-03  5804   0.408E-02    0.282E-02
RMM:   7    -0.413164989962E+03    0.15188E-05   -0.31227E-04  5663   0.167E-02    0.177E-02
RMM:   8    -0.413164982606E+03    0.73557E-05   -0.49588E-05  4947   0.765E-03    0.834E-03
RMM:   9    -0.413164981608E+03    0.99777E-06   -0.10024E-05  3605   0.356E-03    0.648E-03
RMM:  10    -0.413164982069E+03   -0.46097E-06   -0.15783E-06  2552   0.207E-03
    3 T=    61. E= -.41286714E+03 F= -.41316498E+03 E0= -.41314249E+03  EK= 0.29785E+00 SP= 0.00E+00 SK= 0.00E+00
       N       E                     dE             d eps       ncg     rms          rms(c)
RMM:   1    -0.413159702246E+03    0.52794E-02   -0.99780E+00  4222   0.662E-01    0.891E-01
RMM:   2    -0.413167108577E+03   -0.74063E-02   -0.12043E-01  4161   0.931E-02    0.634E-01
RMM:   3    -0.413167732638E+03   -0.62406E-03   -0.12364E-02  5135   0.652E-02    0.256E-01
RMM:   4    -0.413198156744E+03   -0.30424E-01   -0.43413E-02  5142   0.176E-01    0.755E-01
RMM:   5    -0.413164649971E+03    0.33507E-01   -0.14278E-02  4758   0.125E-01    0.589E-02
RMM:   6    -0.413164730999E+03   -0.81027E-04   -0.25247E-03  5601   0.498E-02    0.286E-02
RMM:   7    -0.413164753711E+03   -0.22712E-04   -0.39739E-04  6052   0.170E-02    0.179E-02
RMM:   8    -0.413164752619E+03    0.10922E-05   -0.68336E-05  5260   0.886E-03    0.795E-03
RMM:   9    -0.413164750496E+03    0.21225E-05   -0.10325E-05  3529   0.375E-03    0.394E-03
RMM:  10    -0.413164751802E+03   -0.13057E-05   -0.23882E-06  2608   0.224E-03    0.269E-03
RMM:  11    -0.413164753407E+03   -0.16053E-05   -0.14064E-06  2534   0.184E-03    0.150E-03
RMM:  12    -0.413164754341E+03   -0.93435E-06   -0.78414E-07  2493   0.142E-03
    4 T=    61. E= -.41286689E+03 F= -.41316475E+03 E0= -.41314227E+03  EK= 0.29787E+00 SP= 0.00E+00 SK= 0.00E+00
       N       E                     dE             d eps       ncg     rms          rms(c)
RMM:   1    -0.413159639208E+03    0.51142E-02   -0.10033E+01  4236   0.668E-01    0.883E-01
RMM:   2    -0.413167639403E+03   -0.80002E-02   -0.12309E-01  4011   0.920E-02    0.645E-01
RMM:   3    -0.413165268563E+03    0.23708E-02   -0.10575E-02  4923   0.426E-02    0.125E-01
RMM:   4    -0.413194660212E+03   -0.29392E-01   -0.30500E-02  5161   0.146E-01    0.715E-01
RMM:   5    -0.413164731725E+03    0.29928E-01   -0.14433E-02  4821   0.119E-01    0.452E-02
RMM:   6    -0.413164911504E+03   -0.17978E-03   -0.24270E-03  5791   0.476E-02    0.288E-02
RMM:   7    -0.413164920435E+03   -0.89308E-05   -0.37242E-04  5795   0.173E-02    0.185E-02
RMM:   8    -0.413164919785E+03    0.65042E-06   -0.59578E-05  5033   0.802E-03    0.867E-03
RMM:   9    -0.413164920953E+03   -0.11681E-05   -0.11970E-05  3827   0.391E-03    0.639E-03
RMM:  10    -0.413164924941E+03   -0.39886E-05   -0.17391E-06  2574   0.203E-03    0.413E-03
RMM:  11    -0.413164929775E+03   -0.48341E-05   -0.14260E-06  2546   0.184E-03    0.201E-03
RMM:  12    -0.413164935171E+03   -0.53953E-05   -0.15431E-06  2565   0.178E-03    0.855E-04
RMM:  13    -0.413164935925E+03   -0.75408E-06   -0.42839E-07  2257   0.112E-03
    5 T=    61. E= -.41286692E+03 F= -.41316494E+03 E0= -.41314246E+03  EK= 0.29801E+00 SP= 0.00E+00 SK= 0.00E+00
       N       E                     dE             d eps       ncg     rms          rms(c)
RMM:   1    -0.413160541457E+03    0.43937E-02   -0.10062E+01  4251   0.675E-01    0.903E-01
RMM:   2    -0.413167734126E+03   -0.71927E-02   -0.12145E-01  4081   0.952E-02    0.642E-01
RMM:   3    -0.413165542332E+03    0.21918E-02   -0.10439E-02  4679   0.440E-02    0.121E-01
RMM:   4    -0.413184715824E+03   -0.19173E-01   -0.19386E-02  5158   0.116E-01    0.581E-01
RMM:   5    -0.413165258956E+03    0.19457E-01   -0.95440E-03  4836   0.960E-02    0.411E-02
RMM:   6    -0.413165376881E+03   -0.11792E-03   -0.16557E-03  5826   0.385E-02    0.266E-02
RMM:   7    -0.413165375786E+03    0.10944E-05   -0.27562E-04  5659   0.158E-02    0.168E-02
RMM:   8    -0.413165368352E+03    0.74345E-05   -0.47945E-05  4881   0.749E-03    0.807E-03
RMM:   9    -0.413165367234E+03    0.11180E-05   -0.94760E-06  3585   0.356E-03    0.634E-03
RMM:  10    -0.413165367672E+03   -0.43837E-06   -0.14581E-06  2540   0.205E-03
    6 T=    61. E= -.41286710E+03 F= -.41316537E+03 E0= -.41314290E+03  EK= 0.29827E+00 SP= 0.00E+00 SK= 0.00E+00
       N       E                     dE             d eps       ncg     rms          rms(c)
RMM:   1    -0.413160191455E+03    0.51758E-02   -0.10009E+01  4256   0.679E-01    0.898E-01
RMM:   2    -0.413167545651E+03   -0.73542E-02   -0.12069E-01  4228   0.954E-02    0.635E-01
RMM:   3    -0.413167874029E+03   -0.32838E-03   -0.12255E-02  5099   0.637E-02    0.249E-01
RMM:   4    -0.413199425324E+03   -0.31551E-01   -0.43599E-02  5124   0.176E-01    0.765E-01
RMM:   5    -0.413165045561E+03    0.34380E-01   -0.14881E-02  4764   0.126E-01    0.581E-02
RMM:   6    -0.413165141786E+03   -0.96225E-04   -0.25633E-03  5622   0.502E-02    0.292E-02
RMM:   7    -0.413165159142E+03   -0.17356E-04   -0.39829E-04  6025   0.170E-02    0.181E-02
RMM:   8    -0.413165155889E+03    0.32526E-05   -0.68177E-05  5239   0.884E-03    0.799E-03
RMM:   9    -0.413165152118E+03    0.37718E-05   -0.10431E-05  3528   0.375E-03    0.403E-03
RMM:  10    -0.413165152059E+03    0.58666E-07   -0.24782E-06  2623   0.225E-03
    7 T=    61. E= -.41286679E+03 F= -.41316515E+03 E0= -.41314270E+03  EK= 0.29836E+00 SP= 0.00E+00 SK= 0.00E+00
       N       E                     dE             d eps       ncg     rms          rms(c)
RMM:   1    -0.413160440181E+03    0.47119E-02   -0.10019E+01  4266   0.683E-01    0.881E-01
RMM:   2    -0.413168480020E+03   -0.80398E-02   -0.12253E-01  4134   0.933E-02    0.642E-01
RMM:   3    -0.413166531641E+03    0.19484E-02   -0.10869E-02  5020   0.492E-02    0.158E-01
RMM:   4    -0.413206835681E+03   -0.40304E-01   -0.44053E-02  5144   0.175E-01    0.836E-01
RMM:   5    -0.413165477780E+03    0.41358E-01   -0.19555E-02  4803   0.139E-01    0.516E-02
RMM:   6    -0.413165686852E+03   -0.20907E-03   -0.31975E-03  5762   0.555E-02    0.302E-02
RMM:   7    -0.413165701579E+03   -0.14727E-04   -0.45549E-04  5928   0.186E-02    0.199E-02
RMM:   8    -0.413165701967E+03   -0.38794E-06   -0.73823E-05  5233   0.876E-03    0.946E-03
RMM:   9    -0.413165701332E+03    0.63460E-06   -0.14485E-05  4033   0.424E-03    0.599E-03
RMM:  10    -0.413165704432E+03   -0.30991E-05   -0.24674E-06  2619   0.218E-03    0.395E-03
RMM:  11    -0.413165707385E+03   -0.29535E-05   -0.12349E-06  2532   0.172E-03    0.205E-03
RMM:  12    -0.413165711076E+03   -0.36911E-05   -0.15175E-06  2562   0.178E-03    0.737E-04
RMM:  13    -0.413165712146E+03   -0.10697E-05   -0.55135E-07  2308   0.120E-03    0.574E-04
RMM:  14    -0.413165712001E+03    0.14525E-06   -0.22715E-07  1757   0.820E-04
    8 T=    61. E= -.41286701E+03 F= -.41316571E+03 E0= -.41314328E+03  EK= 0.29870E+00 SP= 0.00E+00 SK= 0.00E+00
       N       E                     dE             d eps       ncg     rms          rms(c)
RMM:   1    -0.413164719234E+03    0.99291E-03   -0.10108E+01  4281   0.716E-01    0.898E-01
RMM:   2    -0.413168603868E+03   -0.38846E-02   -0.12503E-01  4147   0.973E-02    0.645E-01
RMM:   3    -0.413166145897E+03    0.24580E-02   -0.10413E-02  4788   0.428E-02    0.126E-01
RMM:   4    -0.413189645760E+03   -0.23500E-01   -0.23994E-02  5155   0.129E-01    0.641E-01
RMM:   5    -0.413165762877E+03    0.23883E-01   -0.11729E-02  4816   0.106E-01    0.428E-02
RMM:   6    -0.413165908518E+03   -0.14564E-03   -0.19662E-03  5804   0.426E-02    0.283E-02
RMM:   7    -0.413165909225E+03   -0.70692E-06   -0.32039E-04  5672   0.167E-02    0.176E-02
RMM:   8    -0.413165903738E+03    0.54870E-05   -0.51832E-05  4955   0.774E-03    0.837E-03
RMM:   9    -0.413165902301E+03    0.14372E-05   -0.10540E-05  3670   0.370E-03    0.640E-03
RMM:  10    -0.413165903017E+03   -0.71569E-06   -0.14799E-06  2545   0.200E-03
    9 T=    61. E= -.41286698E+03 F= -.41316590E+03 E0= -.41314349E+03  EK= 0.29892E+00 SP= 0.00E+00 SK= 0.00E+00
       N       E                     dE             d eps       ncg     rms          rms(c)
RMM:   1    -0.413161235948E+03    0.46664E-02   -0.10046E+01  4296   0.691E-01    0.905E-01
RMM:   2    -0.413168342860E+03   -0.71069E-02   -0.12084E-01  4269   0.958E-02    0.637E-01
RMM:   3    -0.413168818385E+03   -0.47552E-03   -0.12449E-02  5100   0.654E-02    0.253E-01
RMM:   4    -0.413199577559E+03   -0.30759E-01   -0.43264E-02  5124   0.175E-01    0.757E-01
RMM:   5    -0.413165874814E+03    0.33703E-01   -0.14540E-02  4752   0.125E-01    0.579E-02
RMM:   6    -0.413165967267E+03   -0.92453E-04   -0.25368E-03  5611   0.496E-02    0.295E-02
RMM:   7    -0.413165979250E+03   -0.11983E-04   -0.39236E-04  6017   0.168E-02    0.182E-02
RMM:   8    -0.413165973840E+03    0.54096E-05   -0.67417E-05  5237   0.879E-03    0.805E-03
RMM:   9    -0.413165968679E+03    0.51615E-05   -0.10307E-05  3527   0.375E-03    0.405E-03
RMM:  10    -0.413165967407E+03    0.12716E-05   -0.24239E-06  2612   0.224E-03    0.278E-03
RMM:  11    -0.413165965629E+03    0.17782E-05   -0.12623E-06  2518   0.178E-03    0.146E-03
RMM:  12    -0.413165963690E+03    0.19389E-05   -0.77507E-07  2485   0.140E-03    0.499E-04
RMM:  13    -0.413165962750E+03    0.94026E-06   -0.37994E-07  2073   0.999E-04
   10 T=    61. E= -.41286683E+03 F= -.41316596E+03 E0= -.41314358E+03  EK= 0.29914E+00 SP= 0.00E+00 SK= 0.00E+00
       N       E                     dE             d eps       ncg     rms          rms(c)
RMM:   1    -0.413161558006E+03    0.44057E-02   -0.10008E+01  4287   0.703E-01    0.882E-01
RMM:   2    -0.413169394413E+03   -0.78364E-02   -0.12238E-01  4222   0.955E-02    0.640E-01
RMM:   3    -0.413167104405E+03    0.22900E-02   -0.10430E-02  4880   0.447E-02    0.131E-01
RMM:   4    -0.413198047193E+03   -0.30943E-01   -0.32217E-02  5139   0.149E-01    0.733E-01
RMM:   5    -0.413166529692E+03    0.31518E-01   -0.15227E-02  4802   0.122E-01    0.460E-02
RMM:   6    -0.413166716284E+03   -0.18659E-03   -0.25401E-03  5779   0.486E-02    0.296E-02
RMM:   7    -0.413166721017E+03   -0.47324E-05   -0.38432E-04  5748   0.176E-02    0.189E-02
RMM:   8    -0.413166717010E+03    0.40070E-05   -0.61613E-05  5038   0.821E-03    0.902E-03
RMM:   9    -0.413166715359E+03    0.16505E-05   -0.12602E-05  3874   0.401E-03    0.659E-03
RMM:  10    -0.413166716398E+03   -0.10383E-05   -0.17830E-06  2573   0.206E-03    0.424E-03
RMM:  11    -0.413166717757E+03   -0.13592E-05   -0.15140E-06  2541   0.191E-03    0.199E-03
RMM:  12    -0.413166719072E+03   -0.13150E-05   -0.14683E-06  2545   0.178E-03    0.836E-04
RMM:  13    -0.413166719188E+03   -0.11608E-06   -0.41134E-07  2240   0.112E-03
   11 T=    61. E= -.41286708E+03 F= -.41316672E+03 E0= -.41314436E+03  EK= 0.29964E+00 SP= 0.00E+00 SK= 0.00E+00
       N       E                     dE             d eps       ncg     rms          rms(c)
RMM:   1    -0.413161597475E+03    0.51216E-02   -0.10084E+01  4290   0.703E-01    0.894E-01
RMM:   2    -0.413169319573E+03   -0.77221E-02   -0.12306E-01  4214   0.949E-02    0.647E-01
RMM:   3    -0.413166904223E+03    0.24153E-02   -0.10537E-02  4794   0.417E-02    0.119E-01
RMM:   4    -0.413190082564E+03   -0.23178E-01   -0.23824E-02  5136   0.128E-01    0.637E-01
RMM:   5    -0.413166525261E+03    0.23557E-01   -0.11463E-02  4808   0.105E-01    0.424E-02
RMM:   6    -0.413166671655E+03   -0.14639E-03   -0.19690E-03  5809   0.419E-02    0.270E-02
RMM:   7    -0.413166676476E+03   -0.48206E-05   -0.29974E-04  5706   0.161E-02    0.172E-02
RMM:   8    -0.413166670979E+03    0.54970E-05   -0.56009E-05  4954   0.789E-03    0.863E-03
RMM:   9    -0.413166669453E+03    0.15252E-05   -0.11010E-05  3774   0.382E-03    0.664E-03
RMM:  10    -0.413166670277E+03   -0.82318E-06   -0.14804E-06  2538   0.203E-03
   12 T=    61. E= -.41286676E+03 F= -.41316667E+03 E0= -.41314434E+03  EK= 0.29992E+00 SP= 0.00E+00 SK= 0.00E+00
       N       E                     dE             d eps       ncg     rms          rms(c)
RMM:   1    -0.413162633908E+03    0.40355E-02   -0.10084E+01  4304   0.704E-01    0.910E-01
RMM:   2    -0.413169303770E+03   -0.66699E-02   -0.12125E-01  4280   0.921E-02    0.640E-01
RMM:   3    -0.413170107730E+03   -0.80396E-03   -0.12630E-02  5112   0.644E-02    0.255E-01
RMM:   4    -0.413200861034E+03   -0.30753E-01   -0.43493E-02  5115   0.175E-01    0.758E-01
RMM:   5    -0.413167106652E+03    0.33754E-01   -0.14532E-02  4744   0.125E-01    0.573E-02
RMM:   6    -0.413167205266E+03   -0.98614E-04   -0.25236E-03  5608   0.496E-02    0.297E-02
RMM:   7    -0.413167215069E+03   -0.98035E-05   -0.38893E-04  5992   0.170E-02    0.184E-02
RMM:   8    -0.413167208674E+03    0.63949E-05   -0.66936E-05  5221   0.877E-03    0.810E-03
RMM:   9    -0.413167202655E+03    0.60193E-05   -0.10469E-05  3545   0.378E-03    0.410E-03
RMM:  10    -0.413167200543E+03    0.21123E-05   -0.23930E-06  2610   0.223E-03    0.283E-03
RMM:  11    -0.413167197658E+03    0.28843E-05   -0.12022E-06  2516   0.176E-03    0.146E-03
RMM:  12    -0.413167194630E+03    0.30283E-05   -0.76391E-07  2474   0.140E-03    0.492E-04
RMM:  13    -0.413167193206E+03    0.14237E-05   -0.37208E-07  2068   0.999E-04    0.312E-04
RMM:  14    -0.413167192007E+03    0.11992E-05   -0.21917E-07  1606   0.798E-04    0.215E-04
RMM:  15    -0.413167190095E+03    0.19124E-05   -0.19221E-07  1444   0.744E-04    0.109E-04
RMM:  16    -0.413167188091E+03    0.20039E-05   -0.16716E-07  1406   0.709E-04    0.123E-04
RMM:  17    -0.413167186331E+03    0.17598E-05   -0.12885E-07  1314   0.656E-04    0.704E-05
RMM:  18    -0.413167184842E+03    0.14889E-05   -0.92551E-08  1093   0.601E-04    0.294E-05
RMM:  19    -0.413167184284E+03    0.55776E-06   -0.44703E-08   860   0.550E-04
   13 T=    61. E= -.41286683E+03 F= -.41316718E+03 E0= -.41314488E+03  EK= 0.30036E+00 SP= 0.00E+00 SK= 0.00E+00
       N       E                     dE             d eps       ncg     rms          rms(c)
RMM:   1    -0.413162838665E+03    0.43462E-02   -0.10014E+01  4292   0.714E-01    0.886E-01
RMM:   2    -0.413170388049E+03   -0.75494E-02   -0.12202E-01  4234   0.921E-02    0.639E-01
RMM:   3    -0.413168388788E+03    0.19993E-02   -0.10474E-02  4937   0.436E-02    0.140E-01
RMM:   4    -0.413202291422E+03   -0.33903E-01   -0.35861E-02  5135   0.157E-01    0.767E-01
RMM:   5    -0.413167700803E+03    0.34591E-01   -0.16792E-02  4794   0.127E-01    0.478E-02
RMM:   6    -0.413167895545E+03   -0.19474E-03   -0.27370E-03  5759   0.507E-02    0.305E-02
RMM:   7    -0.413167897888E+03   -0.23424E-05   -0.40680E-04  5741   0.181E-02    0.194E-02
RMM:   8    -0.413167892486E+03    0.54020E-05   -0.65547E-05  5133   0.844E-03    0.926E-03
RMM:   9    -0.413167889108E+03    0.33781E-05   -0.13530E-05  4012   0.416E-03    0.650E-03
RMM:  10    -0.413167888890E+03    0.21718E-06   -0.18886E-06  2564   0.207E-03
   14 T=    61. E= -.41286699E+03 F= -.41316789E+03 E0= -.41314562E+03  EK= 0.30090E+00 SP= 0.00E+00 SK= 0.00E+00
       N       E                     dE             d eps       ncg     rms          rms(c)
RMM:   1    -0.413162815191E+03    0.50739E-02   -0.10101E+01  4302   0.713E-01    0.891E-01
RMM:   2    -0.413170903782E+03   -0.80886E-02   -0.12386E-01  4298   0.957E-02    0.649E-01
RMM:   3    -0.413172328818E+03   -0.14250E-02   -0.13903E-02  5123   0.733E-02    0.297E-01
RMM:   4    -0.413199329299E+03   -0.27000E-01   -0.44734E-02  5099   0.179E-01    0.730E-01
RMM:   5    -0.413167839321E+03    0.31490E-01   -0.12777E-02  4708   0.119E-01    0.574E-02
RMM:   6    -0.413167911919E+03   -0.72598E-04   -0.23037E-03  5569   0.471E-02    0.276E-02
RMM:   7    -0.413167931051E+03   -0.19132E-04   -0.36197E-04  6005   0.166E-02    0.176E-02
RMM:   8    -0.413167931150E+03   -0.99040E-07   -0.67811E-05  5234   0.882E-03    0.786E-03
RMM:   9    -0.413167928827E+03    0.23222E-05   -0.10020E-05  3495   0.380E-03    0.373E-03
RMM:  10    -0.413167929836E+03   -0.10084E-05   -0.21469E-06  2578   0.215E-03    0.247E-03
RMM:  11    -0.413167931159E+03   -0.13231E-05   -0.14104E-06  2526   0.183E-03    0.145E-03
RMM:  12    -0.413167931587E+03   -0.42798E-06   -0.72168E-07  2470   0.138E-03
   15 T=    61. E= -.41286666E+03 F= -.41316793E+03 E0= -.41314570E+03  EK= 0.30127E+00 SP= 0.00E+00 SK= 0.00E+00
       N       E                     dE             d eps       ncg     rms          rms(c)
RMM:   1    -0.413164263944E+03    0.36672E-02   -0.10115E+01  4301   0.716E-01    0.911E-01
RMM:   2    -0.413171505092E+03   -0.72411E-02   -0.12208E-01  4247   0.981E-02    0.643E-01
RMM:   3    -0.413169519917E+03    0.19852E-02   -0.10843E-02  4920   0.476E-02    0.149E-01
RMM:   4    -0.413204930595E+03   -0.35411E-01   -0.37511E-02  5138   0.161E-01    0.783E-01
RMM:   5    -0.413168767697E+03    0.36163E-01   -0.17501E-02  4795   0.130E-01    0.494E-02
RMM:   6    -0.413168980972E+03   -0.21327E-03   -0.29759E-03  5780   0.523E-02    0.319E-02
RMM:   7    -0.413168979863E+03    0.11083E-05   -0.42809E-04  5766   0.188E-02    0.204E-02
RMM:   8    -0.413168969855E+03    0.10008E-04   -0.71042E-05  5135   0.878E-03    0.102E-02
RMM:   9    -0.413168963240E+03    0.66148E-05   -0.14173E-05  4061   0.427E-03    0.715E-03
RMM:  10    -0.413168959567E+03    0.36736E-05   -0.20679E-06  2587   0.218E-03    0.456E-03
RMM:  11    -0.413168956225E+03    0.33421E-05   -0.13946E-06  2530   0.184E-03    0.240E-03
RMM:  12    -0.413168950973E+03    0.52514E-05   -0.16569E-06  2558   0.196E-03    0.915E-04
RMM:  13    -0.413168949365E+03    0.16087E-05   -0.52222E-07  2346   0.127E-03    0.669E-04
RMM:  14    -0.413168949328E+03    0.36278E-07   -0.23079E-07  1871   0.847E-04
   16 T=    61. E= -.41286702E+03 F= -.41316895E+03 E0= -.41314675E+03  EK= 0.30193E+00 SP= 0.00E+00 SK= 0.00E+00
       N       E                     dE             d eps       ncg     rms          rms(c)
RMM:   1    -0.413164377627E+03    0.45717E-02   -0.10036E+01  4298   0.717E-01    0.892E-01
RMM:   2    -0.413172072975E+03   -0.76953E-02   -0.12200E-01  4255   0.980E-02    0.638E-01
RMM:   3    -0.413169708989E+03    0.23640E-02   -0.10374E-02  4834   0.457E-02    0.132E-01
RMM:   4    -0.413197780103E+03   -0.28071E-01   -0.28980E-02  5143   0.142E-01    0.699E-01
RMM:   5    -0.413169213999E+03    0.28566E-01   -0.13972E-02  4805   0.116E-01    0.454E-02
RMM:   6    -0.413169398416E+03   -0.18442E-03   -0.24155E-03  5806   0.463E-02    0.297E-02
RMM:   7    -0.413169398342E+03    0.74222E-07   -0.35531E-04  5687   0.175E-02    0.186E-02
RMM:   8    -0.413169389670E+03    0.86714E-05   -0.61718E-05  5016   0.829E-03    0.928E-03
RMM:   9    -0.413169384981E+03    0.46893E-05   -0.12636E-05  3929   0.403E-03    0.691E-03
RMM:  10    -0.413169382735E+03    0.22461E-05   -0.16665E-06  2552   0.208E-03    0.440E-03
RMM:  11    -0.413169380207E+03    0.25283E-05   -0.15140E-06  2538   0.193E-03    0.210E-03
RMM:  12    -0.413169377047E+03    0.31598E-05   -0.13504E-06  2519   0.179E-03    0.816E-04
RMM:  13    -0.413169376354E+03    0.69299E-06   -0.41480E-07  2226   0.113E-03
   17 T=    62. E= -.41286693E+03 F= -.41316938E+03 E0= -.41314722E+03  EK= 0.30245E+00 SP= 0.00E+00 SK= 0.00E+00
       N       E                     dE             d eps       ncg     rms          rms(c)
RMM:   1    -0.413164776680E+03    0.46004E-02   -0.10114E+01  4297   0.726E-01    0.889E-01
RMM:   2    -0.413172828782E+03   -0.80521E-02   -0.12441E-01  4267   0.959E-02    0.650E-01
RMM:   3    -0.413170186023E+03    0.26428E-02   -0.10817E-02  4818   0.461E-02    0.123E-01
RMM:   4    -0.413198375781E+03   -0.28190E-01   -0.29299E-02  5135   0.142E-01    0.700E-01
RMM:   5    -0.413169673059E+03    0.28703E-01   -0.14095E-02  4805   0.116E-01    0.443E-02
RMM:   6    -0.413169844123E+03   -0.17106E-03   -0.23104E-03  5819   0.458E-02    0.281E-02
RMM:   7    -0.413169850228E+03   -0.61044E-05   -0.33505E-04  5723   0.170E-02    0.178E-02
RMM:   8    -0.413169845192E+03    0.50359E-05   -0.63471E-05  4998   0.829E-03    0.912E-03
RMM:   9    -0.413169842243E+03    0.29489E-05   -0.12958E-05  3999   0.410E-03    0.675E-03
RMM:  10    -0.413169842236E+03    0.65629E-08   -0.16712E-06  2556   0.205E-03
   18 T=    62. E= -.41286677E+03 F= -.41316984E+03 E0= -.41314772E+03  EK= 0.30308E+00 SP= 0.00E+00 SK= 0.00E+00
       N       E                     dE             d eps       ncg     rms          rms(c)
RMM:   1    -0.413166375339E+03    0.34669E-02   -0.10145E+01  4304   0.727E-01    0.911E-01
RMM:   2    -0.413173451495E+03   -0.70762E-02   -0.12313E-01  4309   0.945E-02    0.647E-01
RMM:   3    -0.413174830290E+03   -0.13788E-02   -0.13413E-02  5116   0.692E-02    0.282E-01
RMM:   4    -0.413202641545E+03   -0.27811E-01   -0.43654E-02  5096   0.176E-01    0.733E-01
RMM:   5    -0.413171007878E+03    0.31634E-01   -0.13178E-02  4709   0.120E-01    0.572E-02
RMM:   6    -0.413171094025E+03   -0.86147E-04   -0.23743E-03  5594   0.474E-02    0.294E-02
RMM:   7    -0.413171102606E+03   -0.85810E-05   -0.37036E-04  5992   0.167E-02    0.184E-02
RMM:   8    -0.413171095836E+03    0.67698E-05   -0.66477E-05  5201   0.876E-03    0.804E-03
RMM:   9    -0.413171088787E+03    0.70497E-05   -0.99502E-06  3528   0.378E-03    0.393E-03
RMM:  10    -0.413171086241E+03    0.25455E-05   -0.22175E-06  2579   0.219E-03    0.266E-03
RMM:  11    -0.413171082351E+03    0.38908E-05   -0.12319E-06  2514   0.177E-03    0.143E-03
RMM:  12    -0.413171078704E+03    0.36466E-05   -0.67444E-07  2453   0.137E-03    0.472E-04
RMM:  13    -0.413171076833E+03    0.18705E-05   -0.33310E-07  2028   0.967E-04    0.297E-04
RMM:  14    -0.413171075236E+03    0.15979E-05   -0.19275E-07  1535   0.776E-04    0.205E-04
RMM:  15    -0.413171072535E+03    0.27010E-05   -0.16375E-07  1365   0.727E-04    0.103E-04
RMM:  16    -0.413171070165E+03    0.23696E-05   -0.12913E-07  1332   0.685E-04    0.108E-04
RMM:  17    -0.413171067482E+03    0.26833E-05   -0.11724E-07  1350   0.659E-04    0.596E-05
RMM:  18    -0.413171065892E+03    0.15900E-05   -0.68124E-08  1040   0.583E-04    0.276E-05
RMM:  19    -0.413171065124E+03    0.76756E-06   -0.37176E-08   858   0.546E-04
   19 T=    62. E= -.41286709E+03 F= -.41317107E+03 E0= -.41314899E+03  EK= 0.30397E+00 SP= 0.00E+00 SK= 0.00E+00
       N       E                     dE             d eps       ncg     rms          rms(c)
RMM:   1    -0.413166998633E+03    0.40673E-02   -0.10091E+01  4297   0.737E-01    0.900E-01
RMM:   2    -0.413173715238E+03   -0.67166E-02   -0.12251E-01  4259   0.952E-02    0.640E-01
RMM:   3    -0.413172059608E+03    0.16556E-02   -0.10732E-02  4949   0.470E-02    0.152E-01
RMM:   4    -0.413208989617E+03   -0.36930E-01   -0.39561E-02  5141   0.165E-01    0.799E-01
RMM:   5    -0.413171254177E+03    0.37735E-01   -0.18366E-02  4793   0.133E-01    0.499E-02
RMM:   6    -0.413171454924E+03   -0.20075E-03   -0.29972E-03  5777   0.529E-02    0.321E-02
RMM:   7    -0.413171451866E+03    0.30581E-05   -0.43883E-04  5742   0.190E-02    0.204E-02
RMM:   8    -0.413171442183E+03    0.96833E-05   -0.72038E-05  5187   0.882E-03    0.989E-03
RMM:   9    -0.413171435474E+03    0.67090E-05   -0.14821E-05  4116   0.432E-03    0.677E-03
RMM:  10    -0.413171431890E+03    0.35838E-05   -0.20915E-06  2581   0.215E-03    0.436E-03
RMM:  11    -0.413171428805E+03    0.30848E-05   -0.11951E-06  2508   0.175E-03    0.232E-03
RMM:  12    -0.413171423984E+03    0.48206E-05   -0.14922E-06  2535   0.188E-03    0.868E-04
RMM:  13    -0.413171422245E+03    0.17397E-05   -0.49821E-07  2325   0.124E-03    0.661E-04
RMM:  14    -0.413171422328E+03   -0.83543E-07   -0.22547E-07  1858   0.838E-04
   20 T=    62. E= -.41286682E+03 F= -.41317142E+03 E0= -.41314939E+03  EK= 0.30460E+00 SP= 0.00E+00 SK= 0.00E+00
       N       E                     dE             d eps       ncg     rms          rms(c)
RMM:   1    -0.413167631842E+03    0.37904E-02   -0.10136E+01  4296   0.746E-01    0.889E-01
RMM:   2    -0.413175561309E+03   -0.79295E-02   -0.12598E-01  4263   0.980E-02    0.650E-01
RMM:   3    -0.413172896182E+03    0.26651E-02   -0.10794E-02  4872   0.445E-02    0.125E-01
RMM:   4    -0.413201433246E+03   -0.28537E-01   -0.29783E-02  5148   0.143E-01    0.704E-01
RMM:   5    -0.413172378645E+03    0.29055E-01   -0.14277E-02  4801   0.117E-01    0.450E-02
RMM:   6    -0.413172547721E+03   -0.16908E-03   -0.24227E-03  5831   0.462E-02    0.285E-02
RMM:   7    -0.413172551900E+03   -0.41790E-05   -0.33712E-04  5713   0.171E-02    0.177E-02
RMM:   8    -0.413172546436E+03    0.54639E-05   -0.66037E-05  5019   0.837E-03    0.947E-03
RMM:   9    -0.413172542220E+03    0.42163E-05   -0.13334E-05  4071   0.420E-03    0.691E-03
RMM:  10    -0.413172541484E+03    0.73537E-06   -0.17353E-06  2561   0.208E-03
   21 T=    62. E= -.41286699E+03 F= -.41317254E+03 E0= -.41315055E+03  EK= 0.30555E+00 SP= 0.00E+00 SK= 0.00E+00
       N       E                     dE             d eps       ncg     rms          rms(c)
RMM:   1    -0.413168869594E+03    0.36726E-02   -0.10187E+01  4299   0.745E-01    0.909E-01
RMM:   2    -0.413176306150E+03   -0.74366E-02   -0.12437E-01  4319   0.978E-02    0.651E-01
RMM:   3    -0.413177452161E+03   -0.11460E-02   -0.13628E-02  5110   0.710E-02    0.285E-01
RMM:   4    -0.413205963125E+03   -0.28511E-01   -0.44807E-02  5101   0.178E-01    0.742E-01
RMM:   5    -0.413173509968E+03    0.32453E-01   -0.13561E-02  4713   0.122E-01    0.568E-02
RMM:   6    -0.413173603808E+03   -0.93840E-04   -0.24059E-03  5618   0.480E-02    0.293E-02
RMM:   7    -0.413173610108E+03   -0.63003E-05   -0.36926E-04  5975   0.170E-02    0.185E-02
RMM:   8    -0.413173603745E+03    0.63630E-05   -0.68442E-05  5179   0.894E-03    0.814E-03
RMM:   9    -0.413173596699E+03    0.70461E-05   -0.10842E-05  3599   0.391E-03    0.396E-03
RMM:  10    -0.413173594250E+03    0.24493E-05   -0.22307E-06  2591   0.219E-03    0.267E-03
RMM:  11    -0.413173590445E+03    0.38052E-05   -0.11967E-06  2511   0.175E-03    0.142E-03
RMM:  12    -0.413173586711E+03    0.37333E-05   -0.67355E-07  2447   0.136E-03    0.446E-04
RMM:  13    -0.413173584716E+03    0.19955E-05   -0.32555E-07  2008   0.960E-04    0.273E-04
RMM:  14    -0.413173582931E+03    0.17845E-05   -0.18981E-07  1529   0.771E-04    0.179E-04
RMM:  15    -0.413173580306E+03    0.26252E-05   -0.14919E-07  1347   0.714E-04    0.995E-05
RMM:  16    -0.413173577872E+03    0.24343E-05   -0.11747E-07  1330   0.679E-04    0.110E-04
RMM:  17    -0.413173575266E+03    0.26053E-05   -0.10011E-07  1274   0.646E-04    0.593E-05
RMM:  18    -0.413173573426E+03    0.18404E-05   -0.64405E-08  1063   0.589E-04    0.241E-05
RMM:  19    -0.413173572530E+03    0.89595E-06   -0.34898E-08   865   0.548E-04
   22 T=    62. E= -.41286700E+03 F= -.41317357E+03 E0= -.41315163E+03  EK= 0.30658E+00 SP= 0.00E+00 SK= 0.00E+00
       N       E                     dE             d eps       ncg     rms          rms(c)
RMM:   1    -0.413169552969E+03    0.40205E-02   -0.10161E+01  4295   0.745E-01    0.910E-01
RMM:   2    -0.413176893330E+03   -0.73404E-02   -0.12368E-01  4277   0.992E-02    0.644E-01
RMM:   3    -0.413174780976E+03    0.21124E-02   -0.10910E-02  4879   0.491E-02    0.148E-01
RMM:   4    -0.413209717015E+03   -0.34936E-01   -0.36953E-02  5147   0.159E-01    0.777E-01
RMM:   5    -0.413174101993E+03    0.35615E-01   -0.17463E-02  4790   0.130E-01    0.491E-02
RMM:   6    -0.413174301874E+03   -0.19988E-03   -0.29159E-03  5795   0.515E-02    0.321E-02
RMM:   7    -0.413174299186E+03    0.26877E-05   -0.41894E-04  5714   0.188E-02    0.201E-02
RMM:   8    -0.413174288551E+03    0.10635E-04   -0.73950E-05  5138   0.894E-03    0.103E-02
RMM:   9    -0.413174280605E+03    0.79459E-05   -0.15192E-05  4173   0.442E-03    0.721E-03
RMM:  10    -0.413174275904E+03    0.47017E-05   -0.20753E-06  2579   0.219E-03    0.460E-03
RMM:  11    -0.413174271627E+03    0.42766E-05   -0.13456E-06  2519   0.184E-03    0.244E-03
RMM:  12    -0.413174265095E+03    0.65316E-05   -0.15829E-06  2531   0.196E-03    0.920E-04
RMM:  13    -0.413174262813E+03    0.22820E-05   -0.50399E-07  2334   0.127E-03    0.660E-04
RMM:  14    -0.413174262947E+03   -0.13383E-06   -0.23311E-07  1865   0.849E-04
   23 T=    63. E= -.41286675E+03 F= -.41317426E+03 E0= -.41315237E+03  EK= 0.30751E+00 SP= 0.00E+00 SK= 0.00E+00
       N       E                     dE             d eps       ncg     rms          rms(c)
RMM:   1    -0.413171074795E+03    0.31880E-02   -0.10170E+01  4293   0.768E-01    0.891E-01
RMM:   2    -0.413179038231E+03   -0.79634E-02   -0.12595E-01  4276   0.102E-01    0.650E-01
RMM:   3    -0.413176101054E+03    0.29372E-02   -0.10771E-02  4754   0.466E-02    0.121E-01
RMM:   4    -0.413200374134E+03   -0.24273E-01   -0.24981E-02  5143   0.131E-01    0.650E-01
RMM:   5    -0.413175722254E+03    0.24652E-01   -0.12229E-02  4804   0.108E-01    0.431E-02
RMM:   6    -0.413175858520E+03   -0.13627E-03   -0.20376E-03  5830   0.422E-02    0.268E-02
RMM:   7    -0.413175860252E+03   -0.17319E-05   -0.26305E-04  5698   0.156E-02    0.150E-02
RMM:   8    -0.413175855653E+03    0.45989E-05   -0.58436E-05  4995   0.779E-03    0.929E-03
RMM:   9    -0.413175850552E+03    0.51006E-05   -0.11951E-05  3981   0.403E-03    0.682E-03
RMM:  10    -0.413175848849E+03    0.17030E-05   -0.16030E-06  2556   0.208E-03    0.434E-03
RMM:  11    -0.413175846652E+03    0.21971E-05   -0.16248E-06  2530   0.204E-03    0.207E-03
RMM:  12    -0.413175843945E+03    0.27075E-05   -0.11899E-06  2492   0.173E-03    0.730E-04
RMM:  13    -0.413175843297E+03    0.64760E-06   -0.38578E-07  2184   0.109E-03
   24 T=    63. E= -.41286707E+03 F= -.41317584E+03 E0= -.41315400E+03  EK= 0.30877E+00 SP= 0.00E+00 SK= 0.00E+00
       N       E                     dE             d eps       ncg     rms          rms(c)
RMM:   1    -0.413176451482E+03   -0.60754E-03   -0.10291E+01  4300   0.812E-01    0.907E-01
RMM:   2    -0.413179924263E+03   -0.34728E-02   -0.12602E-01  4280   0.103E-01    0.656E-01
RMM:   3    -0.413177018167E+03    0.29061E-02   -0.11017E-02  4729   0.459E-02    0.119E-01
RMM:   4    -0.413198431870E+03   -0.21414E-01   -0.21910E-02  5144   0.123E-01    0.612E-01
RMM:   5    -0.413176708536E+03    0.21723E-01   -0.10734E-02  4813   0.101E-01    0.423E-02
RMM:   6    -0.413176824232E+03   -0.11570E-03   -0.18223E-03  5830   0.395E-02    0.256E-02
RMM:   7    -0.413176823063E+03    0.11688E-05   -0.20568E-04  5633   0.140E-02    0.123E-02
RMM:   8    -0.413176818427E+03    0.46360E-05   -0.37893E-05  4837   0.631E-03    0.835E-03
RMM:   9    -0.413176814663E+03    0.37640E-05   -0.89422E-06  3589   0.336E-03    0.646E-03
RMM:  10    -0.413176812654E+03    0.20083E-05   -0.15680E-06  2553   0.208E-03    0.421E-03
RMM:  11    -0.413176809240E+03    0.34145E-05   -0.18076E-06  2568   0.207E-03    0.205E-03
RMM:  12    -0.413176804884E+03    0.43561E-05   -0.11620E-06  2486   0.175E-03    0.933E-04
RMM:  13    -0.413176804176E+03    0.70783E-06   -0.34964E-07  2197   0.107E-03
   25 T=    63. E= -.41286687E+03 F= -.41317680E+03 E0= -.41315501E+03  EK= 0.30993E+00 SP= 0.00E+00 SK= 0.00E+00
       N       E                     dE             d eps       ncg     rms          rms(c)
RMM:   1    -0.413173675729E+03    0.31292E-02   -0.10255E+01  4296   0.761E-01    0.920E-01
RMM:   2    -0.413180602742E+03   -0.69270E-02   -0.12491E-01  4275   0.994E-02    0.649E-01
RMM:   3    -0.413178386604E+03    0.22161E-02   -0.10906E-02  4683   0.460E-02    0.129E-01
RMM:   4    -0.413198714761E+03   -0.20328E-01   -0.20807E-02  5149   0.120E-01    0.597E-01
RMM:   5    -0.413178091251E+03    0.20624E-01   -0.10314E-02  4814   0.985E-02    0.431E-02
RMM:   6    -0.413178187117E+03   -0.95866E-04   -0.17347E-03  5830   0.387E-02    0.263E-02
RMM:   7    -0.413178177124E+03    0.99931E-05   -0.21133E-04  5669   0.145E-02    0.137E-02
RMM:   8    -0.413178170010E+03    0.71133E-05   -0.48035E-05  4963   0.715E-03    0.903E-03
RMM:   9    -0.413178163393E+03    0.66174E-05   -0.97076E-06  3732   0.367E-03    0.680E-03
RMM:  10    -0.413178158455E+03    0.49383E-05   -0.14195E-06  2531   0.206E-03    0.421E-03
RMM:  11    -0.413178151623E+03    0.68322E-05   -0.15495E-06  2534   0.201E-03    0.204E-03
RMM:  12    -0.413178143941E+03    0.76819E-05   -0.10251E-06  2466   0.165E-03    0.696E-04
RMM:  13    -0.413178142278E+03    0.16625E-05   -0.35933E-07  2154   0.105E-03    0.496E-04
RMM:  14    -0.413178141390E+03    0.88834E-06   -0.17415E-07  1632   0.766E-04
   26 T=    63. E= -.41286687E+03 F= -.41317814E+03 E0= -.41315639E+03  EK= 0.31127E+00 SP= 0.00E+00 SK= 0.00E+00
       N       E                     dE             d eps       ncg     rms          rms(c)
RMM:   1    -0.413175323972E+03    0.28183E-02   -0.10225E+01  4295   0.786E-01    0.897E-01
RMM:   2    -0.413182625426E+03   -0.73015E-02   -0.12670E-01  4284   0.102E-01    0.651E-01
RMM:   3    -0.413180212114E+03    0.24133E-02   -0.10902E-02  4765   0.472E-02    0.124E-01
RMM:   4    -0.413204261807E+03   -0.24050E-01   -0.24731E-02  5150   0.131E-01    0.648E-01
RMM:   5    -0.413179840177E+03    0.24422E-01   -0.12198E-02  4812   0.107E-01    0.438E-02
RMM:   6    -0.413179956695E+03   -0.11652E-03   -0.20102E-03  5818   0.425E-02    0.282E-02
RMM:   7    -0.413179952821E+03    0.38740E-05   -0.29835E-04  5676   0.165E-02    0.168E-02
RMM:   8    -0.413179944798E+03    0.80230E-05   -0.59739E-05  4977   0.814E-03    0.916E-03
RMM:   9    -0.413179939141E+03    0.56567E-05   -0.11503E-05  3900   0.400E-03    0.669E-03
RMM:  10    -0.413179936102E+03    0.30385E-05   -0.15522E-06  2544   0.206E-03    0.418E-03
RMM:  11    -0.413179932674E+03    0.34285E-05   -0.12910E-06  2509   0.185E-03    0.205E-03
RMM:  12    -0.413179928436E+03    0.42377E-05   -0.11968E-06  2494   0.171E-03    0.782E-04
RMM:  13    -0.413179927175E+03    0.12613E-05   -0.39287E-07  2204   0.110E-03    0.500E-04
RMM:  14    -0.413179926748E+03    0.42662E-06   -0.18878E-07  1674   0.782E-04
   27 T=    64. E= -.41286712E+03 F= -.41317993E+03 E0= -.41315823E+03  EK= 0.31280E+00 SP= 0.00E+00 SK= 0.00E+00
       N       E                     dE             d eps       ncg     rms          rms(c)
RMM:   1    -0.413184148277E+03   -0.42211E-02   -0.10410E+01  4296   0.827E-01    0.904E-01
RMM:   2    -0.413184013425E+03    0.13485E-03   -0.14411E-01  4274   0.107E-01    0.663E-01
RMM:   3    -0.413181269409E+03    0.27440E-02   -0.10425E-02  4667   0.451E-02    0.136E-01
RMM:   4    -0.413198527845E+03   -0.17258E-01   -0.17761E-02  5148   0.112E-01    0.551E-01
RMM:   5    -0.413181051075E+03    0.17477E-01   -0.87227E-03  4814   0.907E-02    0.408E-02
RMM:   6    -0.413181122629E+03   -0.71555E-04   -0.14636E-03  5837   0.356E-02    0.247E-02
RMM:   7    -0.413181117710E+03    0.49197E-05   -0.18310E-04  5623   0.135E-02    0.121E-02
RMM:   8    -0.413181114077E+03    0.36325E-05   -0.38375E-05  4867   0.649E-03    0.799E-03
RMM:   9    -0.413181110079E+03    0.39987E-05   -0.86665E-06  3621   0.344E-03    0.608E-03
RMM:  10    -0.413181108193E+03    0.18857E-05   -0.12554E-06  2521   0.198E-03    0.374E-03
RMM:  11    -0.413181105379E+03    0.28138E-05   -0.13688E-06  2522   0.187E-03    0.182E-03
RMM:  12    -0.413181101912E+03    0.34671E-05   -0.92989E-07  2438   0.154E-03    0.681E-04
RMM:  13    -0.413181101166E+03    0.74575E-06   -0.30891E-07  2093   0.979E-04
   28 T=    64. E= -.41286684E+03 F= -.41318110E+03 E0= -.41315945E+03  EK= 0.31426E+00 SP= 0.00E+00 SK= 0.00E+00
       N       E                     dE             d eps       ncg     rms          rms(c)
RMM:   1    -0.413184967287E+03   -0.38654E-02   -0.10426E+01  4292   0.823E-01    0.928E-01
RMM:   2    -0.413185613100E+03   -0.64581E-03   -0.12671E-01  4272   0.104E-01    0.656E-01
RMM:   3    -0.413183171701E+03    0.24414E-02   -0.11423E-02  4494   0.501E-02    0.120E-01
RMM:   4    -0.413193212331E+03   -0.10041E-01   -0.10389E-02  5155   0.853E-02    0.422E-01
RMM:   5    -0.413183087589E+03    0.10125E-01   -0.51866E-03  4838   0.694E-02    0.394E-02
RMM:   6    -0.413183119465E+03   -0.31877E-04   -0.92503E-04  5819   0.284E-02    0.238E-02
RMM:   7    -0.413183116857E+03    0.26088E-05   -0.22108E-04  5424   0.150E-02    0.160E-02
RMM:   8    -0.413183098814E+03    0.18043E-04   -0.25906E-05  4496   0.631E-03    0.672E-03
RMM:   9    -0.413183095004E+03    0.38097E-05   -0.57898E-06  3106   0.293E-03    0.494E-03
RMM:  10    -0.413183089496E+03    0.55088E-05   -0.14300E-06  2498   0.208E-03    0.269E-03
RMM:  11    -0.413183083058E+03    0.64375E-05   -0.97210E-07  2481   0.167E-03    0.129E-03
RMM:  12    -0.413183077610E+03    0.54482E-05   -0.46518E-07  2298   0.119E-03    0.561E-04
RMM:  13    -0.413183075323E+03    0.22867E-05   -0.23296E-07  1862   0.846E-04    0.292E-04
RMM:  14    -0.413183072293E+03    0.30302E-05   -0.13537E-07  1451   0.715E-04    0.201E-04
RMM:  15    -0.413183066876E+03    0.54169E-05   -0.11557E-07  1386   0.694E-04    0.106E-04
RMM:  16    -0.413183065361E+03    0.15150E-05   -0.51058E-08   972   0.599E-04    0.756E-05
RMM:  17    -0.413183060670E+03    0.46909E-05   -0.78747E-08  1313   0.647E-04    0.663E-05
RMM:  18    -0.413183058719E+03    0.19509E-05   -0.39512E-08   957   0.559E-04    0.272E-05
RMM:  19    -0.413183058401E+03    0.31813E-06   -0.13942E-08   711   0.516E-04
   29 T=    64. E= -.41286702E+03 F= -.41318306E+03 E0= -.41316146E+03  EK= 0.31604E+00 SP= 0.00E+00 SK= 0.00E+00
       N       E                     dE             d eps       ncg     rms          rms(c)
RMM:   1    -0.413180393303E+03    0.26654E-02   -0.10318E+01  4287   0.799E-01    0.907E-01
RMM:   2    -0.413187990805E+03   -0.75975E-02   -0.12844E-01  4262   0.111E-01    0.654E-01
RMM:   3    -0.413185016121E+03    0.29747E-02   -0.11136E-02  4504   0.498E-02    0.116E-01
RMM:   4    -0.413195521773E+03   -0.10506E-01   -0.10836E-02  5159   0.877E-02    0.431E-01
RMM:   5    -0.413184929412E+03    0.10592E-01   -0.53876E-03  4826   0.709E-02    0.389E-02
RMM:   6    -0.413184968269E+03   -0.38857E-04   -0.94214E-04  5830   0.287E-02    0.242E-02
RMM:   7    -0.413184969345E+03   -0.10759E-05   -0.22695E-04  5436   0.149E-02    0.161E-02
RMM:   8    -0.413184952630E+03    0.16715E-04   -0.27626E-05  4579   0.639E-03    0.692E-03
RMM:   9    -0.413184950505E+03    0.21246E-05   -0.53658E-06  3039   0.288E-03    0.506E-03
RMM:  10    -0.413184947064E+03    0.34414E-05   -0.14030E-06  2498   0.201E-03    0.277E-03
RMM:  11    -0.413184943487E+03    0.35766E-05   -0.90601E-07  2475   0.160E-03    0.138E-03
RMM:  12    -0.413184940015E+03    0.34717E-05   -0.53943E-07  2341   0.123E-03    0.683E-04
RMM:  13    -0.413184938571E+03    0.14449E-05   -0.24049E-07  1888   0.866E-04    0.306E-04
RMM:  14    -0.413184936826E+03    0.17444E-05   -0.13402E-07  1382   0.706E-04    0.189E-04
RMM:  15    -0.413184934006E+03    0.28203E-05   -0.95233E-08  1220   0.667E-04    0.807E-05
RMM:  16    -0.413184932609E+03    0.13972E-05   -0.53415E-08   986   0.614E-04    0.680E-05
RMM:  17    -0.413184930712E+03    0.18968E-05   -0.46868E-08   975   0.603E-04    0.442E-05
RMM:  18    -0.413184928239E+03    0.24727E-05   -0.51474E-08  1109   0.607E-04    0.365E-05
RMM:  19    -0.413184927694E+03    0.54546E-06   -0.18246E-08   745   0.540E-04
   30 T=    65. E= -.41286708E+03 F= -.41318493E+03 E0= -.41316338E+03  EK= 0.31784E+00 SP= 0.00E+00 SK= 0.00E+00
       N       E                     dE             d eps       ncg     rms          rms(c)
RMM:   1    -0.413182925750E+03    0.20025E-02   -0.10447E+01  4291   0.833E-01    0.909E-01
RMM:   2    -0.413190286253E+03   -0.73605E-02   -0.13392E-01  4279   0.122E-01    0.667E-01
RMM:   3    -0.413186532064E+03    0.37542E-02   -0.11604E-02  4413   0.556E-02    0.107E-01
RMM:   4    -0.413192756657E+03   -0.62246E-02   -0.66199E-03  5164   0.685E-02    0.332E-01
RMM:   5    -0.413186530840E+03    0.62258E-02   -0.31788E-03  4825   0.546E-02    0.370E-02
RMM:   6    -0.413186553409E+03   -0.22570E-04   -0.62900E-04  5773   0.239E-02    0.245E-02
RMM:   7    -0.413186548590E+03    0.48196E-05   -0.21566E-04  5298   0.146E-02    0.152E-02
RMM:   8    -0.413186536995E+03    0.11594E-04   -0.18385E-05  4266   0.555E-03    0.646E-03
RMM:   9    -0.413186535810E+03    0.11851E-05   -0.29746E-06  2718   0.232E-03    0.419E-03
RMM:  10    -0.413186533836E+03    0.19738E-05   -0.12917E-06  2494   0.181E-03    0.220E-03
RMM:  11    -0.413186531974E+03    0.18622E-05   -0.77041E-07  2437   0.143E-03    0.103E-03
RMM:  12    -0.413186530275E+03    0.16995E-05   -0.39869E-07  2152   0.106E-03    0.486E-04
RMM:  13    -0.413186529169E+03    0.11055E-05   -0.20283E-07  1640   0.789E-04    0.255E-04
RMM:  14    -0.413186527714E+03    0.14556E-05   -0.11777E-07  1199   0.684E-04    0.155E-04
RMM:  15    -0.413186525477E+03    0.22362E-05   -0.96635E-08  1161   0.663E-04    0.788E-05
RMM:  16    -0.413186524486E+03    0.99131E-06   -0.53021E-08   953   0.600E-04
   31 T=    65. E= -.41286687E+03 F= -.41318652E+03 E0= -.41316503E+03  EK= 0.31966E+00 SP= 0.00E+00 SK= 0.00E+00
       N       E                     dE             d eps       ncg     rms          rms(c)
RMM:   1    -0.413184862488E+03    0.16630E-02   -0.10487E+01  4289   0.821E-01    0.933E-01
RMM:   2    -0.413192254035E+03   -0.73915E-02   -0.13103E-01  4279   0.126E-01    0.663E-01
RMM:   3    -0.413189125877E+03    0.31282E-02   -0.11652E-02  4292   0.543E-02    0.117E-01
RMM:   4    -0.413190037505E+03   -0.91163E-03   -0.16328E-03  5082   0.332E-02    0.126E-01
RMM:   5    -0.413189203970E+03    0.83353E-03   -0.47327E-04  4805   0.219E-02    0.381E-02
RMM:   6    -0.413189210467E+03   -0.64972E-05   -0.31236E-04  5418   0.177E-02    0.277E-02
RMM:   7    -0.413189174838E+03    0.35629E-04   -0.18030E-04  4873   0.137E-02    0.151E-02
RMM:   8    -0.413189170037E+03    0.48008E-05   -0.18459E-05  4258   0.492E-03    0.557E-03
RMM:   9    -0.413189168397E+03    0.16398E-05   -0.27123E-06  2513   0.208E-03    0.262E-03
RMM:  10    -0.413189160752E+03    0.76458E-05   -0.95486E-07  2435   0.158E-03    0.112E-03
RMM:  11    -0.413189155836E+03    0.49155E-05   -0.37666E-07  2091   0.997E-04    0.412E-04
RMM:  12    -0.413189152192E+03    0.36439E-05   -0.19827E-07  1700   0.792E-04    0.245E-04
RMM:  13    -0.413189148824E+03    0.33687E-05   -0.11520E-07  1283   0.682E-04    0.151E-04
RMM:  14    -0.413189144331E+03    0.44928E-05   -0.86927E-08  1187   0.649E-04    0.897E-05
RMM:  15    -0.413189140063E+03    0.42681E-05   -0.67665E-08  1125   0.617E-04    0.805E-05
RMM:  16    -0.413189136485E+03    0.35773E-05   -0.50693E-08   976   0.584E-04    0.556E-05
RMM:  17    -0.413189135439E+03    0.10464E-05   -0.25400E-08   747   0.534E-04    0.348E-05
RMM:  18    -0.413189134537E+03    0.90167E-06   -0.18689E-08   709   0.526E-04
   32 T=    66. E= -.41286726E+03 F= -.41318913E+03 E0= -.41316768E+03  EK= 0.32188E+00 SP= 0.00E+00 SK= 0.00E+00
       N       E                     dE             d eps       ncg     rms          rms(c)
RMM:   1    -0.413186652711E+03    0.24827E-02   -0.10452E+01  4286   0.833E-01    0.920E-01
RMM:   2    -0.413194085173E+03   -0.74325E-02   -0.13196E-01  4273   0.126E-01    0.659E-01
RMM:   3    -0.413191092412E+03    0.29928E-02   -0.11409E-02  4254   0.533E-02    0.116E-01
RMM:   4    -0.413191587775E+03   -0.49536E-03   -0.12347E-03  5062   0.271E-02    0.911E-02
RMM:   5    -0.413191197630E+03    0.39015E-03   -0.26705E-04  4772   0.165E-02    0.382E-02
RMM:   6    -0.413191195522E+03    0.21073E-05   -0.27252E-04  5342   0.165E-02    0.271E-02
RMM:   7    -0.413191162757E+03    0.32766E-04   -0.17562E-04  4854   0.127E-02    0.156E-02
RMM:   8    -0.413191157516E+03    0.52406E-05   -0.16848E-05  4104   0.470E-03    0.573E-03
RMM:   9    -0.413191156194E+03    0.13220E-05   -0.30032E-06  2390   0.205E-03    0.230E-03
RMM:  10    -0.413191149550E+03    0.66446E-05   -0.91026E-07  2310   0.144E-03    0.895E-04
RMM:  11    -0.413191145771E+03    0.37786E-05   -0.32086E-07  1865   0.928E-04    0.372E-04
RMM:  12    -0.413191141874E+03    0.38966E-05   -0.19001E-07  1523   0.780E-04    0.198E-04
RMM:  13    -0.413191138494E+03    0.33799E-05   -0.10551E-07  1100   0.667E-04    0.143E-04
RMM:  14    -0.413191134303E+03    0.41915E-05   -0.76571E-08   998   0.634E-04    0.964E-05
RMM:  15    -0.413191129775E+03    0.45278E-05   -0.70048E-08  1012   0.620E-04    0.528E-05
RMM:  16    -0.413191127625E+03    0.21502E-05   -0.36905E-08   786   0.559E-04    0.465E-05
RMM:  17    -0.413191126543E+03    0.10822E-05   -0.18350E-08   582   0.524E-04    0.228E-05
RMM:  18    -0.413191125816E+03    0.72650E-06   -0.14143E-08   543   0.517E-04
   33 T=    66. E= -.41286710E+03 F= -.41319113E+03 E0= -.41316972E+03  EK= 0.32403E+00 SP= 0.00E+00 SK= 0.00E+00
       N       E                     dE             d eps       ncg     rms          rms(c)
RMM:   1    -0.413194342602E+03   -0.32161E-02   -0.10611E+01  4301   0.903E-01    0.913E-01
RMM:   2    -0.413196628051E+03   -0.22854E-02   -0.14663E-01  4277   0.136E-01    0.673E-01
RMM:   3    -0.413193536807E+03    0.30912E-02   -0.11307E-02  4210   0.598E-02    0.120E-01
RMM:   4    -0.413193623268E+03   -0.86461E-04   -0.10285E-03  4457   0.212E-02    0.360E-02
RMM:   5    -0.413193769153E+03   -0.14589E-03   -0.21680E-04  5102   0.138E-02    0.611E-02
RMM:   6    -0.413193632232E+03    0.13692E-03   -0.23819E-04  5189   0.148E-02    0.274E-02
RMM:   7    -0.413193592199E+03    0.40033E-04   -0.16299E-04  4957   0.131E-02    0.113E-02
RMM:   8    -0.413193590360E+03    0.18397E-05   -0.14416E-05  3653   0.431E-03    0.336E-03
RMM:   9    -0.413193589706E+03    0.65389E-06   -0.16112E-06  2436   0.196E-03
   34 T=    66. E= -.41286711E+03 F= -.41319359E+03 E0= -.41317224E+03  EK= 0.32648E+00 SP= 0.00E+00 SK= 0.00E+00
       N       E                     dE             d eps       ncg     rms          rms(c)
RMM:   1    -0.413195002756E+03   -0.14124E-02   -0.10669E+01  4302   0.894E-01    0.938E-01
RMM:   2    -0.413199269667E+03   -0.42669E-02   -0.13766E-01  4275   0.131E-01    0.673E-01
RMM:   3    -0.413196302890E+03    0.29668E-02   -0.11723E-02  4346   0.578E-02    0.118E-01
RMM:   4    -0.413196503152E+03   -0.20026E-03   -0.10940E-03  4944   0.253E-02    0.556E-02
RMM:   5    -0.413196452022E+03    0.51130E-04   -0.18033E-04  4907   0.135E-02    0.485E-02
RMM:   6    -0.413196393323E+03    0.58698E-04   -0.23442E-04  5205   0.155E-02    0.298E-02
RMM:   7    -0.413196362275E+03    0.31048E-04   -0.19428E-04  4683   0.124E-02    0.157E-02
RMM:   8    -0.413196357844E+03    0.44312E-05   -0.15265E-05  3617   0.421E-03    0.527E-03
RMM:   9    -0.413196356210E+03    0.16340E-05   -0.30326E-06  2357   0.198E-03    0.193E-03
RMM:  10    -0.413196345563E+03    0.10647E-04   -0.10090E-06  2265   0.146E-03    0.548E-04
RMM:  11    -0.413196340909E+03    0.46535E-05   -0.25735E-07  1688   0.842E-04    0.299E-04
RMM:  12    -0.413196336700E+03    0.42094E-05   -0.14793E-07  1349   0.713E-04    0.197E-04
RMM:  13    -0.413196330528E+03    0.61717E-05   -0.11316E-07  1105   0.661E-04    0.105E-04
RMM:  14    -0.413196324242E+03    0.62863E-05   -0.83144E-08  1003   0.631E-04    0.118E-04
RMM:  15    -0.413196319467E+03    0.47748E-05   -0.66944E-08  1025   0.605E-04    0.707E-05
RMM:  16    -0.413196317743E+03    0.17236E-05   -0.27517E-08   677   0.524E-04    0.400E-05
RMM:  17    -0.413196316883E+03    0.86057E-06   -0.12524E-08   506   0.496E-04
   35 T=    67. E= -.41286724E+03 F= -.41319632E+03 E0= -.41317501E+03  EK= 0.32907E+00 SP= 0.00E+00 SK= 0.00E+00
       N       E                     dE             d eps       ncg     rms          rms(c)
RMM:   1    -0.413197397160E+03   -0.10794E-02   -0.10666E+01  4303   0.919E-01    0.937E-01
RMM:   2    -0.413201108380E+03   -0.37112E-02   -0.13603E-01  4255   0.134E-01    0.667E-01
RMM:   3    -0.413198429066E+03    0.26793E-02   -0.11917E-02  4447   0.613E-02    0.126E-01
RMM:   4    -0.413207137191E+03   -0.87081E-02   -0.90727E-03  5177   0.802E-02    0.394E-01
RMM:   5    -0.413198433980E+03    0.87032E-02   -0.44817E-03  4820   0.654E-02    0.406E-02
RMM:   6    -0.413198433744E+03    0.23565E-06   -0.86089E-04  5768   0.290E-02    0.284E-02
RMM:   7    -0.413198423003E+03    0.10741E-04   -0.26789E-04  5321   0.160E-02    0.165E-02
RMM:   8    -0.413198408424E+03    0.14579E-04   -0.25050E-05  4580   0.619E-03    0.713E-03
RMM:   9    -0.413198405523E+03    0.29011E-05   -0.44576E-06  2897   0.265E-03    0.449E-03
RMM:  10    -0.413198399813E+03    0.57099E-05   -0.12543E-06  2499   0.191E-03    0.235E-03
RMM:  11    -0.413198393783E+03    0.60302E-05   -0.82776E-07  2461   0.151E-03    0.117E-03
RMM:  12    -0.413198388217E+03    0.55657E-05   -0.46179E-07  2237   0.115E-03    0.563E-04
RMM:  13    -0.413198385489E+03    0.27276E-05   -0.22795E-07  1795   0.839E-04    0.286E-04
RMM:  14    -0.413198382252E+03    0.32375E-05   -0.11909E-07  1287   0.690E-04    0.162E-04
RMM:  15    -0.413198377446E+03    0.48061E-05   -0.87135E-08  1167   0.656E-04    0.805E-05
RMM:  16    -0.413198374895E+03    0.25507E-05   -0.52906E-08   984   0.608E-04    0.672E-05
RMM:  17    -0.413198371899E+03    0.29958E-05   -0.47072E-08  1049   0.602E-04    0.422E-05
RMM:  18    -0.413198368438E+03    0.34617E-05   -0.47644E-08  1134   0.602E-04    0.243E-05
RMM:  19    -0.413198367880E+03    0.55754E-06   -0.16952E-08   730   0.527E-04
   36 T=    67. E= -.41286694E+03 F= -.41319837E+03 E0= -.41317710E+03  EK= 0.33142E+00 SP= 0.00E+00 SK= 0.00E+00
       N       E                     dE             d eps       ncg     rms          rms(c)
RMM:   1    -0.413216196373E+03   -0.17828E-01   -0.10891E+01  4303   0.106E+00    0.919E-01
RMM:   2    -0.413205036320E+03    0.11160E-01   -0.16732E-01  4245   0.147E-01    0.681E-01
RMM:   3    -0.413201551469E+03    0.34849E-02   -0.10631E-02  4657   0.566E-02    0.166E-01
RMM:   4    -0.413227287788E+03   -0.25736E-01   -0.26227E-02  5165   0.136E-01    0.670E-01
RMM:   5    -0.413201339646E+03    0.25948E-01   -0.13092E-02  4797   0.112E-01    0.465E-02
RMM:   6    -0.413201373294E+03   -0.33648E-04   -0.22152E-03  5849   0.442E-02    0.294E-02
RMM:   7    -0.413201382209E+03   -0.89148E-05   -0.29279E-04  5649   0.163E-02    0.154E-02
RMM:   8    -0.413201373816E+03    0.83924E-05   -0.55747E-05  4983   0.785E-03    0.930E-03
RMM:   9    -0.413201372753E+03    0.10630E-05   -0.16932E-05  4400   0.464E-03    0.700E-03
RMM:  10    -0.413201368859E+03    0.38941E-05   -0.20752E-06  2604   0.238E-03    0.407E-03
RMM:  11    -0.413201366744E+03    0.21157E-05   -0.11568E-06  2504   0.173E-03    0.255E-03
RMM:  12    -0.413201361308E+03    0.54353E-05   -0.17443E-06  2536   0.210E-03    0.120E-03
RMM:  13    -0.413201358920E+03    0.23885E-05   -0.57979E-07  2351   0.134E-03    0.710E-04
RMM:  14    -0.413201358690E+03    0.22995E-06   -0.23798E-07  1905   0.863E-04
   37 T=    68. E= -.41286732E+03 F= -.41320136E+03 E0= -.41318014E+03  EK= 0.33404E+00 SP= 0.00E+00 SK= 0.00E+00
       N       E                     dE             d eps       ncg     rms          rms(c)
RMM:   1    -0.413221915214E+03   -0.20556E-01   -0.11024E+01  4305   0.108E+00    0.940E-01
RMM:   2    -0.413207575436E+03    0.14340E-01   -0.16427E-01  4251   0.134E-01    0.685E-01
RMM:   3    -0.413204074746E+03    0.35007E-02   -0.11129E-02  4753   0.546E-02    0.170E-01
RMM:   4    -0.413237348148E+03   -0.33273E-01   -0.34043E-02  5157   0.154E-01    0.759E-01
RMM:   5    -0.413203700463E+03    0.33648E-01   -0.16997E-02  4799   0.127E-01    0.500E-02
RMM:   6    -0.413203760289E+03   -0.59826E-04   -0.28308E-03  5844   0.500E-02    0.315E-02
RMM:   7    -0.413203769826E+03   -0.95367E-05   -0.36455E-04  5720   0.176E-02    0.169E-02
RMM:   8    -0.413203760284E+03    0.95416E-05   -0.64680E-05  5028   0.832E-03    0.102E-02
RMM:   9    -0.413203757778E+03    0.25060E-05   -0.20388E-05  4540   0.501E-03    0.727E-03
RMM:  10    -0.413203751960E+03    0.58180E-05   -0.26272E-06  2649   0.257E-03    0.428E-03
RMM:  11    -0.413203748570E+03    0.33903E-05   -0.12868E-06  2494   0.185E-03    0.264E-03
RMM:  12    -0.413203740198E+03    0.83717E-05   -0.17489E-06  2533   0.216E-03    0.122E-03
RMM:  13    -0.413203736373E+03    0.38249E-05   -0.64743E-07  2383   0.142E-03    0.831E-04
RMM:  14    -0.413203736223E+03    0.15039E-06   -0.25967E-07  1986   0.912E-04
   38 T=    69. E= -.41286722E+03 F= -.41320374E+03 E0= -.41318256E+03  EK= 0.33651E+00 SP= 0.00E+00 SK= 0.00E+00
       N       E                     dE             d eps       ncg     rms          rms(c)
RMM:   1    -0.413210412269E+03   -0.66759E-02   -0.10901E+01  4305   0.104E+00    0.954E-01
RMM:   2    -0.413209707148E+03    0.70512E-03   -0.14162E-01  4258   0.125E-01    0.677E-01
RMM:   3    -0.413206980649E+03    0.27265E-02   -0.12579E-02  4963   0.570E-02    0.173E-01
RMM:   4    -0.413251019532E+03   -0.44039E-01   -0.47202E-02  5139   0.181E-01    0.871E-01
RMM:   5    -0.413206173910E+03    0.44846E-01   -0.22144E-02  4792   0.146E-01    0.557E-02
RMM:   6    -0.413206278765E+03   -0.10485E-03   -0.37256E-03  5822   0.572E-02    0.339E-02
RMM:   7    -0.413206288941E+03   -0.10177E-04   -0.43462E-04  5712   0.189E-02    0.177E-02
RMM:   8    -0.413206280037E+03    0.89048E-05   -0.53655E-05  4835   0.723E-03    0.908E-03
RMM:   9    -0.413206272287E+03    0.77501E-05   -0.11740E-05  3526   0.367E-03    0.569E-03
RMM:  10    -0.413206269226E+03    0.30603E-05   -0.30490E-06  2693   0.239E-03    0.416E-03
RMM:  11    -0.413206262327E+03    0.68994E-05   -0.13737E-06  2496   0.203E-03    0.231E-03
RMM:  12    -0.413206251029E+03    0.11298E-04   -0.14424E-06  2505   0.199E-03    0.990E-04
RMM:  13    -0.413206248368E+03    0.26607E-05   -0.48399E-07  2375   0.128E-03    0.689E-04
RMM:  14    -0.413206247907E+03    0.46143E-06   -0.21995E-07  1919   0.846E-04
   39 T=    69. E= -.41286716E+03 F= -.41320625E+03 E0= -.41318511E+03  EK= 0.33909E+00 SP= 0.00E+00 SK= 0.00E+00
       N       E                     dE             d eps       ncg     rms          rms(c)
RMM:   1    -0.413231119144E+03   -0.24871E-01   -0.11093E+01  4312   0.118E+00    0.931E-01
RMM:   2    -0.413213223262E+03    0.17896E-01   -0.16901E-01  4261   0.133E-01    0.684E-01
RMM:   3    -0.413210294639E+03    0.29286E-02   -0.11365E-02  5009   0.575E-02    0.210E-01
RMM:   4    -0.413264209287E+03   -0.53915E-01   -0.58986E-02  5140   0.202E-01    0.962E-01
RMM:   5    -0.413209069943E+03    0.55139E-01   -0.27203E-02  4787   0.162E-01    0.596E-02
RMM:   6    -0.413209214438E+03   -0.14449E-03   -0.44849E-03  5817   0.629E-02    0.348E-02
RMM:   7    -0.413209231058E+03   -0.16620E-04   -0.52244E-04  5801   0.203E-02    0.200E-02
RMM:   8    -0.413209232695E+03   -0.16377E-05   -0.10785E-04  5231   0.100E-02    0.131E-02
RMM:   9    -0.413209220737E+03    0.11958E-04   -0.29633E-05  4739   0.601E-03    0.713E-03
RMM:  10    -0.413209216440E+03    0.42967E-05   -0.49186E-06  2875   0.305E-03    0.438E-03
RMM:  11    -0.413209212871E+03    0.35697E-05   -0.16909E-06  2510   0.214E-03    0.261E-03
RMM:  12    -0.413209205718E+03    0.71532E-05   -0.14978E-06  2518   0.204E-03    0.910E-04
RMM:  13    -0.413209202058E+03    0.36592E-05   -0.62420E-07  2415   0.139E-03    0.640E-04
RMM:  14    -0.413209201169E+03    0.88896E-06   -0.27424E-07  2039   0.931E-04
   40 T=    70. E= -.41286735E+03 F= -.41320920E+03 E0= -.41318810E+03  EK= 0.34185E+00 SP= 0.00E+00 SK= 0.00E+00
       N       E                     dE             d eps       ncg     rms          rms(c)
RMM:   1    -0.413227003135E+03   -0.17801E-01   -0.11159E+01  4311   0.119E+00    0.944E-01
RMM:   2    -0.413215470703E+03    0.11532E-01   -0.17194E-01  4265   0.140E-01    0.695E-01
RMM:   3    -0.413213118142E+03    0.23526E-02   -0.12291E-02  5046   0.641E-02    0.239E-01
RMM:   4    -0.413268931753E+03   -0.55814E-01   -0.64538E-02  5127   0.212E-01    0.983E-01
RMM:   5    -0.413211181563E+03    0.57750E-01   -0.27846E-02  4775   0.165E-01    0.621E-02
RMM:   6    -0.413211339092E+03   -0.15753E-03   -0.46009E-03  5809   0.640E-02    0.354E-02
RMM:   7    -0.413211357526E+03   -0.18435E-04   -0.57204E-04  5833   0.211E-02    0.224E-02
RMM:   8    -0.413211357959E+03   -0.43300E-06   -0.13157E-04  5267   0.112E-02    0.141E-02
RMM:   9    -0.413211343744E+03    0.14216E-04   -0.27497E-05  4676   0.613E-03    0.647E-03
RMM:  10    -0.413211339633E+03    0.41108E-05   -0.58474E-06  3021   0.304E-03    0.410E-03
RMM:  11    -0.413211336226E+03    0.34068E-05   -0.15347E-06  2509   0.205E-03    0.239E-03
RMM:  12    -0.413211329902E+03    0.63243E-05   -0.11984E-06  2490   0.185E-03    0.811E-04
RMM:  13    -0.413211326297E+03    0.36050E-05   -0.55955E-07  2391   0.130E-03    0.523E-04
RMM:  14    -0.413211325274E+03    0.10229E-05   -0.26243E-07  1981   0.900E-04    0.351E-04
RMM:  15    -0.413211323000E+03    0.22741E-05   -0.14164E-07  1442   0.719E-04    0.169E-04
RMM:  16    -0.413211318996E+03    0.40037E-05   -0.10822E-07  1260   0.680E-04    0.147E-04
RMM:  17    -0.413211317386E+03    0.16098E-05   -0.60182E-08  1011   0.616E-04    0.825E-05
RMM:  18    -0.413211314169E+03    0.32174E-05   -0.61983E-08  1164   0.634E-04    0.767E-05
RMM:  19    -0.413211312138E+03    0.20309E-05   -0.40443E-08  1033   0.596E-04    0.442E-05
RMM:  20    -0.413211311248E+03    0.88982E-06   -0.24541E-08   867   0.558E-04
   41 T=    70. E= -.41286702E+03 F= -.41321131E+03 E0= -.41319024E+03  EK= 0.34429E+00 SP= 0.00E+00 SK= 0.00E+00
       N       E                     dE             d eps       ncg     rms          rms(c)
RMM:   1    -0.413217581135E+03   -0.62690E-02   -0.11065E+01  4312   0.118E+00    0.967E-01
RMM:   2    -0.413217449107E+03    0.13203E-03   -0.14935E-01  4289   0.134E-01    0.687E-01
RMM:   3    -0.413217227095E+03    0.22201E-03   -0.14933E-02  5072   0.745E-02    0.280E-01
RMM:   4    -0.413256290260E+03   -0.39063E-01   -0.53888E-02  5094   0.195E-01    0.848E-01
RMM:   5    -0.413213855424E+03    0.42435E-01   -0.19021E-02  4746   0.141E-01    0.599E-02
RMM:   6    -0.413213941054E+03   -0.85630E-04   -0.33446E-03  5769   0.547E-02    0.349E-02
RMM:   7    -0.413213949969E+03   -0.89146E-05   -0.46202E-04  5751   0.197E-02    0.220E-02
RMM:   8    -0.413213947668E+03    0.23010E-05   -0.12490E-04  5217   0.114E-02    0.129E-02
RMM:   9    -0.413213933215E+03    0.14453E-04   -0.20970E-05  4482   0.568E-03    0.548E-03
RMM:  10    -0.413213928015E+03    0.51997E-05   -0.45247E-06  2883   0.273E-03    0.355E-03
RMM:  11    -0.413213922905E+03    0.51101E-05   -0.12419E-06  2496   0.189E-03    0.194E-03
RMM:  12    -0.413213914814E+03    0.80911E-05   -0.83959E-07  2464   0.158E-03    0.708E-04
RMM:  13    -0.413213910261E+03    0.45525E-05   -0.40131E-07  2237   0.111E-03    0.367E-04
RMM:  14    -0.413213908443E+03    0.18181E-05   -0.20826E-07  1761   0.816E-04    0.244E-04
RMM:  15    -0.413213904123E+03    0.43201E-05   -0.12632E-07  1360   0.707E-04    0.121E-04
RMM:  16    -0.413213900569E+03    0.35543E-05   -0.83100E-08  1155   0.655E-04    0.106E-04
RMM:  17    -0.413213897706E+03    0.28626E-05   -0.63093E-08  1120   0.633E-04    0.727E-05
RMM:  18    -0.413213894577E+03    0.31290E-05   -0.53277E-08  1135   0.618E-04    0.490E-05
RMM:  19    -0.413213891952E+03    0.26257E-05   -0.43499E-08  1137   0.600E-04    0.348E-05
RMM:  20    -0.413213891523E+03    0.42834E-06   -0.19285E-08   780   0.538E-04
   42 T=    71. E= -.41286721E+03 F= -.41321389E+03 E0= -.41319285E+03  EK= 0.34668E+00 SP= 0.00E+00 SK= 0.00E+00
       N       E                     dE             d eps       ncg     rms          rms(c)
RMM:   1    -0.413238990659E+03   -0.25099E-01   -0.11215E+01  4312   0.134E+00    0.944E-01
RMM:   2    -0.413219789178E+03    0.19201E-01   -0.17097E-01  4300   0.148E-01    0.689E-01
RMM:   3    -0.413220183293E+03   -0.39412E-03   -0.14466E-02  5087   0.789E-02    0.320E-01
RMM:   4    -0.413258480760E+03   -0.38297E-01   -0.56326E-02  5093   0.200E-01    0.850E-01
RMM:   5    -0.413215940628E+03    0.42540E-01   -0.18902E-02  4737   0.142E-01    0.613E-02
RMM:   6    -0.413216011495E+03   -0.70867E-04   -0.32754E-03  5755   0.545E-02    0.346E-02
RMM:   7    -0.413216017937E+03   -0.64412E-05   -0.46482E-04  5786   0.196E-02    0.228E-02
RMM:   8    -0.413216014908E+03    0.30284E-05   -0.12417E-04  5206   0.114E-02    0.122E-02
RMM:   9    -0.413216002214E+03    0.12694E-04   -0.21273E-05  4486   0.574E-03    0.482E-03
RMM:  10    -0.413215998902E+03    0.33121E-05   -0.45044E-06  2871   0.266E-03    0.313E-03
RMM:  11    -0.413215994939E+03    0.39630E-05   -0.12766E-06  2499   0.187E-03    0.169E-03
RMM:  12    -0.413215989538E+03    0.54010E-05   -0.73991E-07  2448   0.147E-03    0.607E-04
RMM:  13    -0.413215986429E+03    0.31098E-05   -0.36215E-07  2103   0.103E-03    0.297E-04
RMM:  14    -0.413215984492E+03    0.19361E-05   -0.19466E-07  1604   0.793E-04    0.192E-04
RMM:  15    -0.413215980637E+03    0.38552E-05   -0.13444E-07  1316   0.715E-04    0.109E-04
RMM:  16    -0.413215978484E+03    0.21536E-05   -0.86022E-08  1170   0.660E-04    0.803E-05
RMM:  17    -0.413215975977E+03    0.25063E-05   -0.69580E-08  1165   0.641E-04    0.505E-05
RMM:  18    -0.413215973488E+03    0.24897E-05   -0.53627E-08  1123   0.618E-04    0.341E-05
RMM:  19    -0.413215971882E+03    0.16055E-05   -0.35503E-08   964   0.577E-04    0.217E-05
RMM:  20    -0.413215971454E+03    0.42753E-06   -0.17556E-08   762   0.544E-04
   43 T=    71. E= -.41286731E+03 F= -.41321597E+03 E0= -.41319496E+03  EK= 0.34866E+00 SP= 0.00E+00 SK= 0.00E+00
       N       E                     dE             d eps       ncg     rms          rms(c)
RMM:   1    -0.413232656673E+03   -0.16685E-01   -0.11247E+01  4312   0.136E+00    0.949E-01
RMM:   2    -0.413221295209E+03    0.11361E-01   -0.16625E-01  4296   0.161E-01    0.701E-01
RMM:   3    -0.413222595624E+03   -0.13004E-02   -0.16476E-02  5067   0.892E-02    0.344E-01
RMM:   4    -0.413256980023E+03   -0.34384E-01   -0.55758E-02  5079   0.200E-01    0.821E-01
RMM:   5    -0.413217206758E+03    0.39773E-01   -0.16986E-02  4717   0.137E-01    0.604E-02
RMM:   6    -0.413217254366E+03   -0.47608E-04   -0.30282E-03  5739   0.524E-02    0.340E-02
RMM:   7    -0.413217255373E+03   -0.10076E-05   -0.43088E-04  5768   0.191E-02    0.224E-02
RMM:   8    -0.413217252868E+03    0.25057E-05   -0.11532E-04  5178   0.111E-02    0.116E-02
RMM:   9    -0.413217242253E+03    0.10614E-04   -0.20043E-05  4426   0.560E-03    0.457E-03
RMM:  10    -0.413217239931E+03    0.23220E-05   -0.40724E-06  2809   0.259E-03    0.288E-03
RMM:  11    -0.413217236951E+03    0.29805E-05   -0.12778E-06  2497   0.186E-03    0.155E-03
RMM:  12    -0.413217232963E+03    0.39877E-05   -0.74744E-07  2439   0.145E-03    0.580E-04
RMM:  13    -0.413217230570E+03    0.23929E-05   -0.37004E-07  2048   0.101E-03    0.278E-04
RMM:  14    -0.413217228845E+03    0.17249E-05   -0.20675E-07  1566   0.795E-04    0.177E-04
RMM:  15    -0.413217225509E+03    0.33366E-05   -0.15425E-07  1320   0.730E-04    0.107E-04
RMM:  16    -0.413217223882E+03    0.16268E-05   -0.97204E-08  1203   0.673E-04    0.786E-05
RMM:  17    -0.413217221612E+03    0.22697E-05   -0.80340E-08  1200   0.654E-04    0.451E-05
RMM:  18    -0.413217219687E+03    0.19257E-05   -0.56269E-08  1100   0.617E-04    0.325E-05
RMM:  19    -0.413217218342E+03    0.13444E-05   -0.36727E-08   935   0.576E-04    0.214E-05
RMM:  20    -0.413217217923E+03    0.41909E-06   -0.20305E-08   767   0.546E-04
   44 T=    71. E= -.41286709E+03 F= -.41321722E+03 E0= -.41319623E+03  EK= 0.35013E+00 SP= 0.00E+00 SK= 0.00E+00
       N       E                     dE             d eps       ncg     rms          rms(c)
RMM:   1    -0.413250347437E+03   -0.33129E-01   -0.11402E+01  4311   0.151E+00    0.975E-01
RMM:   2    -0.413222142882E+03    0.28205E-01   -0.17130E-01  4333   0.170E-01    0.697E-01
RMM:   3    -0.413227801343E+03   -0.56585E-02   -0.19603E-02  5114   0.105E-01    0.436E-01
RMM:   4    -0.413244151006E+03   -0.16350E-01   -0.45751E-02  5052   0.184E-01    0.666E-01
RMM:   5    -0.413218785617E+03    0.25365E-01   -0.98046E-03  4660   0.112E-01    0.580E-02
RMM:   6    -0.413218768704E+03    0.16913E-04   -0.19852E-03  5611   0.427E-02    0.333E-02
RMM:   7    -0.413218764111E+03    0.45939E-05   -0.32917E-04  5638   0.174E-02    0.220E-02
RMM:   8    -0.413218755387E+03    0.87233E-05   -0.11521E-04  5091   0.112E-02    0.106E-02
RMM:   9    -0.413218741979E+03    0.13408E-04   -0.16235E-05  4315   0.549E-03    0.430E-03
RMM:  10    -0.413218738025E+03    0.39539E-05   -0.30169E-06  2725   0.233E-03    0.250E-03
RMM:  11    -0.413218731921E+03    0.61045E-05   -0.11708E-06  2482   0.179E-03    0.135E-03
RMM:  12    -0.413218725669E+03    0.62513E-05   -0.60505E-07  2419   0.135E-03    0.605E-04
RMM:  13    -0.413218722137E+03    0.35321E-05   -0.28555E-07  1888   0.922E-04    0.294E-04
RMM:  14    -0.413218718829E+03    0.33085E-05   -0.16290E-07  1424   0.737E-04    0.164E-04
RMM:  15    -0.413218713778E+03    0.50503E-05   -0.12471E-07  1295   0.698E-04    0.121E-04
RMM:  16    -0.413218711197E+03    0.25812E-05   -0.79370E-08  1125   0.640E-04    0.923E-05
RMM:  17    -0.413218706785E+03    0.44118E-05   -0.79032E-08  1308   0.650E-04    0.643E-05
RMM:  18    -0.413218704680E+03    0.21054E-05   -0.45217E-08  1026   0.579E-04    0.416E-05
RMM:  19    -0.413218703455E+03    0.12244E-05   -0.30529E-08   874   0.543E-04    0.226E-05
RMM:  20    -0.413218703004E+03    0.45114E-06   -0.17552E-08   729   0.523E-04
   45 T=    72. E= -.41286741E+03 F= -.41321870E+03 E0= -.41319774E+03  EK= 0.35129E+00 SP= 0.00E+00 SK= 0.00E+00
       N       E                     dE             d eps       ncg     rms          rms(c)
RMM:   1    -0.413266051251E+03   -0.47348E-01   -0.11451E+01  4311   0.164E+00    0.956E-01
RMM:   2    -0.413222278647E+03    0.43773E-01   -0.18315E-01  4361   0.183E-01    0.693E-01
RMM:   3    -0.413230335037E+03   -0.80564E-02   -0.20776E-02  5116   0.113E-01    0.491E-01
RMM:   4    -0.413240123268E+03   -0.97882E-02   -0.43897E-02  5036   0.182E-01    0.615E-01
RMM:   5    -0.413218925486E+03    0.21198E-01   -0.80502E-03  4615   0.105E-01    0.574E-02
RMM:   6    -0.413218887075E+03    0.38411E-04   -0.16113E-03  5480   0.392E-02    0.323E-02
RMM:   7    -0.413218882584E+03    0.44905E-05   -0.27791E-04  5626   0.163E-02    0.218E-02
RMM:   8    -0.413218872043E+03    0.10541E-04   -0.12028E-04  5078   0.113E-02    0.103E-02
RMM:   9    -0.413218858297E+03    0.13746E-04   -0.16612E-05  4324   0.560E-03    0.417E-03
RMM:  10    -0.413218855105E+03    0.31921E-05   -0.29170E-06  2708   0.226E-03    0.239E-03
RMM:  11    -0.413218849317E+03    0.57885E-05   -0.12773E-06  2492   0.182E-03    0.131E-03
RMM:  12    -0.413218844566E+03    0.47502E-05   -0.57972E-07  2430   0.133E-03    0.657E-04
RMM:  13    -0.413218841299E+03    0.32679E-05   -0.27458E-07  1822   0.901E-04    0.321E-04
RMM:  14    -0.413218837992E+03    0.33066E-05   -0.15600E-07  1367   0.723E-04    0.172E-04
RMM:  15    -0.413218834127E+03    0.38651E-05   -0.11827E-07  1274   0.682E-04    0.123E-04
RMM:  16    -0.413218831694E+03    0.24330E-05   -0.77112E-08  1102   0.630E-04    0.101E-04
RMM:  17    -0.413218827974E+03    0.37199E-05   -0.76836E-08  1286   0.643E-04    0.639E-05
RMM:  18    -0.413218825986E+03    0.19885E-05   -0.44194E-08   965   0.573E-04    0.461E-05
RMM:  19    -0.413218825176E+03    0.80992E-06   -0.25852E-08   816   0.540E-04
   46 T=    72. E= -.41286731E+03 F= -.41321883E+03 E0= -.41319788E+03  EK= 0.35151E+00 SP= 0.00E+00 SK= 0.00E+00
       N       E                     dE             d eps       ncg     rms          rms(c)
RMM:   1    -0.413249711821E+03   -0.30886E-01   -0.11317E+01  4311   0.164E+00    0.942E-01
RMM:   2    -0.413222266940E+03    0.27445E-01   -0.19692E-01  4365   0.199E-01    0.707E-01
RMM:   3    -0.413230415630E+03   -0.81487E-02   -0.20609E-02  5110   0.119E-01    0.510E-01
RMM:   4    -0.413241594953E+03   -0.11179E-01   -0.47130E-02  5033   0.189E-01    0.644E-01
RMM:   5    -0.413218341962E+03    0.23253E-01   -0.90749E-03  4609   0.111E-01    0.600E-02
RMM:   6    -0.413218299564E+03    0.42398E-04   -0.17405E-03  5490   0.407E-02    0.327E-02
RMM:   7    -0.413218295746E+03    0.38187E-05   -0.29073E-04  5675   0.165E-02    0.229E-02
RMM:   8    -0.413218286083E+03    0.96630E-05   -0.12417E-04  5114   0.114E-02    0.105E-02
RMM:   9    -0.413218273488E+03    0.12595E-04   -0.19183E-05  4415   0.588E-03    0.412E-03
RMM:  10    -0.413218271355E+03    0.21325E-05   -0.31784E-06  2734   0.232E-03    0.237E-03
RMM:  11    -0.413218267522E+03    0.38332E-05   -0.15200E-06  2527   0.192E-03    0.139E-03
RMM:  12    -0.413218264572E+03    0.29495E-05   -0.61585E-07  2443   0.138E-03    0.707E-04
RMM:  13    -0.413218262061E+03    0.25109E-05   -0.31347E-07  1844   0.936E-04    0.335E-04
RMM:  14    -0.413218259597E+03    0.24643E-05   -0.18557E-07  1425   0.754E-04    0.181E-04
RMM:  15    -0.413218256970E+03    0.26275E-05   -0.14193E-07  1310   0.701E-04    0.118E-04
RMM:  16    -0.413218255021E+03    0.19487E-05   -0.95737E-08  1205   0.649E-04    0.102E-04
RMM:  17    -0.413218252592E+03    0.24292E-05   -0.84011E-08  1229   0.637E-04    0.543E-05
RMM:  18    -0.413218250833E+03    0.17590E-05   -0.55193E-08  1045   0.587E-04    0.471E-05
RMM:  19    -0.413218250345E+03    0.48727E-06   -0.26784E-08   784   0.535E-04
   47 T=    71. E= -.41286732E+03 F= -.41321825E+03 E0= -.41319732E+03  EK= 0.35093E+00 SP= 0.00E+00 SK= 0.00E+00
       N       E                     dE             d eps       ncg     rms          rms(c)
RMM:   1    -0.413246978689E+03   -0.28728E-01   -0.11229E+01  4305   0.175E+00    0.968E-01
RMM:   2    -0.413220551554E+03    0.26427E-01   -0.18129E-01  4418   0.204E-01    0.701E-01
RMM:   3    -0.413236237205E+03   -0.15686E-01   -0.27977E-02  5134   0.141E-01    0.615E-01
RMM:   4    -0.413230645843E+03    0.55914E-02   -0.41919E-02  4987   0.182E-01    0.501E-01
RMM:   5    -0.413217044950E+03    0.13601E-01   -0.50022E-03  4537   0.918E-02    0.571E-02
RMM:   6    -0.413216952059E+03    0.92891E-04   -0.80898E-04  4993   0.308E-02    0.303E-02
RMM:   7    -0.413216938339E+03    0.13720E-04   -0.16480E-04  5729   0.125E-02    0.128E-02
RMM:   8    -0.413216937473E+03    0.86667E-06   -0.74516E-05  5259   0.892E-03    0.100E-02
RMM:   9    -0.413216925635E+03    0.11838E-04   -0.18952E-05  4445   0.522E-03    0.453E-03
RMM:  10    -0.413216923275E+03    0.23603E-05   -0.23139E-06  2581   0.236E-03    0.234E-03
RMM:  11    -0.413216917303E+03    0.59716E-05   -0.17540E-06  2504   0.207E-03    0.143E-03
RMM:  12    -0.413216912941E+03    0.43617E-05   -0.64947E-07  2382   0.144E-03    0.846E-04
RMM:  13    -0.413216909105E+03    0.38361E-05   -0.28944E-07  1843   0.963E-04    0.466E-04
RMM:  14    -0.413216904690E+03    0.44156E-05   -0.17898E-07  1663   0.769E-04    0.315E-04
RMM:  15    -0.413216900432E+03    0.42580E-05   -0.10903E-07  1077   0.623E-04    0.163E-04
RMM:  16    -0.413216898165E+03    0.22669E-05   -0.70458E-08   988   0.583E-04    0.120E-04
RMM:  17    -0.413216895414E+03    0.27512E-05   -0.64302E-08  1053   0.588E-04    0.846E-05
RMM:  18    -0.413216892994E+03    0.24197E-05   -0.46167E-08   935   0.570E-04    0.561E-05
RMM:  19    -0.413216892302E+03    0.69154E-06   -0.23308E-08   711   0.521E-04
   48 T=    71. E= -.41286757E+03 F= -.41321689E+03 E0= -.41319597E+03  EK= 0.34932E+00 SP= 0.00E+00 SK= 0.00E+00
       N       E                     dE             d eps       ncg     rms          rms(c)
RMM:   1    -0.413248542411E+03   -0.31649E-01   -0.11086E+01  4305   0.187E+00    0.958E-01
RMM:   2    -0.413216983442E+03    0.31559E-01   -0.18314E-01  4489   0.216E-01    0.691E-01
RMM:   3    -0.413238717737E+03   -0.21734E-01   -0.32877E-02  5150   0.157E-01    0.698E-01
RMM:   4    -0.413223054124E+03    0.15664E-01   -0.40555E-02  4962   0.182E-01    0.430E-01
RMM:   5    -0.413213575198E+03    0.94789E-02   -0.43620E-03  4560   0.882E-02    0.615E-02
RMM:   6    -0.413213421378E+03    0.15382E-03   -0.50453E-04  4744   0.287E-02    0.325E-02
RMM:   7    -0.413213429051E+03   -0.76729E-05   -0.28997E-04  5780   0.175E-02    0.225E-02
RMM:   8    -0.413213397628E+03    0.31423E-04   -0.10523E-04  5066   0.116E-02    0.908E-03
RMM:   9    -0.413213390277E+03    0.73516E-05   -0.16008E-05  4522   0.540E-03    0.475E-03
RMM:  10    -0.413213386085E+03    0.41919E-05   -0.21376E-06  2597   0.232E-03    0.248E-03
RMM:  11    -0.413213379913E+03    0.61715E-05   -0.13868E-06  2493   0.190E-03    0.171E-03
RMM:  12    -0.413213376346E+03    0.35669E-05   -0.43850E-07  2385   0.122E-03    0.885E-04
RMM:  13    -0.413213371464E+03    0.48825E-05   -0.28668E-07  1937   0.905E-04    0.453E-04
RMM:  14    -0.413213366093E+03    0.53710E-05   -0.23258E-07  1802   0.814E-04    0.407E-04
RMM:  15    -0.413213361840E+03    0.42524E-05   -0.12574E-07  1159   0.645E-04    0.156E-04
RMM:  16    -0.413213359532E+03    0.23088E-05   -0.79494E-08  1090   0.606E-04    0.101E-04
RMM:  17    -0.413213356635E+03    0.28968E-05   -0.71538E-08  1120   0.608E-04    0.816E-05
RMM:  18    -0.413213355380E+03    0.12545E-05   -0.41995E-08   948   0.559E-04    0.730E-05
RMM:  19    -0.413213353887E+03    0.14929E-05   -0.37195E-08   955   0.550E-04    0.417E-05
RMM:  20    -0.413213353111E+03    0.77684E-06   -0.25857E-08   833   0.520E-04
   49 T=    70. E= -.41286728E+03 F= -.41321335E+03 E0= -.41319244E+03  EK= 0.34608E+00 SP= 0.00E+00 SK= 0.00E+00
       N       E                     dE             d eps       ncg     rms          rms(c)
RMM:   1    -0.413240638902E+03   -0.27285E-01   -0.10915E+01  4304   0.196E+00    0.933E-01
RMM:   2    -0.413213080299E+03    0.27559E-01   -0.18244E-01  4519   0.223E-01    0.695E-01
RMM:   3    -0.413235462828E+03   -0.22383E-01   -0.33640E-02  5152   0.161E-01    0.714E-01
RMM:   4    -0.413218805233E+03    0.16658E-01   -0.41975E-02  4959   0.186E-01    0.432E-01
RMM:   5    -0.413209118667E+03    0.96866E-02   -0.46530E-03  4597   0.913E-02    0.642E-02
RMM:   6    -0.413208935707E+03    0.18296E-03   -0.51477E-04  4721   0.300E-02    0.328E-02
RMM:   7    -0.413208942970E+03   -0.72629E-05   -0.30575E-04  5775   0.181E-02    0.236E-02
[...]
RMM:   2    -0.413429658902E+03   -0.49439E-02   -0.29945E-01  5351   0.514E-01    0.105E+00
RMM:   3    -0.413501036435E+03   -0.71378E-01   -0.13326E-01  5277   0.369E-01    0.144E+00
RMM:   4    -0.413423228461E+03    0.77808E-01   -0.97807E-02  5068   0.358E-01    0.432E-01
RMM:   5    -0.413414586091E+03    0.86424E-02   -0.43772E-02  4970   0.255E-01    0.151E-01
RMM:   6    -0.413413483309E+03    0.11028E-02   -0.89073E-03  5464   0.115E-01    0.931E-02
RMM:   7    -0.413413208571E+03    0.27474E-03   -0.83541E-04  4750   0.392E-02    0.391E-02
RMM:   8    -0.413413194707E+03    0.13863E-04   -0.41851E-04  5526   0.244E-02    0.183E-02
RMM:   9    -0.413413201461E+03   -0.67537E-05   -0.83997E-05  5812   0.990E-03    0.149E-02
RMM:  10    -0.413413201631E+03   -0.17009E-06   -0.28761E-05  5043   0.656E-03    0.609E-03
RMM:  11    -0.413413206310E+03   -0.46785E-05   -0.14550E-05  4364   0.430E-03    0.501E-03
RMM:  12    -0.413413209093E+03   -0.27829E-05   -0.19458E-06  2628   0.245E-03    0.196E-03
RMM:  13    -0.413413210729E+03   -0.16364E-05   -0.97636E-07  2510   0.158E-03    0.878E-04
RMM:  14    -0.413413212045E+03   -0.13159E-05   -0.63454E-07  2292   0.125E-03    0.366E-04
RMM:  15    -0.413413212787E+03   -0.74250E-06   -0.40487E-07  1924   0.983E-04
  140 T=   108. E= -.41288305E+03 F= -.41341321E+03 E0= -.41339169E+03  EK= 0.53016E+00 SP= 0.00E+00 SK= 0.00E+00
       N       E                     dE             d eps       ncg     rms          rms(c)
RMM:   1    -0.413748042483E+03   -0.33483E+00   -0.14746E+01  4298   0.666E+00    0.173E+00
RMM:   2    -0.413678275574E+03    0.69767E-01   -0.48742E-01  5353   0.762E-01    0.151E+00
RMM:   3    -0.413704064219E+03   -0.25789E-01   -0.17771E-01  5269   0.457E-01    0.158E+00
RMM:   4    -0.413645950266E+03    0.58114E-01   -0.15285E-01  5200   0.442E-01    0.641E-01
RMM:   5    -0.413630898510E+03    0.15052E-01   -0.83878E-02  4956   0.356E-01    0.243E-01
RMM:   6    -0.413628083129E+03    0.28154E-02   -0.20117E-02  5262   0.178E-01    0.148E-01
RMM:   7    -0.413627198724E+03    0.88440E-03   -0.15789E-03  4494   0.612E-02    0.557E-02
RMM:   8    -0.413627169978E+03    0.28746E-04   -0.94703E-04  5434   0.369E-02    0.265E-02
RMM:   9    -0.413627184471E+03   -0.14493E-04   -0.20008E-04  5865   0.159E-02    0.235E-02
RMM:  10    -0.413627178405E+03    0.60652E-05   -0.51115E-05  5124   0.896E-03    0.961E-03
RMM:  11    -0.413627189448E+03   -0.11042E-04   -0.40837E-05  5462   0.689E-03    0.683E-03
RMM:  12    -0.413627195833E+03   -0.63858E-05   -0.43829E-06  2939   0.323E-03    0.320E-03
RMM:  13    -0.413627199752E+03   -0.39188E-05   -0.20576E-06  2653   0.221E-03    0.144E-03
RMM:  14    -0.413627202451E+03   -0.26987E-05   -0.14400E-06  2549   0.178E-03    0.689E-04
RMM:  15    -0.413627204003E+03   -0.15522E-05   -0.10882E-06  2363   0.148E-03    0.416E-04
RMM:  16    -0.413627204349E+03   -0.34607E-06   -0.87337E-07  2338   0.127E-03
  141 T=   149. E= -.41289316E+03 F= -.41362720E+03 E0= -.41360595E+03  EK= 0.73405E+00 SP= 0.00E+00 SK= 0.00E+00
       N       E                     dE             d eps       ncg     rms          rms(c)
RMM:   1    -0.413744124844E+03   -0.11692E+00   -0.16400E+01  4304   0.719E+00    0.121E+00
RMM:   2    -0.413654404662E+03    0.89720E-01   -0.45840E-01  5372   0.778E-01    0.130E+00
RMM:   3    -0.413619834679E+03    0.34570E-01   -0.10076E-01  5393   0.366E-01    0.106E+00
RMM:   4    -0.413604918290E+03    0.14916E-01   -0.59929E-02  5320   0.281E-01    0.567E-01
RMM:   5    -0.413603753614E+03    0.11647E-02   -0.49276E-02  4952   0.274E-01    0.303E-01
RMM:   6    -0.413600410079E+03    0.33435E-02   -0.19597E-02  5017   0.175E-01    0.161E-01
RMM:   7    -0.413599292441E+03    0.11176E-02   -0.17766E-03  4425   0.683E-02    0.612E-02
RMM:   8    -0.413599303539E+03   -0.11098E-04   -0.11707E-03  5671   0.389E-02    0.367E-02
RMM:   9    -0.413599306691E+03   -0.31521E-05   -0.23824E-04  5174   0.190E-02    0.231E-02
RMM:  10    -0.413599305210E+03    0.14811E-05   -0.62632E-05  5368   0.103E-02    0.985E-03
RMM:  11    -0.413599318472E+03   -0.13262E-04   -0.35544E-05  5299   0.696E-03    0.684E-03
RMM:  12    -0.413599328639E+03   -0.10167E-04   -0.61634E-06  3174   0.365E-03    0.335E-03
RMM:  13    -0.413599334914E+03   -0.62756E-05   -0.30077E-06  2755   0.254E-03    0.129E-03
RMM:  14    -0.413599339419E+03   -0.45047E-05   -0.22171E-06  2662   0.200E-03    0.774E-04
RMM:  15    -0.413599341894E+03   -0.24747E-05   -0.18654E-06  2481   0.168E-03    0.534E-04
RMM:  16    -0.413599342141E+03   -0.24753E-06   -0.15767E-06  2403   0.144E-03
  142 T=   146. E= -.41288334E+03 F= -.41359934E+03 E0= -.41357842E+03  EK= 0.71601E+00 SP= 0.00E+00 SK= 0.00E+00
       N       E                     dE             d eps       ncg     rms          rms(c)
RMM:   1    -0.413509763008E+03    0.89579E-01   -0.12445E+01  4305   0.644E+00    0.733E-01
RMM:   2    -0.413465578798E+03    0.44184E-01   -0.31040E-01  5363   0.640E-01    0.889E-01
RMM:   3    -0.413443850861E+03    0.21728E-01   -0.52609E-02  5491   0.264E-01    0.671E-01
RMM:   4    -0.413437329985E+03    0.65209E-02   -0.16692E-02  5319   0.154E-01    0.419E-01
RMM:   5    -0.413438307231E+03   -0.97725E-03   -0.19406E-02  4945   0.169E-01    0.274E-01
RMM:   6    -0.413436764718E+03    0.15425E-02   -0.13863E-02  4978   0.142E-01    0.137E-01
RMM:   7    -0.413436070808E+03    0.69391E-03   -0.20933E-03  5000   0.645E-02    0.693E-02
RMM:   8    -0.413436028047E+03    0.42761E-04   -0.79260E-04  5808   0.324E-02    0.399E-02
RMM:   9    -0.413436026951E+03    0.10957E-05   -0.28058E-04  4714   0.201E-02    0.168E-02
RMM:  10    -0.413436036579E+03   -0.96286E-05   -0.62556E-05  5553   0.100E-02    0.909E-03
RMM:  11    -0.413436045949E+03   -0.93700E-05   -0.17395E-05  4318   0.546E-03    0.541E-03
RMM:  12    -0.413436057444E+03   -0.11495E-04   -0.61735E-06  3155   0.373E-03    0.295E-03
RMM:  13    -0.413436062741E+03   -0.52970E-05   -0.25945E-06  2716   0.227E-03    0.131E-03
RMM:  14    -0.413436066529E+03   -0.37879E-05   -0.22011E-06  2670   0.195E-03    0.844E-04
RMM:  15    -0.413436067892E+03   -0.13627E-05   -0.19035E-06  2464   0.167E-03    0.512E-04
RMM:  16    -0.413436067318E+03    0.57356E-06   -0.16914E-06  2409   0.146E-03
  143 T=   115. E= -.41287233E+03 F= -.41343607E+03 E0= -.41341552E+03  EK= 0.56373E+00 SP= 0.00E+00 SK= 0.00E+00
       N       E                     dE             d eps       ncg     rms          rms(c)
RMM:   1    -0.413308221961E+03    0.12785E+00   -0.78105E+00  4302   0.531E+00    0.501E-01
RMM:   2    -0.413299696691E+03    0.85253E-02   -0.16880E-01  5339   0.468E-01    0.543E-01
RMM:   3    -0.413295887653E+03    0.38090E-02   -0.26998E-02  5603   0.178E-01    0.476E-01
RMM:   4    -0.413291789511E+03    0.40981E-02   -0.68550E-03  5246   0.990E-02    0.293E-01
RMM:   5    -0.413292371359E+03   -0.58185E-03   -0.10107E-02  4962   0.120E-01    0.195E-01
RMM:   6    -0.413291556982E+03    0.81438E-03   -0.77152E-03  5099   0.103E-01    0.963E-02
RMM:   7    -0.413291256779E+03    0.30020E-03   -0.11527E-03  5341   0.460E-02    0.598E-02
RMM:   8    -0.413291193541E+03    0.63238E-04   -0.39106E-04  5533   0.229E-02    0.292E-02
RMM:   9    -0.413291213100E+03   -0.19560E-04   -0.25253E-04  4862   0.175E-02    0.133E-02
RMM:  10    -0.413291216363E+03   -0.32628E-05   -0.28677E-05  4804   0.716E-03    0.855E-03
RMM:  11    -0.413291220994E+03   -0.46313E-05   -0.12592E-05  3757   0.455E-03    0.366E-03
RMM:  12    -0.413291229509E+03   -0.85151E-05   -0.45418E-06  2972   0.316E-03    0.191E-03
RMM:  13    -0.413291234089E+03   -0.45797E-05   -0.20428E-06  2661   0.198E-03    0.108E-03
RMM:  14    -0.413291236897E+03   -0.28081E-05   -0.17053E-06  2484   0.163E-03    0.636E-04
RMM:  15    -0.413291238319E+03   -0.14219E-05   -0.17103E-06  2499   0.156E-03    0.412E-04
RMM:  16    -0.413291237925E+03    0.39371E-06   -0.12654E-06  2249   0.129E-03
  144 T=    86. E= -.41286745E+03 F= -.41329124E+03 E0= -.41327103E+03  EK= 0.42379E+00 SP= 0.00E+00 SK= 0.00E+00
       N       E                     dE             d eps       ncg     rms          rms(c)
RMM:   1    -0.413238313132E+03    0.52925E-01   -0.52461E+00  4298   0.454E+00    0.429E-01
RMM:   2    -0.413239896904E+03   -0.15838E-02   -0.94250E-02  5212   0.365E-01    0.362E-01
RMM:   3    -0.413246494336E+03   -0.65974E-02   -0.19488E-02  5683   0.142E-01    0.452E-01
RMM:   4    -0.413239741333E+03    0.67530E-02   -0.70235E-03  5129   0.973E-02    0.208E-01
RMM:   5    -0.413239883693E+03   -0.14236E-03   -0.67079E-03  5053   0.101E-01    0.108E-01
RMM:   6    -0.413239461506E+03    0.42219E-03   -0.23796E-03  5147   0.598E-02    0.545E-02
RMM:   7    -0.413239350511E+03    0.11100E-03   -0.38565E-04  5332   0.263E-02    0.315E-02
RMM:   8    -0.413239342990E+03    0.75212E-05   -0.13116E-04  5687   0.129E-02    0.179E-02
RMM:   9    -0.413239355831E+03   -0.12842E-04   -0.88804E-05  4825   0.112E-02    0.101E-02
RMM:  10    -0.413239356953E+03   -0.11217E-05   -0.11448E-05  3824   0.443E-03    0.630E-03
RMM:  11    -0.413239360148E+03   -0.31950E-05   -0.46842E-06  3025   0.303E-03    0.309E-03
RMM:  12    -0.413239365960E+03   -0.58122E-05   -0.35747E-06  2848   0.267E-03    0.147E-03
RMM:  13    -0.413239370335E+03   -0.43747E-05   -0.14772E-06  2557   0.181E-03    0.745E-04
RMM:  14    -0.413239373305E+03   -0.29702E-05   -0.96964E-07  2377   0.135E-03    0.474E-04
RMM:  15    -0.413239376028E+03   -0.27231E-05   -0.10942E-06  2350   0.136E-03    0.348E-04
RMM:  16    -0.413239376807E+03   -0.77913E-06   -0.45511E-07  1791   0.905E-04
  145 T=    76. E= -.41286758E+03 F= -.41323938E+03 E0= -.41321944E+03  EK= 0.37180E+00 SP= 0.00E+00 SK= 0.00E+00
       N       E                     dE             d eps       ncg     rms          rms(c)
RMM:   1    -0.413283185790E+03   -0.43810E-01   -0.52574E+00  4293   0.453E+00    0.521E-01
RMM:   2    -0.413282165786E+03    0.10200E-02   -0.90933E-02  5131   0.382E-01    0.413E-01
RMM:   3    -0.413288200364E+03   -0.60346E-02   -0.20373E-02  5570   0.160E-01    0.379E-01
RMM:   4    -0.413288520524E+03   -0.32016E-03   -0.15028E-02  5205   0.122E-01    0.340E-01
RMM:   5    -0.413282913287E+03    0.56072E-02   -0.86263E-03  5156   0.113E-01    0.927E-02
RMM:   6    -0.413282588024E+03    0.32526E-03   -0.85144E-04  4697   0.433E-02    0.324E-02
RMM:   7    -0.413282567609E+03    0.20416E-04   -0.30338E-04  5507   0.204E-02    0.193E-02
RMM:   8    -0.413282571115E+03   -0.35068E-05   -0.13189E-04  5861   0.124E-02    0.167E-02
RMM:   9    -0.413282559830E+03    0.11286E-04   -0.27444E-05  4882   0.675E-03    0.100E-02
RMM:  10    -0.413282562121E+03   -0.22915E-05   -0.15849E-05  4526   0.507E-03    0.419E-03
RMM:  11    -0.413282567140E+03   -0.50193E-05   -0.54660E-06  3163   0.324E-03    0.313E-03
RMM:  12    -0.413282572524E+03   -0.53838E-05   -0.13603E-06  2550   0.214E-03    0.163E-03
RMM:  13    -0.413282578358E+03   -0.58340E-05   -0.12059E-06  2554   0.169E-03    0.861E-04
RMM:  14    -0.413282584714E+03   -0.63560E-05   -0.93864E-07  2419   0.137E-03    0.519E-04
RMM:  15    -0.413282589329E+03   -0.46151E-05   -0.67252E-07  2120   0.109E-03    0.335E-04
RMM:  16    -0.413282593905E+03   -0.45754E-05   -0.76999E-07  2338   0.113E-03    0.230E-04
RMM:  17    -0.413282596470E+03   -0.25657E-05   -0.35693E-07  1535   0.776E-04    0.181E-04
RMM:  18    -0.413282599314E+03   -0.28434E-05   -0.37897E-07  1840   0.843E-04    0.113E-04
RMM:  19    -0.413282600485E+03   -0.11708E-05   -0.12861E-07  1190   0.613E-04    0.637E-05
RMM:  20    -0.413282601637E+03   -0.11522E-05   -0.87542E-08  1128   0.581E-04    0.600E-05
RMM:  21    -0.413282602625E+03   -0.98824E-06   -0.53424E-08  1004   0.552E-04
  146 T=    84. E= -.41286920E+03 F= -.41328260E+03 E0= -.41326286E+03  EK= 0.41340E+00 SP= 0.00E+00 SK= 0.00E+00
       N       E                     dE             d eps       ncg     rms          rms(c)
RMM:   1    -0.413405102745E+03   -0.12250E+00   -0.72892E+00  4287   0.528E+00    0.649E-01
RMM:   2    -0.413399224449E+03    0.58783E-02   -0.14001E-01  5208   0.467E-01    0.499E-01
RMM:   3    -0.413409018496E+03   -0.97940E-02   -0.32624E-02  5537   0.207E-01    0.494E-01
RMM:   4    -0.413407299259E+03    0.17192E-02   -0.21604E-02  5206   0.148E-01    0.408E-01
RMM:   5    -0.413399849038E+03    0.74502E-02   -0.12257E-02  5130   0.137E-01    0.958E-02
RMM:   6    -0.413399585911E+03    0.26313E-03   -0.16656E-03  5345   0.545E-02    0.468E-02
RMM:   7    -0.413399480980E+03    0.10493E-03   -0.42725E-04  5030   0.255E-02    0.275E-02
RMM:   8    -0.413399456977E+03    0.24003E-04   -0.18417E-04  5536   0.164E-02    0.192E-02
RMM:   9    -0.413399443557E+03    0.13420E-04   -0.58040E-05  5513   0.935E-03    0.151E-02
RMM:  10    -0.413399439509E+03    0.40481E-05   -0.32319E-05  5106   0.729E-03    0.587E-03
RMM:  11    -0.413399442941E+03   -0.34317E-05   -0.10589E-05  3857   0.395E-03    0.490E-03
RMM:  12    -0.413399448590E+03   -0.56491E-05   -0.28044E-06  2741   0.291E-03    0.242E-03
RMM:  13    -0.413399455474E+03   -0.68842E-05   -0.23792E-06  2702   0.230E-03    0.117E-03
RMM:  14    -0.413399464521E+03   -0.90468E-05   -0.15420E-06  2596   0.188E-03    0.697E-04
RMM:  15    -0.413399473524E+03   -0.90031E-05   -0.15816E-06  2623   0.166E-03    0.623E-04
RMM:  16    -0.413399481839E+03   -0.83148E-05   -0.16922E-06  2511   0.155E-03    0.498E-04
RMM:  17    -0.413399486064E+03   -0.42255E-05   -0.78401E-07  1994   0.103E-03    0.358E-04
RMM:  18    -0.413399491594E+03   -0.55304E-05   -0.93734E-07  2316   0.115E-03    0.219E-04
RMM:  19    -0.413399493687E+03   -0.20926E-05   -0.28094E-07  1430   0.711E-04    0.102E-04
RMM:  20    -0.413399495625E+03   -0.19378E-05   -0.16223E-07  1284   0.645E-04    0.834E-05
RMM:  21    -0.413399496894E+03   -0.12694E-05   -0.85219E-08  1090   0.583E-04    0.585E-05
RMM:  22    -0.413399497628E+03   -0.73355E-06   -0.45298E-08   973   0.551E-04
  147 T=   108. E= -.41286908E+03 F= -.41339950E+03 E0= -.41337985E+03  EK= 0.53042E+00 SP= 0.00E+00 SK= 0.00E+00
       N       E                     dE             d eps       ncg     rms          rms(c)
RMM:   1    -0.413607446361E+03   -0.20795E+00   -0.11072E+01  4278   0.642E+00    0.736E-01
RMM:   2    -0.413588802814E+03    0.18644E-01   -0.24717E-01  5281   0.609E-01    0.559E-01
RMM:   3    -0.413615230377E+03   -0.26428E-01   -0.58546E-02  5476   0.265E-01    0.772E-01
RMM:   4    -0.413590961148E+03    0.24269E-01   -0.27042E-02  5200   0.183E-01    0.389E-01
RMM:   5    -0.413588083880E+03    0.28773E-02   -0.95031E-03  4747   0.137E-01    0.906E-02
RMM:   6    -0.413588017458E+03    0.66422E-04   -0.18559E-03  5498   0.543E-02    0.481E-02
RMM:   7    -0.413587971405E+03    0.46053E-04   -0.54673E-04  5395   0.273E-02    0.310E-02
RMM:   8    -0.413587927189E+03    0.44216E-04   -0.22500E-04  5450   0.178E-02    0.226E-02
RMM:   9    -0.413587914155E+03    0.13034E-04   -0.81186E-05  5469   0.113E-02    0.170E-02
RMM:  10    -0.413587908124E+03    0.60310E-05   -0.43604E-05  5189   0.828E-03    0.652E-03
RMM:  11    -0.413587911869E+03   -0.37456E-05   -0.11727E-05  3939   0.429E-03    0.523E-03
RMM:  12    -0.413587917880E+03   -0.60105E-05   -0.35043E-06  2869   0.314E-03    0.236E-03
RMM:  13    -0.413587925208E+03   -0.73280E-05   -0.25022E-06  2709   0.236E-03    0.126E-03
RMM:  14    -0.413587936594E+03   -0.11386E-04   -0.20829E-06  2663   0.215E-03    0.722E-04
RMM:  15    -0.413587945002E+03   -0.84084E-05   -0.15956E-06  2601   0.166E-03    0.664E-04
RMM:  16    -0.413587954268E+03   -0.92659E-05   -0.20874E-06  2658   0.170E-03    0.509E-04
RMM:  17    -0.413587960046E+03   -0.57778E-05   -0.12844E-06  2196   0.122E-03    0.358E-04
RMM:  18    -0.413587964847E+03   -0.48007E-05   -0.90640E-07  2179   0.111E-03    0.194E-04
RMM:  19    -0.413587967163E+03   -0.23160E-05   -0.37010E-07  1652   0.776E-04    0.140E-04
RMM:  20    -0.413587969001E+03   -0.18381E-05   -0.18482E-07  1256   0.639E-04    0.100E-04
RMM:  21    -0.413587970714E+03   -0.17133E-05   -0.11531E-07  1181   0.606E-04    0.602E-05
RMM:  22    -0.413587971556E+03   -0.84154E-06   -0.62683E-08  1046   0.561E-04
  148 T=   146. E= -.41287063E+03 F= -.41358797E+03 E0= -.41356834E+03  EK= 0.71734E+00 SP= 0.00E+00 SK= 0.00E+00
       N       E                     dE             d eps       ncg     rms          rms(c)
RMM:   1    -0.413879322533E+03   -0.29135E+00   -0.16915E+01  4276   0.772E+00    0.107E+00
RMM:   2    -0.413820949137E+03    0.58373E-01   -0.47530E-01  5333   0.847E-01    0.922E-01
RMM:   3    -0.413864325302E+03   -0.43376E-01   -0.10923E-01  5492   0.363E-01    0.114E+00
RMM:   4    -0.413815290730E+03    0.49035E-01   -0.54075E-02  5134   0.271E-01    0.514E-01
RMM:   5    -0.413812168347E+03    0.31224E-02   -0.14910E-02  4462   0.182E-01    0.141E-01
RMM:   6    -0.413812203685E+03   -0.35338E-04   -0.52740E-03  5354   0.887E-02    0.904E-02
RMM:   7    -0.413811869133E+03    0.33455E-03   -0.18409E-03  5170   0.503E-02    0.478E-02
RMM:   8    -0.413811783179E+03    0.85954E-04   -0.38881E-04  5396   0.254E-02    0.286E-02
RMM:   9    -0.413811758134E+03    0.25045E-04   -0.14685E-04  4819   0.156E-02    0.145E-02
RMM:  10    -0.413811754054E+03    0.40796E-05   -0.46057E-05  5329   0.811E-03    0.768E-03
RMM:  11    -0.413811756868E+03   -0.28133E-05   -0.15078E-05  4331   0.474E-03    0.567E-03
RMM:  12    -0.413811761023E+03   -0.41550E-05   -0.41980E-06  2948   0.343E-03    0.236E-03
RMM:  13    -0.413811767001E+03   -0.59788E-05   -0.26641E-06  2740   0.239E-03    0.136E-03
RMM:  14    -0.413811774823E+03   -0.78217E-05   -0.15994E-06  2609   0.198E-03    0.852E-04
RMM:  15    -0.413811781386E+03   -0.65627E-05   -0.12608E-06  2567   0.157E-03    0.559E-04
RMM:  16    -0.413811787854E+03   -0.64684E-05   -0.13145E-06  2522   0.144E-03    0.369E-04
RMM:  17    -0.413811793981E+03   -0.61272E-05   -0.14671E-06  2428   0.138E-03    0.280E-04
RMM:  18    -0.413811797602E+03   -0.36204E-05   -0.82749E-07  1865   0.998E-04    0.177E-04
RMM:  19    -0.413811799548E+03   -0.19459E-05   -0.33801E-07  1535   0.767E-04    0.106E-04
RMM:  20    -0.413811801248E+03   -0.17006E-05   -0.20102E-07  1310   0.676E-04    0.863E-05
RMM:  21    -0.413811802914E+03   -0.16656E-05   -0.14775E-07  1271   0.637E-04    0.593E-05
RMM:  22    -0.413811803523E+03   -0.60946E-06   -0.68472E-08   992   0.567E-04
  149 T=   189. E= -.41288411E+03 F= -.41381180E+03 E0= -.41379208E+03  EK= 0.92769E+00 SP= 0.00E+00 SK= 0.00E+00
       N       E                     dE             d eps       ncg     rms          rms(c)
RMM:   1    -0.414020191088E+03   -0.20839E+00   -0.22240E+01  4279   0.864E+00    0.168E+00
RMM:   2    -0.413913955309E+03    0.10624E+00   -0.76308E-01  5337   0.105E+00    0.147E+00
RMM:   3    -0.414001356577E+03   -0.87401E-01   -0.20081E-01  5448   0.491E-01    0.171E+00
RMM:   4    -0.413905920409E+03    0.95436E-01   -0.12019E-01  5145   0.397E-01    0.806E-01
RMM:   5    -0.413896433002E+03    0.94874E-02   -0.35675E-02  4488   0.275E-01    0.171E-01
RMM:   6    -0.413896028214E+03    0.40479E-03   -0.81842E-03  5370   0.115E-01    0.111E-01
RMM:   7    -0.413895619006E+03    0.40921E-03   -0.24428E-03  5173   0.590E-02    0.631E-02
RMM:   8    -0.413895481053E+03    0.13795E-03   -0.65500E-04  5327   0.329E-02    0.367E-02
RMM:   9    -0.413895455769E+03    0.25284E-04   -0.28046E-04  5079   0.211E-02    0.218E-02
RMM:  10    -0.413895443510E+03    0.12258E-04   -0.75870E-05  5401   0.109E-02    0.101E-02
RMM:  11    -0.413895443900E+03   -0.38977E-06   -0.34881E-05  5276   0.658E-03    0.773E-03
RMM:  12    -0.413895443169E+03    0.73088E-06   -0.58768E-06  3173   0.375E-03
  150 T=   204. E= -.41289532E+03 F= -.41389544E+03 E0= -.41387539E+03  EK= 0.10001E+01 SP= 0.00E+00 SK= 0.00E+00
