       N       E                     dE             d eps       ncg     rms          rms(c)
RMM:   1     0.220123367167E+04    0.22012E+04   -0.52441E+04  2132   0.654E+02
RMM:   2     0.705119592780E+03   -0.14961E+04   -0.16262E+04  2132   0.177E+02
RMM:   3     0.137566936932E+03   -0.56755E+03   -0.65706E+03  2132   0.117E+02
RMM:   4    -0.159277371736E+03   -0.29684E+03   -0.27858E+03  2132   0.936E+01
RMM:   5    -0.287473998663E+03   -0.12820E+03   -0.11434E+03  2132   0.595E+01
RMM:   6    -0.349684149954E+03   -0.62210E+02   -0.55048E+02  2132   0.423E+01
RMM:   7    -0.382618667310E+03   -0.32935E+02   -0.30431E+02  2132   0.293E+01
RMM:   8    -0.404120802810E+03   -0.21502E+02   -0.18488E+02  2132   0.233E+01
RMM:   9    -0.435970792926E+03   -0.31850E+02   -0.30800E+02  6102   0.173E+01
RMM:  10    -0.441301025605E+03   -0.53302E+01   -0.63418E+01  6398   0.540E+00
RMM:  11    -0.442499354881E+03   -0.11983E+01   -0.11140E+01  6217   0.173E+00
RMM:  12    -0.442878844539E+03   -0.37949E+00   -0.26434E+00  6368   0.603E-01    0.134E+02
RMM:  13    -0.425639714067E+03    0.17239E+02   -0.81648E+01  4684   0.120E+01    0.712E+01
RMM:  14    -0.499602984210E+03   -0.73963E+02   -0.54338E+02  5425   0.233E+01    0.307E+01
RMM:  15    -0.415839445897E+03    0.83764E+02   -0.19997E+02  5080   0.164E+01    0.696E+00
RMM:  16    -0.413998259059E+03    0.18412E+01   -0.39623E+01  6086   0.612E+00    0.425E+00
RMM:  17    -0.413209476439E+03    0.78878E+00   -0.25584E+00  5389   0.188E+00    0.244E+00
RMM:  18    -0.413176324978E+03    0.33151E-01   -0.77894E-01  5979   0.901E-01    0.168E+00
RMM:  19    -0.413168198472E+03    0.81265E-02   -0.29704E-01  5686   0.584E-01    0.867E-01
RMM:  20    -0.413187110156E+03   -0.18912E-01   -0.25566E-01  5582   0.526E-01    0.606E-01
RMM:  21    -0.413166811433E+03    0.20299E-01   -0.36840E-02  4990   0.242E-01    0.265E-01
RMM:  22    -0.413164825242E+03    0.19862E-02   -0.18323E-02  6002   0.120E-01    0.136E-01
RMM:  23    -0.413163851170E+03    0.97407E-03   -0.53821E-03  5996   0.646E-02    0.837E-02
RMM:  24    -0.413162763544E+03    0.10876E-02   -0.16046E-03  5272   0.388E-02    0.464E-02
RMM:  25    -0.413162403286E+03    0.36026E-03   -0.91093E-04  5472   0.272E-02    0.352E-02
RMM:  26    -0.413162600623E+03   -0.19734E-03   -0.94486E-04  5832   0.308E-02    0.350E-02
RMM:  27    -0.413163030361E+03   -0.42974E-03   -0.20618E-04  4574   0.200E-02    0.195E-02
RMM:  28    -0.413163476840E+03   -0.44648E-03   -0.19091E-04  5305   0.185E-02    0.838E-03
RMM:  29    -0.413163864799E+03   -0.38796E-03   -0.10396E-04  4427   0.148E-02    0.432E-03
RMM:  30    -0.413164090814E+03   -0.22601E-03   -0.73680E-05  4164   0.979E-03    0.366E-03
RMM:  31    -0.413164234525E+03   -0.14371E-03   -0.57186E-05  3225   0.723E-03    0.323E-03
RMM:  32    -0.413164260580E+03   -0.26055E-04   -0.21283E-05  2980   0.298E-03    0.174E-03
RMM:  33    -0.413164276751E+03   -0.16170E-04   -0.90093E-06  2806   0.234E-03    0.589E-04
RMM:  34    -0.413164280613E+03   -0.38622E-05   -0.50370E-06  2646   0.163E-03    0.749E-04
RMM:  35    -0.413164281384E+03   -0.77056E-06   -0.23304E-06  2310   0.121E-03
    1 T=    61. E= -.41286648E+03 F= -.41316428E+03 E0= -.41314178E+03  EK= 0.29780E+00 SP= 0.00E+00 SK= 0.00E+00
       N       E                     dE             d eps       ncg     rms          rms(c)
RMM:   1    -0.413154189734E+03    0.10091E-01   -0.11200E+01  3988   0.699E-01    0.886E-01
RMM:   2    -0.413165255691E+03   -0.11066E-01   -0.13840E-01  3903   0.101E-01    0.640E-01
RMM:   3    -0.413163817588E+03    0.14381E-02   -0.61865E-03  4644   0.358E-02    0.156E-01
RMM:   4    -0.413179457022E+03   -0.15639E-01   -0.16273E-02  5219   0.106E-01    0.524E-01
RMM:   5    -0.413163575352E+03    0.15882E-01   -0.78739E-03  4858   0.874E-02    0.260E-02
RMM:   6    -0.413163675792E+03   -0.10044E-03   -0.12612E-03  5852   0.342E-02    0.141E-02
RMM:   7    -0.413163689138E+03   -0.13346E-04   -0.15689E-04  5654   0.105E-02    0.108E-02
RMM:   8    -0.413163695312E+03   -0.61741E-05   -0.18897E-05  3735   0.405E-03    0.651E-03
RMM:   9    -0.413163702297E+03   -0.69846E-05   -0.35071E-06  2707   0.234E-03    0.416E-03
RMM:  10    -0.413163710909E+03   -0.86127E-05   -0.18350E-06  2544   0.192E-03    0.202E-03
RMM:  11    -0.413163717692E+03   -0.67826E-05   -0.11939E-06  2522   0.151E-03    0.947E-04
RMM:  12    -0.413163720908E+03   -0.32161E-05   -0.61140E-07  2297   0.110E-03    0.387E-04
RMM:  13    -0.413163723167E+03   -0.22589E-05   -0.37033E-07  1697   0.828E-04    0.215E-04
RMM:  14    -0.413163725588E+03   -0.24210E-05   -0.29966E-07  1425   0.746E-04    0.153E-04
RMM:  15    -0.413163727144E+03   -0.15564E-05   -0.21931E-07  1267   0.683E-04    0.865E-05
RMM:  16    -0.413163728038E+03   -0.89375E-06   -0.16925E-07  1154   0.636E-04
    2 T=    61. E= -.41286603E+03 F= -.41316373E+03 E0= -.41314123E+03  EK= 0.29770E+00 SP= 0.00E+00 SK= 0.00E+00
       N       E                     dE             d eps       ncg     rms          rms(c)
RMM:   1    -0.413155421891E+03    0.83053E-02   -0.11237E+01  4189   0.704E-01    0.911E-01
RMM:   2    -0.413165384081E+03   -0.99622E-02   -0.13555E-01  3937   0.964E-02    0.632E-01
RMM:   3    -0.413164724362E+03    0.65972E-03   -0.67074E-03  4851   0.389E-02    0.171E-01
RMM:   4    -0.413194001951E+03   -0.29278E-01   -0.29667E-02  5186   0.144E-01    0.713E-01
RMM:   5    -0.413164300971E+03    0.29701E-01   -0.14417E-02  4830   0.119E-01    0.364E-02
RMM:   6    -0.413164483979E+03   -0.18301E-03   -0.23133E-03  5801   0.468E-02    0.180E-02
RMM:   7    -0.413164496870E+03   -0.12891E-04   -0.27630E-04  5884   0.137E-02    0.134E-02
RMM:   8    -0.413164497751E+03   -0.88110E-06   -0.35065E-05  4330   0.509E-03    0.869E-03
RMM:   9    -0.413164496978E+03    0.77326E-06   -0.51919E-06  2886   0.260E-03
    3 T=    61. E= -.41286648E+03 F= -.41316450E+03 E0= -.41314200E+03  EK= 0.29802E+00 SP= 0.00E+00 SK= 0.00E+00
       N       E                     dE             d eps       ncg     rms          rms(c)
RMM:   1    -0.413154841501E+03    0.96563E-02   -0.11153E+01  4228   0.705E-01    0.894E-01
RMM:   2    -0.413165590440E+03   -0.10749E-01   -0.13443E-01  4153   0.985E-02    0.627E-01
RMM:   3    -0.413167305864E+03   -0.17154E-02   -0.86616E-03  5163   0.630E-02    0.283E-01
RMM:   4    -0.413196168107E+03   -0.28862E-01   -0.41902E-02  5140   0.173E-01    0.743E-01
RMM:   5    -0.413164079146E+03    0.32089E-01   -0.13691E-02  4755   0.124E-01    0.534E-02
RMM:   6    -0.413164154182E+03   -0.75036E-04   -0.23007E-03  5603   0.479E-02    0.155E-02
RMM:   7    -0.413164179246E+03   -0.25063E-04   -0.31684E-04  6039   0.152E-02    0.117E-02
RMM:   8    -0.413164182368E+03   -0.31224E-05   -0.39568E-05  4594   0.545E-03    0.757E-03
RMM:   9    -0.413164184073E+03   -0.17048E-05   -0.64066E-06  3013   0.350E-03    0.359E-03
RMM:  10    -0.413164186159E+03   -0.20856E-05   -0.21064E-06  2560   0.225E-03    0.215E-03
RMM:  11    -0.413164188144E+03   -0.19857E-05   -0.98779E-07  2536   0.155E-03    0.952E-04
RMM:  12    -0.413164189179E+03   -0.10350E-05   -0.45783E-07  2064   0.103E-03    0.426E-04
RMM:  13    -0.413164190351E+03   -0.11721E-05   -0.37159E-07  1819   0.891E-04    0.234E-04
RMM:  14    -0.413164190915E+03   -0.56385E-06   -0.20899E-07  1352   0.727E-04
    4 T=    61. E= -.41286616E+03 F= -.41316419E+03 E0= -.41314170E+03  EK= 0.29803E+00 SP= 0.00E+00 SK= 0.00E+00
       N       E                     dE             d eps       ncg     rms          rms(c)
RMM:   1    -0.413154640874E+03    0.95495E-02   -0.11192E+01  4236   0.711E-01    0.884E-01
RMM:   2    -0.413165719645E+03   -0.11079E-01   -0.13858E-01  3944   0.960E-02    0.639E-01
RMM:   3    -0.413164646733E+03    0.10729E-02   -0.62846E-03  4942   0.371E-02    0.168E-01
RMM:   4    -0.413197149613E+03   -0.32503E-01   -0.33223E-02  5166   0.152E-01    0.751E-01
RMM:   5    -0.413164060853E+03    0.33089E-01   -0.15926E-02  4810   0.126E-01    0.370E-02
RMM:   6    -0.413164261853E+03   -0.20100E-03   -0.25710E-03  5773   0.493E-02    0.161E-02
RMM:   7    -0.413164282257E+03   -0.20404E-04   -0.30204E-04  5895   0.142E-02    0.130E-02
RMM:   8    -0.413164286897E+03   -0.46399E-05   -0.37134E-05  4334   0.519E-03    0.850E-03
RMM:   9    -0.413164290721E+03   -0.38242E-05   -0.53058E-06  2879   0.265E-03    0.588E-03
RMM:  10    -0.413164297722E+03   -0.70011E-05   -0.23854E-06  2582   0.226E-03    0.273E-03
RMM:  11    -0.413164303240E+03   -0.55179E-05   -0.14616E-06  2541   0.180E-03    0.140E-03
RMM:  12    -0.413164306502E+03   -0.32615E-05   -0.73161E-07  2433   0.134E-03    0.486E-04
RMM:  13    -0.413164308091E+03   -0.15899E-05   -0.33964E-07  2013   0.940E-04    0.305E-04
RMM:  14    -0.413164309898E+03   -0.18062E-05   -0.24573E-07  1595   0.798E-04    0.198E-04
RMM:  15    -0.413164311472E+03   -0.15746E-05   -0.19630E-07  1422   0.730E-04    0.126E-04
RMM:  16    -0.413164311844E+03   -0.37207E-06   -0.96423E-08  1098   0.634E-04
    5 T=    61. E= -.41286613E+03 F= -.41316431E+03 E0= -.41314183E+03  EK= 0.29818E+00 SP= 0.00E+00 SK= 0.00E+00
       N       E                     dE             d eps       ncg     rms          rms(c)
RMM:   1    -0.413155647254E+03    0.86642E-02   -0.11247E+01  4248   0.717E-01    0.907E-01
RMM:   2    -0.413166071421E+03   -0.10424E-01   -0.13549E-01  3969   0.965E-02    0.635E-01
RMM:   3    -0.413165142039E+03    0.92938E-03   -0.64826E-03  4843   0.367E-02    0.169E-01
RMM:   4    -0.413192957410E+03   -0.27815E-01   -0.28053E-02  5157   0.140E-01    0.695E-01
RMM:   5    -0.413164735530E+03    0.28222E-01   -0.13715E-02  4817   0.116E-01    0.350E-02
RMM:   6    -0.413164909908E+03   -0.17438E-03   -0.21913E-03  5785   0.453E-02    0.174E-02
RMM:   7    -0.413164922172E+03   -0.12264E-04   -0.25678E-04  5849   0.132E-02    0.131E-02
RMM:   8    -0.413164923292E+03   -0.11203E-05   -0.32079E-05  4226   0.497E-03    0.848E-03
RMM:   9    -0.413164922956E+03    0.33633E-06   -0.49340E-06  2846   0.260E-03
    6 T=    61. E= -.41286642E+03 F= -.41316492E+03 E0= -.41314246E+03  EK= 0.29851E+00 SP= 0.00E+00 SK= 0.00E+00
       N       E                     dE             d eps       ncg     rms          rms(c)
RMM:   1    -0.413155314025E+03    0.96093E-02   -0.11188E+01  4264   0.723E-01    0.902E-01
RMM:   2    -0.413165305948E+03   -0.99919E-02   -0.13504E-01  4217   0.994E-02    0.627E-01
RMM:   3    -0.413167239718E+03   -0.19338E-02   -0.86479E-03  5145   0.607E-02    0.274E-01
RMM:   4    -0.413197515866E+03   -0.30276E-01   -0.42273E-02  5131   0.173E-01    0.756E-01
RMM:   5    -0.413164329411E+03    0.33186E-01   -0.14357E-02  4765   0.126E-01    0.530E-02
RMM:   6    -0.413164413137E+03   -0.83726E-04   -0.23708E-03  5628   0.486E-02    0.155E-02
RMM:   7    -0.413164437853E+03   -0.24716E-04   -0.32274E-04  6041   0.152E-02    0.119E-02
RMM:   8    -0.413164440175E+03   -0.23221E-05   -0.38979E-05  4543   0.543E-03    0.765E-03
RMM:   9    -0.413164439289E+03    0.88620E-06   -0.60969E-06  2913   0.343E-03
    7 T=    61. E= -.41286592E+03 F= -.41316444E+03 E0= -.41314199E+03  EK= 0.29852E+00 SP= 0.00E+00 SK= 0.00E+00
       N       E                     dE             d eps       ncg     rms          rms(c)
RMM:   1    -0.413155390629E+03    0.90495E-02   -0.11185E+01  4287   0.725E-01    0.883E-01
RMM:   2    -0.413166528468E+03   -0.11138E-01   -0.13783E-01  4121   0.963E-02    0.636E-01
RMM:   3    -0.413165265544E+03    0.12629E-02   -0.60376E-03  3863   0.309E-02    0.152E-01
RMM:   4    -0.413166120591E+03   -0.85505E-03   -0.15177E-03  5146   0.306E-02    0.126E-01
RMM:   5    -0.413165252315E+03    0.86828E-03   -0.42657E-04  4799   0.207E-02    0.135E-02
RMM:   6    -0.413165266981E+03   -0.14666E-04   -0.80713E-05  5399   0.966E-03    0.844E-03
RMM:   7    -0.413165274271E+03   -0.72904E-05   -0.12106E-05  3768   0.409E-03    0.386E-03
RMM:   8    -0.413165278428E+03   -0.41571E-05   -0.16967E-06  2534   0.206E-03    0.210E-03
RMM:   9    -0.413165282155E+03   -0.37268E-05   -0.84606E-07  2460   0.149E-03    0.140E-03
RMM:  10    -0.413165285539E+03   -0.33841E-05   -0.60142E-07  2300   0.119E-03    0.658E-04
RMM:  11    -0.413165288558E+03   -0.30189E-05   -0.52411E-07  2112   0.980E-04    0.322E-04
RMM:  12    -0.413165290678E+03   -0.21200E-05   -0.38212E-07  1718   0.838E-04    0.202E-04
RMM:  13    -0.413165291302E+03   -0.62375E-06   -0.15599E-07  1160   0.653E-04
    8 T=    61. E= -.41286641E+03 F= -.41316529E+03 E0= -.41314286E+03  EK= 0.29888E+00 SP= 0.00E+00 SK= 0.00E+00
       N       E                     dE             d eps       ncg     rms          rms(c)
RMM:   1    -0.413155924714E+03    0.93660E-02   -0.11255E+01  4283   0.730E-01    0.901E-01
RMM:   2    -0.413166474193E+03   -0.10549E-01   -0.13702E-01  4149   0.102E-01    0.638E-01
RMM:   3    -0.413165598392E+03    0.87580E-03   -0.64762E-03  4831   0.394E-02    0.170E-01
RMM:   4    -0.413196534956E+03   -0.30937E-01   -0.31452E-02  5161   0.148E-01    0.733E-01
RMM:   5    -0.413165040196E+03    0.31495E-01   -0.15354E-02  4812   0.122E-01    0.362E-02
RMM:   6    -0.413165235571E+03   -0.19537E-03   -0.24590E-03  5791   0.479E-02    0.172E-02
RMM:   7    -0.413165249271E+03   -0.13700E-04   -0.28845E-04  5868   0.139E-02    0.133E-02
RMM:   8    -0.413165250384E+03   -0.11128E-05   -0.34891E-05  4298   0.512E-03    0.871E-03
RMM:   9    -0.413165250005E+03    0.37923E-06   -0.53722E-06  2877   0.265E-03
    9 T=    61. E= -.41286611E+03 F= -.41316525E+03 E0= -.41314284E+03  EK= 0.29914E+00 SP= 0.00E+00 SK= 0.00E+00
       N       E                     dE             d eps       ncg     rms          rms(c)
RMM:   1    -0.413156448034E+03    0.88024E-02   -0.11243E+01  4292   0.735E-01    0.910E-01
RMM:   2    -0.413166161702E+03   -0.97137E-02   -0.13504E-01  4262   0.984E-02    0.629E-01
RMM:   3    -0.413168765669E+03   -0.26040E-02   -0.92880E-03  5143   0.655E-02    0.294E-01
RMM:   4    -0.413194821255E+03   -0.26056E-01   -0.39764E-02  5111   0.168E-01    0.715E-01
RMM:   5    -0.413165377296E+03    0.29444E-01   -0.12444E-02  4741   0.119E-01    0.524E-02
RMM:   6    -0.413165435006E+03   -0.57710E-04   -0.20750E-03  5601   0.454E-02    0.164E-02
RMM:   7    -0.413165454240E+03   -0.19234E-04   -0.28750E-04  6032   0.147E-02    0.119E-02
RMM:   8    -0.413165454658E+03   -0.41791E-06   -0.35583E-05  4522   0.530E-03    0.757E-03
RMM:   9    -0.413165451199E+03    0.34590E-05   -0.66088E-06  3037   0.363E-03    0.358E-03
RMM:  10    -0.413165449849E+03    0.13502E-05   -0.20476E-06  2558   0.223E-03    0.213E-03
RMM:  11    -0.413165448397E+03    0.14519E-05   -0.96949E-07  2526   0.155E-03    0.933E-04
RMM:  12    -0.413165447488E+03    0.90947E-06   -0.45413E-07  2079   0.103E-03
   10 T=    61. E= -.41286600E+03 F= -.41316545E+03 E0= -.41314306E+03  EK= 0.29945E+00 SP= 0.00E+00 SK= 0.00E+00
       N       E                     dE             d eps       ncg     rms          rms(c)
RMM:   1    -0.413156477863E+03    0.89705E-02   -0.11195E+01  4293   0.737E-01    0.885E-01
RMM:   2    -0.413167604176E+03   -0.11126E-01   -0.13690E-01  4188   0.969E-02    0.634E-01
RMM:   3    -0.413166459620E+03    0.11446E-02   -0.61187E-03  4832   0.389E-02    0.167E-01
RMM:   4    -0.413194212415E+03   -0.27753E-01   -0.28063E-02  5153   0.140E-01    0.696E-01
RMM:   5    -0.413165951006E+03    0.28261E-01   -0.13902E-02  4818   0.116E-01    0.330E-02
RMM:   6    -0.413166121169E+03   -0.17016E-03   -0.21164E-03  5787   0.449E-02    0.165E-02
RMM:   7    -0.413166135008E+03   -0.13839E-04   -0.24774E-04  5832   0.131E-02    0.126E-02
RMM:   8    -0.413166137545E+03   -0.25375E-05   -0.32040E-05  4276   0.499E-03    0.845E-03
RMM:   9    -0.413166138394E+03   -0.84846E-06   -0.49518E-06  2852   0.267E-03
   11 T=    61. E= -.41286622E+03 F= -.41316614E+03 E0= -.41314378E+03  EK= 0.29992E+00 SP= 0.00E+00 SK= 0.00E+00
       N       E                     dE             d eps       ncg     rms          rms(c)
RMM:   1    -0.413156505072E+03    0.96325E-02   -0.11276E+01  4292   0.746E-01    0.896E-01
RMM:   2    -0.413167210359E+03   -0.10705E-01   -0.13877E-01  4265   0.100E-01    0.641E-01
RMM:   3    -0.413169080486E+03   -0.18701E-02   -0.86961E-03  5142   0.637E-02    0.284E-01
RMM:   4    -0.413201451539E+03   -0.32371E-01   -0.45913E-02  5118   0.180E-01    0.781E-01
RMM:   5    -0.413165837079E+03    0.35614E-01   -0.15376E-02  4749   0.130E-01    0.529E-02
RMM:   6    -0.413165932100E+03   -0.95022E-04   -0.25123E-03  5639   0.498E-02    0.141E-02
RMM:   7    -0.413165960638E+03   -0.28537E-04   -0.33663E-04  6027   0.154E-02    0.116E-02
RMM:   8    -0.413165963965E+03   -0.33272E-05   -0.41204E-05  4605   0.547E-03    0.748E-03
RMM:   9    -0.413165966104E+03   -0.21395E-05   -0.62891E-06  2927   0.339E-03    0.367E-03
RMM:  10    -0.413165968130E+03   -0.20255E-05   -0.23741E-06  2567   0.228E-03    0.212E-03
RMM:  11    -0.413165969684E+03   -0.15544E-05   -0.11693E-06  2546   0.158E-03    0.899E-04
RMM:  12    -0.413165970442E+03   -0.75776E-06   -0.52342E-07  2071   0.105E-03
   12 T=    61. E= -.41286576E+03 F= -.41316597E+03 E0= -.41314364E+03  EK= 0.30021E+00 SP= 0.00E+00 SK= 0.00E+00
       N       E                     dE             d eps       ncg     rms          rms(c)
RMM:   1    -0.413157561547E+03    0.84081E-02   -0.11304E+01  4298   0.748E-01    0.915E-01
RMM:   2    -0.413167568361E+03   -0.10007E-01   -0.13544E-01  4208   0.943E-02    0.631E-01
RMM:   3    -0.413166923691E+03    0.64467E-03   -0.66521E-03  4839   0.364E-02    0.171E-01
RMM:   4    -0.413192338429E+03   -0.25415E-01   -0.25554E-02  5146   0.133E-01    0.665E-01
RMM:   5    -0.413166579754E+03    0.25759E-01   -0.12715E-02  4810   0.110E-01    0.335E-02
RMM:   6    -0.413166733333E+03   -0.15358E-03   -0.19691E-03  5807   0.428E-02    0.178E-02
RMM:   7    -0.413166740648E+03   -0.73150E-05   -0.22429E-04  5795   0.126E-02    0.128E-02
RMM:   8    -0.413166738920E+03    0.17289E-05   -0.29863E-05  4249   0.486E-03    0.863E-03
RMM:   9    -0.413166734721E+03    0.41982E-05   -0.47853E-06  2839   0.261E-03    0.590E-03
RMM:  10    -0.413166730487E+03    0.42347E-05   -0.19867E-06  2556   0.210E-03    0.282E-03
RMM:  11    -0.413166727326E+03    0.31604E-05   -0.14879E-06  2541   0.180E-03    0.142E-03
RMM:  12    -0.413166724863E+03    0.24636E-05   -0.69203E-07  2409   0.133E-03    0.494E-04
RMM:  13    -0.413166723921E+03    0.94149E-06   -0.30009E-07  1957   0.907E-04
   13 T=    61. E= -.41286593E+03 F= -.41316672E+03 E0= -.41314442E+03  EK= 0.30079E+00 SP= 0.00E+00 SK= 0.00E+00
       N       E                     dE             d eps       ncg     rms          rms(c)
RMM:   1    -0.413157742639E+03    0.89822E-02   -0.11221E+01  4294   0.755E-01    0.889E-01
RMM:   2    -0.413168345982E+03   -0.10603E-01   -0.13742E-01  4216   0.957E-02    0.632E-01
RMM:   3    -0.413167475760E+03    0.87022E-03   -0.62201E-03  4839   0.367E-02    0.168E-01
RMM:   4    -0.413194321746E+03   -0.26846E-01   -0.27269E-02  5145   0.138E-01    0.684E-01
RMM:   5    -0.413167004954E+03    0.27317E-01   -0.13445E-02  4810   0.114E-01    0.330E-02
RMM:   6    -0.413167167969E+03   -0.16301E-03   -0.20795E-03  5799   0.440E-02    0.165E-02
RMM:   7    -0.413167178321E+03   -0.10352E-04   -0.24161E-04  5815   0.129E-02    0.125E-02
RMM:   8    -0.413167178583E+03   -0.26238E-06   -0.30827E-05  4202   0.488E-03    0.834E-03
RMM:   9    -0.413167177096E+03    0.14876E-05   -0.47181E-06  2827   0.258E-03    0.578E-03
RMM:  10    -0.413167176331E+03    0.76499E-06   -0.21408E-06  2563   0.218E-03
   14 T=    61. E= -.41286592E+03 F= -.41316718E+03 E0= -.41314491E+03  EK= 0.30126E+00 SP= 0.00E+00 SK= 0.00E+00
       N       E                     dE             d eps       ncg     rms          rms(c)
RMM:   1    -0.413157618286E+03    0.95588E-02   -0.11310E+01  4303   0.760E-01    0.892E-01
RMM:   2    -0.413169086923E+03   -0.11469E-01   -0.13986E-01  4279   0.100E-01    0.643E-01
RMM:   3    -0.413170816516E+03   -0.17296E-02   -0.88238E-03  5122   0.652E-02    0.291E-01
RMM:   4    -0.413202874103E+03   -0.32058E-01   -0.46444E-02  5107   0.181E-01    0.779E-01
RMM:   5    -0.413167336232E+03    0.35538E-01   -0.15240E-02  4738   0.129E-01    0.508E-02
RMM:   6    -0.413167437318E+03   -0.10109E-03   -0.24834E-03  5643   0.493E-02    0.136E-02
RMM:   7    -0.413167463327E+03   -0.26009E-04   -0.32051E-04  6017   0.150E-02    0.112E-02
RMM:   8    -0.413167466613E+03   -0.32860E-05   -0.38709E-05  4498   0.534E-03    0.703E-03
RMM:   9    -0.413167468427E+03   -0.18142E-05   -0.56229E-06  2851   0.317E-03    0.348E-03
RMM:  10    -0.413167470283E+03   -0.18556E-05   -0.24180E-06  2572   0.222E-03    0.203E-03
RMM:  11    -0.413167471399E+03   -0.11159E-05   -0.10795E-06  2537   0.151E-03    0.808E-04
RMM:  12    -0.413167472019E+03   -0.62051E-06   -0.49326E-07  1953   0.103E-03
   15 T=    61. E= -.41286583E+03 F= -.41316747E+03 E0= -.41314524E+03  EK= 0.30164E+00 SP= 0.00E+00 SK= 0.00E+00
       N       E                     dE             d eps       ncg     rms          rms(c)
RMM:   1    -0.413160378023E+03    0.70934E-02   -0.11368E+01  4304   0.784E-01    0.917E-01
RMM:   2    -0.413169301417E+03   -0.89234E-02   -0.13702E-01  4236   0.101E-01    0.635E-01
RMM:   3    -0.413168639757E+03    0.66166E-03   -0.67083E-03  4900   0.387E-02    0.176E-01
RMM:   4    -0.413200344622E+03   -0.31705E-01   -0.32288E-02  5146   0.149E-01    0.741E-01
RMM:   5    -0.413168122397E+03    0.32222E-01   -0.15760E-02  4806   0.124E-01    0.372E-02
RMM:   6    -0.413168309688E+03   -0.18729E-03   -0.25285E-03  5787   0.482E-02    0.185E-02
RMM:   7    -0.413168318508E+03   -0.88199E-05   -0.28886E-04  5865   0.141E-02    0.138E-02
RMM:   8    -0.413168315727E+03    0.27813E-05   -0.36716E-05  4416   0.528E-03    0.936E-03
RMM:   9    -0.413168310432E+03    0.52943E-05   -0.56406E-06  2904   0.271E-03    0.653E-03
RMM:  10    -0.413168304731E+03    0.57016E-05   -0.22183E-06  2559   0.225E-03    0.312E-03
RMM:  11    -0.413168300637E+03    0.40941E-05   -0.16367E-06  2535   0.192E-03    0.155E-03
RMM:  12    -0.413168297656E+03    0.29805E-05   -0.76767E-07  2440   0.141E-03    0.516E-04
RMM:  13    -0.413168296492E+03    0.11642E-05   -0.33715E-07  2079   0.961E-04    0.317E-04
RMM:  14    -0.413168294745E+03    0.17467E-05   -0.21809E-07  1646   0.794E-04    0.191E-04
RMM:  15    -0.413168292416E+03    0.23294E-05   -0.18663E-07  1505   0.737E-04    0.137E-04
RMM:  16    -0.413168291756E+03    0.65970E-06   -0.79013E-08  1054   0.614E-04
   16 T=    62. E= -.41286601E+03 F= -.41316829E+03 E0= -.41314609E+03  EK= 0.30228E+00 SP= 0.00E+00 SK= 0.00E+00
       N       E                     dE             d eps       ncg     rms          rms(c)
RMM:   1    -0.413159145680E+03    0.91467E-02   -0.11270E+01  4294   0.763E-01    0.896E-01
RMM:   2    -0.413169922406E+03   -0.10777E-01   -0.13777E-01  4239   0.993E-02    0.631E-01
RMM:   3    -0.413169049238E+03    0.87317E-03   -0.63654E-03  4888   0.410E-02    0.177E-01
RMM:   4    -0.413203372382E+03   -0.34323E-01   -0.35115E-02  5144   0.155E-01    0.770E-01
RMM:   5    -0.413168536747E+03    0.34836E-01   -0.17041E-02  4798   0.129E-01    0.381E-02
RMM:   6    -0.413168740572E+03   -0.20382E-03   -0.27503E-03  5772   0.503E-02    0.181E-02
RMM:   7    -0.413168753357E+03   -0.12785E-04   -0.31425E-04  5880   0.146E-02    0.138E-02
RMM:   8    -0.413168751945E+03    0.14121E-05   -0.38749E-05  4413   0.534E-03    0.931E-03
RMM:   9    -0.413168748082E+03    0.38626E-05   -0.59062E-06  2920   0.270E-03    0.655E-03
RMM:  10    -0.413168744143E+03    0.39391E-05   -0.23060E-06  2563   0.228E-03    0.308E-03
RMM:  11    -0.413168741738E+03    0.24057E-05   -0.15980E-06  2531   0.190E-03    0.157E-03
RMM:  12    -0.413168739868E+03    0.18693E-05   -0.76835E-07  2445   0.142E-03    0.523E-04
RMM:  13    -0.413168739153E+03    0.71515E-06   -0.33993E-07  2101   0.969E-04
   17 T=    62. E= -.41286590E+03 F= -.41316874E+03 E0= -.41314658E+03  EK= 0.30284E+00 SP= 0.00E+00 SK= 0.00E+00
       N       E                     dE             d eps       ncg     rms          rms(c)
RMM:   1    -0.413159412380E+03    0.93275E-02   -0.11353E+01  4298   0.770E-01    0.891E-01
RMM:   2    -0.413171038064E+03   -0.11626E-01   -0.14037E-01  4246   0.101E-01    0.644E-01
RMM:   3    -0.413169623635E+03    0.14144E-02   -0.61605E-03  4848   0.382E-02    0.169E-01
RMM:   4    -0.413198779392E+03   -0.29156E-01   -0.29774E-02  5144   0.144E-01    0.712E-01
RMM:   5    -0.413169094801E+03    0.29685E-01   -0.14532E-02  4804   0.119E-01    0.341E-02
RMM:   6    -0.413169271200E+03   -0.17640E-03   -0.23113E-03  5788   0.463E-02    0.164E-02
RMM:   7    -0.413169283742E+03   -0.12542E-04   -0.25938E-04  5829   0.134E-02    0.127E-02
RMM:   8    -0.413169284659E+03   -0.91729E-06   -0.33345E-05  4317   0.505E-03    0.854E-03
RMM:   9    -0.413169283751E+03    0.90864E-06   -0.51726E-06  2864   0.267E-03
   18 T=    62. E= -.41286578E+03 F= -.41316928E+03 E0= -.41314716E+03  EK= 0.30350E+00 SP= 0.00E+00 SK= 0.00E+00
       N       E                     dE             d eps       ncg     rms          rms(c)
RMM:   1    -0.413161058153E+03    0.82265E-02   -0.11413E+01  4296   0.775E-01    0.915E-01
RMM:   2    -0.413171420820E+03   -0.10363E-01   -0.13892E-01  4304   0.100E-01    0.639E-01
RMM:   3    -0.413173891515E+03   -0.24707E-02   -0.92606E-03  5132   0.659E-02    0.299E-01
RMM:   4    -0.413201533112E+03   -0.27642E-01   -0.42542E-02  5103   0.173E-01    0.734E-01
RMM:   5    -0.413170257843E+03    0.31275E-01   -0.13268E-02  4722   0.122E-01    0.519E-02
RMM:   6    -0.413170327707E+03   -0.69864E-04   -0.22288E-03  5587   0.467E-02    0.156E-02
RMM:   7    -0.413170346341E+03   -0.18634E-04   -0.30378E-04  6022   0.148E-02    0.118E-02
RMM:   8    -0.413170345375E+03    0.96593E-06   -0.36756E-05  4537   0.532E-03    0.756E-03
RMM:   9    -0.413170338324E+03    0.70513E-05   -0.63074E-06  2940   0.356E-03    0.367E-03
RMM:  10    -0.413170334455E+03    0.38694E-05   -0.21501E-06  2548   0.226E-03    0.209E-03
RMM:  11    -0.413170330355E+03    0.40991E-05   -0.98597E-07  2522   0.156E-03    0.909E-04
RMM:  12    -0.413170328201E+03    0.21548E-05   -0.44613E-07  2079   0.103E-03    0.426E-04
RMM:  13    -0.413170325467E+03    0.27342E-05   -0.35006E-07  1868   0.899E-04    0.248E-04
RMM:  14    -0.413170323780E+03    0.16865E-05   -0.19599E-07  1408   0.727E-04    0.139E-04
RMM:  15    -0.413170320850E+03    0.29302E-05   -0.22324E-07  1529   0.750E-04    0.992E-05
RMM:  16    -0.413170319488E+03    0.13622E-05   -0.11140E-07  1219   0.636E-04    0.825E-05
RMM:  17    -0.413170316837E+03    0.26505E-05   -0.12248E-07  1334   0.654E-04    0.374E-05
RMM:  18    -0.413170315574E+03    0.12630E-05   -0.63370E-08   992   0.560E-04    0.219E-05
RMM:  19    -0.413170314944E+03    0.62967E-06   -0.33932E-08   824   0.523E-04
   19 T=    62. E= -.41286590E+03 F= -.41317031E+03 E0= -.41314824E+03  EK= 0.30441E+00 SP= 0.00E+00 SK= 0.00E+00
       N       E                     dE             d eps       ncg     rms          rms(c)
RMM:   1    -0.413161454358E+03    0.88612E-02   -0.11367E+01  4295   0.783E-01    0.906E-01
RMM:   2    -0.413172014087E+03   -0.10560E-01   -0.13780E-01  4242   0.998E-02    0.632E-01
RMM:   3    -0.413171433757E+03    0.58033E-03   -0.65408E-03  4949   0.410E-02    0.187E-01
RMM:   4    -0.413210758334E+03   -0.39325E-01   -0.41115E-02  5142   0.168E-01    0.823E-01
RMM:   5    -0.413170702402E+03    0.40056E-01   -0.19543E-02  4791   0.138E-01    0.419E-02
RMM:   6    -0.413170922909E+03   -0.22051E-03   -0.31522E-03  5757   0.541E-02    0.188E-02
RMM:   7    -0.413170936936E+03   -0.14027E-04   -0.36709E-04  5868   0.155E-02    0.146E-02
RMM:   8    -0.413170934567E+03    0.23690E-05   -0.44847E-05  4527   0.566E-03    0.981E-03
RMM:   9    -0.413170929254E+03    0.53132E-05   -0.66178E-06  2969   0.277E-03    0.687E-03
RMM:  10    -0.413170922924E+03    0.63294E-05   -0.25375E-06  2576   0.237E-03    0.317E-03
RMM:  11    -0.413170918819E+03    0.41057E-05   -0.16254E-06  2528   0.194E-03    0.159E-03
RMM:  12    -0.413170915865E+03    0.29534E-05   -0.80043E-07  2453   0.146E-03    0.513E-04
RMM:  13    -0.413170914783E+03    0.10826E-05   -0.34591E-07  2142   0.995E-04    0.336E-04
RMM:  14    -0.413170913370E+03    0.14129E-05   -0.19912E-07  1669   0.787E-04    0.199E-04
RMM:  15    -0.413170911092E+03    0.22778E-05   -0.16426E-07  1493   0.731E-04    0.128E-04
RMM:  16    -0.413170910573E+03    0.51929E-06   -0.70834E-08  1051   0.613E-04
   20 T=    62. E= -.41286571E+03 F= -.41317091E+03 E0= -.41314888E+03  EK= 0.30520E+00 SP= 0.00E+00 SK= 0.00E+00
       N       E                     dE             d eps       ncg     rms          rms(c)
RMM:   1    -0.413162159608E+03    0.87515E-02   -0.11411E+01  4297   0.791E-01    0.891E-01
RMM:   2    -0.413173259839E+03   -0.11100E-01   -0.14221E-01  4251   0.103E-01    0.644E-01
RMM:   3    -0.413172169983E+03    0.10899E-02   -0.63018E-03  4928   0.400E-02    0.178E-01
RMM:   4    -0.413208960301E+03   -0.36790E-01   -0.38141E-02  5140   0.162E-01    0.797E-01
RMM:   5    -0.413171456562E+03    0.37504E-01   -0.18422E-02  4799   0.134E-01    0.387E-02
RMM:   6    -0.413171672979E+03   -0.21642E-03   -0.29728E-03  5789   0.524E-02    0.174E-02
RMM:   7    -0.413171690069E+03   -0.17091E-04   -0.34100E-04  5871   0.151E-02    0.138E-02
RMM:   8    -0.413171690285E+03   -0.21613E-06   -0.42679E-05  4508   0.554E-03    0.944E-03
RMM:   9    -0.413171688046E+03    0.22393E-05   -0.63765E-06  2956   0.278E-03    0.672E-03
RMM:  10    -0.413171686621E+03    0.14249E-05   -0.25277E-06  2586   0.239E-03    0.320E-03
RMM:  11    -0.413171685833E+03    0.78875E-06   -0.18009E-06  2552   0.199E-03
   21 T=    62. E= -.41286565E+03 F= -.41317169E+03 E0= -.41314970E+03  EK= 0.30604E+00 SP= 0.00E+00 SK= 0.00E+00
       N       E                     dE             d eps       ncg     rms          rms(c)
RMM:   1    -0.413163248048E+03    0.84386E-02   -0.11490E+01  4298   0.790E-01    0.913E-01
RMM:   2    -0.413174085854E+03   -0.10838E-01   -0.14097E-01  4274   0.100E-01    0.643E-01
RMM:   3    -0.413174068158E+03    0.17696E-04   -0.70601E-03  5032   0.481E-02    0.212E-01
RMM:   4    -0.413219836152E+03   -0.45768E-01   -0.50936E-02  5132   0.187E-01    0.890E-01
RMM:   5    -0.413172764228E+03    0.47072E-01   -0.22440E-02  4782   0.150E-01    0.468E-02
RMM:   6    -0.413172989969E+03   -0.22574E-03   -0.36026E-03  5754   0.582E-02    0.182E-02
RMM:   7    -0.413173012089E+03   -0.22120E-04   -0.42786E-04  5949   0.168E-02    0.149E-02
RMM:   8    -0.413173010530E+03    0.15584E-05   -0.51838E-05  4658   0.601E-03    0.993E-03
RMM:   9    -0.413173005111E+03    0.54192E-05   -0.72451E-06  3004   0.287E-03    0.659E-03
RMM:  10    -0.413172999057E+03    0.60545E-05   -0.28222E-06  2597   0.247E-03    0.294E-03
RMM:  11    -0.413172994941E+03    0.41156E-05   -0.15146E-06  2520   0.190E-03    0.141E-03
RMM:  12    -0.413172991706E+03    0.32353E-05   -0.82294E-07  2463   0.144E-03    0.458E-04
RMM:  13    -0.413172990114E+03    0.15918E-05   -0.35436E-07  2134   0.995E-04    0.322E-04
RMM:  14    -0.413172987924E+03    0.21896E-05   -0.22540E-07  1665   0.803E-04    0.222E-04
RMM:  15    -0.413172985650E+03    0.22749E-05   -0.15747E-07  1450   0.719E-04    0.108E-04
RMM:  16    -0.413172984855E+03    0.79445E-06   -0.79961E-08  1107   0.623E-04
   22 T=    62. E= -.41286602E+03 F= -.41317298E+03 E0= -.41315104E+03  EK= 0.30697E+00 SP= 0.00E+00 SK= 0.00E+00
       N       E                     dE             d eps       ncg     rms          rms(c)
RMM:   1    -0.413164235266E+03    0.87504E-02   -0.11485E+01  4298   0.792E-01    0.916E-01
RMM:   2    -0.413174688828E+03   -0.10454E-01   -0.13943E-01  4269   0.108E-01    0.635E-01
RMM:   3    -0.413174086858E+03    0.60197E-03   -0.67037E-03  4890   0.437E-02    0.186E-01
RMM:   4    -0.413211647549E+03   -0.37561E-01   -0.38797E-02  5146   0.164E-01    0.805E-01
RMM:   5    -0.413173408569E+03    0.38239E-01   -0.18762E-02  4799   0.135E-01    0.402E-02
RMM:   6    -0.413173609900E+03   -0.20133E-03   -0.30044E-03  5787   0.526E-02    0.195E-02
RMM:   7    -0.413173619971E+03   -0.10070E-04   -0.33396E-04  5888   0.153E-02    0.146E-02
RMM:   8    -0.413173616046E+03    0.39247E-05   -0.43038E-05  4564   0.567E-03    0.997E-03
RMM:   9    -0.413173608799E+03    0.72471E-05   -0.65210E-06  2969   0.283E-03    0.697E-03
RMM:  10    -0.413173600131E+03    0.86675E-05   -0.24414E-06  2577   0.238E-03    0.333E-03
RMM:  11    -0.413173593473E+03    0.66579E-05   -0.16340E-06  2519   0.199E-03    0.165E-03
RMM:  12    -0.413173588905E+03    0.45690E-05   -0.80249E-07  2454   0.148E-03    0.538E-04
RMM:  13    -0.413173587190E+03    0.17149E-05   -0.35745E-07  2154   0.101E-03    0.347E-04
RMM:  14    -0.413173585105E+03    0.20849E-05   -0.19932E-07  1667   0.789E-04    0.204E-04
RMM:  15    -0.413173581262E+03    0.38427E-05   -0.17504E-07  1582   0.755E-04    0.154E-04
RMM:  16    -0.413173580485E+03    0.77681E-06   -0.74342E-08  1073   0.614E-04
   23 T=    63. E= -.41286565E+03 F= -.41317358E+03 E0= -.41315169E+03  EK= 0.30793E+00 SP= 0.00E+00 SK= 0.00E+00
       N       E                     dE             d eps       ncg     rms          rms(c)
RMM:   1    -0.413164924539E+03    0.86567E-02   -0.11480E+01  4292   0.796E-01    0.894E-01
RMM:   2    -0.413176779240E+03   -0.11855E-01   -0.14310E-01  4268   0.105E-01    0.643E-01
RMM:   3    -0.413175460672E+03    0.13186E-02   -0.61325E-03  4818   0.399E-02    0.174E-01
RMM:   4    -0.413204050407E+03   -0.28590E-01   -0.29099E-02  5156   0.142E-01    0.704E-01
RMM:   5    -0.413175040446E+03    0.29010E-01   -0.14348E-02  4803   0.117E-01    0.333E-02
RMM:   6    -0.413175197932E+03   -0.15749E-03   -0.23015E-03  5799   0.455E-02    0.166E-02
RMM:   7    -0.413175208825E+03   -0.10892E-04   -0.23921E-04  5755   0.131E-02    0.121E-02
RMM:   8    -0.413175208030E+03    0.79510E-06   -0.33187E-05  4357   0.502E-03    0.889E-03
RMM:   9    -0.413175203729E+03    0.43009E-05   -0.53535E-06  2927   0.274E-03    0.619E-03
RMM:  10    -0.413175200337E+03    0.33921E-05   -0.20282E-06  2551   0.220E-03    0.305E-03
RMM:  11    -0.413175197964E+03    0.23728E-05   -0.15760E-06  2536   0.190E-03    0.157E-03
RMM:  12    -0.413175196147E+03    0.18170E-05   -0.70354E-07  2426   0.138E-03    0.570E-04
RMM:  13    -0.413175195479E+03    0.66828E-06   -0.30606E-07  2029   0.935E-04
   24 T=    63. E= -.41286596E+03 F= -.41317520E+03 E0= -.41315335E+03  EK= 0.30924E+00 SP= 0.00E+00 SK= 0.00E+00
       N       E                     dE             d eps       ncg     rms          rms(c)
RMM:   1    -0.413167956637E+03    0.72395E-02   -0.11614E+01  4296   0.818E-01    0.910E-01
RMM:   2    -0.413177777075E+03   -0.98204E-02   -0.14195E-01  4266   0.107E-01    0.648E-01
RMM:   3    -0.413176455685E+03    0.13214E-02   -0.63359E-03  4774   0.428E-02    0.174E-01
RMM:   4    -0.413205587902E+03   -0.29132E-01   -0.29439E-02  5150   0.144E-01    0.710E-01
RMM:   5    -0.413176053624E+03    0.29534E-01   -0.14660E-02  4805   0.119E-01    0.333E-02
RMM:   6    -0.413176202694E+03   -0.14907E-03   -0.22484E-03  5801   0.459E-02    0.170E-02
RMM:   7    -0.413176211258E+03   -0.85639E-05   -0.23860E-04  5777   0.132E-02    0.123E-02
RMM:   8    -0.413176209226E+03    0.20320E-05   -0.33215E-05  4349   0.504E-03    0.897E-03
RMM:   9    -0.413176203695E+03    0.55311E-05   -0.53404E-06  2915   0.275E-03    0.617E-03
RMM:  10    -0.413176198329E+03    0.53662E-05   -0.20809E-06  2554   0.225E-03    0.297E-03
RMM:  11    -0.413176194363E+03    0.39664E-05   -0.15694E-06  2534   0.190E-03    0.151E-03
RMM:  12    -0.413176191672E+03    0.26909E-05   -0.67960E-07  2424   0.136E-03    0.543E-04
RMM:  13    -0.413176190572E+03    0.10994E-05   -0.29896E-07  2005   0.923E-04    0.327E-04
RMM:  14    -0.413176189050E+03    0.15229E-05   -0.17485E-07  1550   0.759E-04    0.188E-04
RMM:  15    -0.413176186604E+03    0.24454E-05   -0.15457E-07  1548   0.730E-04    0.172E-04
RMM:  16    -0.413176185962E+03    0.64227E-06   -0.62428E-08   989   0.596E-04
   25 T=    63. E= -.41286587E+03 F= -.41317619E+03 E0= -.41315439E+03  EK= 0.31032E+00 SP= 0.00E+00 SK= 0.00E+00
       N       E                     dE             d eps       ncg     rms          rms(c)
RMM:   1    -0.413167615813E+03    0.85708E-02   -0.11628E+01  4294   0.814E-01    0.925E-01
RMM:   2    -0.413178126031E+03   -0.10510E-01   -0.14211E-01  4269   0.110E-01    0.640E-01
RMM:   3    -0.413177462723E+03    0.66331E-03   -0.65982E-03  4724   0.412E-02    0.177E-01
RMM:   4    -0.413202089951E+03   -0.24627E-01   -0.24845E-02  5153   0.132E-01    0.655E-01
RMM:   5    -0.413177119001E+03    0.24971E-01   -0.12432E-02  4807   0.109E-01    0.325E-02
RMM:   6    -0.413177245674E+03   -0.12667E-03   -0.19659E-03  5804   0.420E-02    0.171E-02
RMM:   7    -0.413177251177E+03   -0.55030E-05   -0.19456E-04  5606   0.119E-02    0.113E-02
RMM:   8    -0.413177246455E+03    0.47215E-05   -0.26291E-05  4066   0.454E-03    0.847E-03
RMM:   9    -0.413177239103E+03    0.73518E-05   -0.51638E-06  2938   0.273E-03    0.586E-03
RMM:  10    -0.413177230915E+03    0.81889E-05   -0.17844E-06  2531   0.218E-03    0.298E-03
RMM:  11    -0.413177223060E+03    0.78545E-05   -0.14472E-06  2513   0.188E-03    0.153E-03
RMM:  12    -0.413177218129E+03    0.49311E-05   -0.61910E-07  2406   0.134E-03    0.567E-04
RMM:  13    -0.413177216225E+03    0.19044E-05   -0.27108E-07  1987   0.905E-04    0.334E-04
RMM:  14    -0.413177213788E+03    0.24369E-05   -0.15036E-07  1513   0.737E-04    0.181E-04
RMM:  15    -0.413177209200E+03    0.45879E-05   -0.15178E-07  1655   0.742E-04    0.216E-04
RMM:  16    -0.413177208326E+03    0.87336E-06   -0.50808E-08   923   0.579E-04
   26 T=    63. E= -.41286555E+03 F= -.41317721E+03 E0= -.41315546E+03  EK= 0.31166E+00 SP= 0.00E+00 SK= 0.00E+00
       N       E                     dE             d eps       ncg     rms          rms(c)
RMM:   1    -0.413169033982E+03    0.81752E-02   -0.11604E+01  4292   0.819E-01    0.901E-01
RMM:   2    -0.413180363213E+03   -0.11329E-01   -0.14370E-01  4266   0.104E-01    0.643E-01
RMM:   3    -0.413179425166E+03    0.93805E-03   -0.61982E-03  4729   0.402E-02    0.175E-01
RMM:   4    -0.413203422848E+03   -0.23998E-01   -0.24197E-02  5156   0.130E-01    0.646E-01
RMM:   5    -0.413179125571E+03    0.24297E-01   -0.12181E-02  4809   0.107E-01    0.301E-02
RMM:   6    -0.413179244865E+03   -0.11929E-03   -0.18380E-03  5818   0.413E-02    0.157E-02
RMM:   7    -0.413179251491E+03   -0.66251E-05   -0.18790E-04  5627   0.117E-02    0.108E-02
RMM:   8    -0.413179249080E+03    0.24109E-05   -0.25382E-05  4087   0.449E-03    0.812E-03
RMM:   9    -0.413179243807E+03    0.52727E-05   -0.48423E-06  2897   0.268E-03    0.562E-03
RMM:  10    -0.413179238714E+03    0.50928E-05   -0.17686E-06  2533   0.216E-03    0.278E-03
RMM:  11    -0.413179234501E+03    0.42134E-05   -0.13802E-06  2511   0.182E-03    0.144E-03
RMM:  12    -0.413179231697E+03    0.28037E-05   -0.59342E-07  2389   0.130E-03    0.531E-04
RMM:  13    -0.413179230608E+03    0.10891E-05   -0.25663E-07  1924   0.879E-04    0.314E-04
RMM:  14    -0.413179229110E+03    0.14976E-05   -0.14640E-07  1458   0.728E-04    0.171E-04
RMM:  15    -0.413179226660E+03    0.24505E-05   -0.12983E-07  1490   0.709E-04    0.167E-04
RMM:  16    -0.413179225993E+03    0.66654E-06   -0.49952E-08   917   0.585E-04
   27 T=    64. E= -.41286581E+03 F= -.41317923E+03 E0= -.41315753E+03  EK= 0.31342E+00 SP= 0.00E+00 SK= 0.00E+00
       N       E                     dE             d eps       ncg     rms          rms(c)
RMM:   1    -0.413171060912E+03    0.81657E-02   -0.11751E+01  4293   0.838E-01    0.909E-01
RMM:   2    -0.413181474777E+03   -0.10414E-01   -0.14754E-01  4263   0.108E-01    0.655E-01
RMM:   3    -0.413180348801E+03    0.11260E-02   -0.63045E-03  4659   0.409E-02    0.173E-01
RMM:   4    -0.413199848071E+03   -0.19499E-01   -0.19855E-02  5159   0.118E-01    0.586E-01
RMM:   5    -0.413179967873E+03    0.19880E-01   -0.98751E-03  4805   0.969E-02    0.275E-02
RMM:   6    -0.413180067846E+03   -0.99974E-04   -0.15666E-03  5832   0.372E-02    0.145E-02
RMM:   7    -0.413180073824E+03   -0.59775E-05   -0.14805E-04  5409   0.104E-02    0.958E-03
RMM:   8    -0.413180070010E+03    0.38140E-05   -0.16911E-05  3535   0.372E-03    0.675E-03
RMM:   9    -0.413180064456E+03    0.55537E-05   -0.30537E-06  2608   0.240E-03    0.342E-03
RMM:  10    -0.413180062629E+03    0.18274E-05   -0.15118E-06  2519   0.182E-03    0.239E-03
RMM:  11    -0.413180058714E+03    0.39148E-05   -0.97216E-07  2487   0.164E-03    0.117E-03
RMM:  12    -0.413180056683E+03    0.20313E-05   -0.43225E-07  2249   0.112E-03    0.469E-04
RMM:  13    -0.413180055891E+03    0.79161E-06   -0.20185E-07  1592   0.792E-04
   28 T=    64. E= -.41286518E+03 F= -.41318006E+03 E0= -.41315841E+03  EK= 0.31488E+00 SP= 0.00E+00 SK= 0.00E+00
       N       E                     dE             d eps       ncg     rms          rms(c)
RMM:   1    -0.413172763044E+03    0.72936E-02   -0.11824E+01  4290   0.843E-01    0.934E-01
RMM:   2    -0.413183381304E+03   -0.10618E-01   -0.14508E-01  4267   0.111E-01    0.647E-01
RMM:   3    -0.413182485254E+03    0.89605E-03   -0.66875E-03  4308   0.404E-02    0.173E-01
RMM:   4    -0.413186182366E+03   -0.36971E-02   -0.42249E-03  5156   0.557E-02    0.255E-01
RMM:   5    -0.413182515498E+03    0.36669E-02   -0.17972E-03  4828   0.415E-02    0.195E-02
RMM:   6    -0.413182515031E+03    0.46692E-06   -0.29654E-04  5768   0.169E-02    0.137E-02
RMM:   7    -0.413182507129E+03    0.79025E-05   -0.44032E-05  4923   0.675E-03    0.700E-03
RMM:   8    -0.413182498078E+03    0.90506E-05   -0.50823E-06  2880   0.296E-03    0.328E-03
RMM:   9    -0.413182491660E+03    0.64178E-05   -0.11511E-06  2516   0.177E-03    0.192E-03
RMM:  10    -0.413182484122E+03    0.75384E-05   -0.68919E-07  2440   0.132E-03    0.102E-03
RMM:  11    -0.413182479268E+03    0.48542E-05   -0.37342E-07  2098   0.984E-04    0.424E-04
RMM:  12    -0.413182474556E+03    0.47117E-05   -0.21836E-07  1625   0.812E-04    0.173E-04
RMM:  13    -0.413182470927E+03    0.36291E-05   -0.13140E-07  1309   0.700E-04    0.106E-04
RMM:  14    -0.413182466045E+03    0.48822E-05   -0.11917E-07  1444   0.700E-04    0.845E-05
RMM:  15    -0.413182462408E+03    0.36369E-05   -0.88299E-08  1330   0.633E-04    0.858E-05
RMM:  16    -0.413182460532E+03    0.18757E-05   -0.53771E-08  1014   0.557E-04    0.450E-05
RMM:  17    -0.413182459335E+03    0.11971E-05   -0.36013E-08   890   0.530E-04    0.220E-05
RMM:  18    -0.413182458950E+03    0.38485E-06   -0.18736E-08   737   0.502E-04
   29 T=    64. E= -.41286572E+03 F= -.41318246E+03 E0= -.41316086E+03  EK= 0.31674E+00 SP= 0.00E+00 SK= 0.00E+00
       N       E                     dE             d eps       ncg     rms          rms(c)
RMM:   1    -0.413174570263E+03    0.78891E-02   -0.11788E+01  4289   0.861E-01    0.912E-01
RMM:   2    -0.413185352419E+03   -0.10782E-01   -0.14782E-01  4263   0.110E-01    0.646E-01
RMM:   3    -0.413184187831E+03    0.11646E-02   -0.63051E-03  4421   0.422E-02    0.174E-01
RMM:   4    -0.413191376555E+03   -0.71887E-02   -0.77310E-03  5139   0.769E-02    0.359E-01
RMM:   5    -0.413184027325E+03    0.73492E-02   -0.36107E-03  4821   0.587E-02    0.200E-02
RMM:   6    -0.413184045131E+03   -0.17807E-04   -0.57133E-04  5824   0.227E-02    0.131E-02
RMM:   7    -0.413184042788E+03    0.23433E-05   -0.67902E-05  5199   0.784E-03    0.861E-03
RMM:   8    -0.413184035902E+03    0.68861E-05   -0.76077E-06  3087   0.330E-03    0.466E-03
RMM:   9    -0.413184030219E+03    0.56832E-05   -0.17639E-06  2561   0.210E-03    0.270E-03
RMM:  10    -0.413184024250E+03    0.59688E-05   -0.92745E-07  2491   0.155E-03    0.136E-03
RMM:  11    -0.413184020293E+03    0.39564E-05   -0.49246E-07  2305   0.114E-03    0.590E-04
RMM:  12    -0.413184017205E+03    0.30883E-05   -0.26080E-07  1851   0.876E-04    0.223E-04
RMM:  13    -0.413184014823E+03    0.23826E-05   -0.14172E-07  1327   0.714E-04    0.132E-04
RMM:  14    -0.413184012259E+03    0.25639E-05   -0.10205E-07  1265   0.673E-04    0.896E-05
RMM:  15    -0.413184009342E+03    0.29165E-05   -0.87630E-08  1284   0.653E-04    0.609E-05
RMM:  16    -0.413184007932E+03    0.14104E-05   -0.48588E-08   986   0.583E-04    0.450E-05
RMM:  17    -0.413184005864E+03    0.20675E-05   -0.48402E-08  1026   0.581E-04    0.208E-05
RMM:  18    -0.413184005204E+03    0.66037E-06   -0.22934E-08   767   0.533E-04
   30 T=    65. E= -.41286560E+03 F= -.41318401E+03 E0= -.41316246E+03  EK= 0.31840E+00 SP= 0.00E+00 SK= 0.00E+00
       N       E                     dE             d eps       ncg     rms          rms(c)
RMM:   1    -0.413176878935E+03    0.71269E-02   -0.11926E+01  4291   0.877E-01    0.912E-01
RMM:   2    -0.413187923046E+03   -0.11044E-01   -0.15329E-01  4269   0.124E-01    0.660E-01
RMM:   3    -0.413185902702E+03    0.20203E-02   -0.61100E-03  4352   0.405E-02    0.172E-01
RMM:   4    -0.413189302457E+03   -0.33998E-02   -0.41462E-03  5142   0.553E-02    0.245E-01
RMM:   5    -0.413185899496E+03    0.34030E-02   -0.16642E-03  4820   0.401E-02    0.165E-02
RMM:   6    -0.413185900213E+03   -0.71775E-06   -0.27199E-04  5733   0.164E-02    0.115E-02
RMM:   7    -0.413185897774E+03    0.24391E-05   -0.37166E-05  4711   0.627E-03    0.631E-03
RMM:   8    -0.413185892469E+03    0.53052E-05   -0.52533E-06  2948   0.305E-03    0.300E-03
RMM:   9    -0.413185889585E+03    0.28841E-05   -0.11482E-06  2514   0.178E-03    0.153E-03
RMM:  10    -0.413185886492E+03    0.30927E-05   -0.62728E-07  2371   0.121E-03    0.859E-04
RMM:  11    -0.413185884284E+03    0.22080E-05   -0.34835E-07  1941   0.934E-04    0.389E-04
RMM:  12    -0.413185881903E+03    0.23816E-05   -0.23518E-07  1581   0.806E-04    0.139E-04
RMM:  13    -0.413185880285E+03    0.16172E-05   -0.13391E-07  1251   0.697E-04    0.902E-05
RMM:  14    -0.413185878552E+03    0.17333E-05   -0.10114E-07  1188   0.661E-04    0.493E-05
RMM:  15    -0.413185876542E+03    0.20104E-05   -0.86913E-08  1196   0.639E-04    0.377E-05
RMM:  16    -0.413185875736E+03    0.80564E-06   -0.42153E-08   851   0.567E-04
   31 T=    65. E= -.41286566E+03 F= -.41318588E+03 E0= -.41316438E+03  EK= 0.32022E+00 SP= 0.00E+00 SK= 0.00E+00
       N       E                     dE             d eps       ncg     rms          rms(c)
RMM:   1    -0.413188276289E+03   -0.23997E-02   -0.12126E+01  4292   0.929E-01    0.939E-01
RMM:   2    -0.413189618443E+03   -0.13422E-02   -0.15539E-01  4263   0.119E-01    0.655E-01
RMM:   3    -0.413188578429E+03    0.10400E-02   -0.66827E-03  4237   0.485E-02    0.181E-01
RMM:   4    -0.413189967755E+03   -0.13893E-02   -0.22176E-03  5070   0.429E-02    0.154E-01
RMM:   5    -0.413188626138E+03    0.13416E-02   -0.62756E-04  4765   0.256E-02    0.185E-02
RMM:   6    -0.413188618101E+03    0.80362E-05   -0.13494E-04  5553   0.122E-02    0.132E-02
RMM:   7    -0.413188606630E+03    0.11472E-04   -0.22934E-05  4230   0.569E-03    0.485E-03
RMM:   8    -0.413188597259E+03    0.93709E-05   -0.38167E-06  2771   0.295E-03    0.243E-03
RMM:   9    -0.413188591793E+03    0.54658E-05   -0.82564E-07  2472   0.166E-03    0.125E-03
RMM:  10    -0.413188585708E+03    0.60853E-05   -0.45976E-07  2241   0.111E-03    0.620E-04
RMM:  11    -0.413188581388E+03    0.43194E-05   -0.24249E-07  1692   0.825E-04    0.286E-04
RMM:  12    -0.413188576116E+03    0.52721E-05   -0.17594E-07  1488   0.748E-04    0.138E-04
RMM:  13    -0.413188572474E+03    0.36422E-05   -0.10447E-07  1224   0.660E-04    0.888E-05
RMM:  14    -0.413188567856E+03    0.46179E-05   -0.96249E-08  1307   0.657E-04    0.658E-05
RMM:  15    -0.413188564604E+03    0.32522E-05   -0.66938E-08  1120   0.599E-04    0.492E-05
RMM:  16    -0.413188562653E+03    0.19510E-05   -0.44027E-08   890   0.555E-04    0.251E-05
RMM:  17    -0.413188562102E+03    0.55142E-06   -0.25356E-08   725   0.523E-04
   32 T=    66. E= -.41286610E+03 F= -.41318856E+03 E0= -.41316711E+03  EK= 0.32247E+00 SP= 0.00E+00 SK= 0.00E+00
       N       E                     dE             d eps       ncg     rms          rms(c)
RMM:   1    -0.413182485592E+03    0.60771E-02   -0.12029E+01  4290   0.916E-01    0.926E-01
RMM:   2    -0.413191896623E+03   -0.94110E-02   -0.15436E-01  4272   0.131E-01    0.651E-01
RMM:   3    -0.413190522427E+03    0.13742E-02   -0.62386E-03  4151   0.398E-02    0.181E-01
RMM:   4    -0.413190564600E+03   -0.42173E-04   -0.10899E-03  4759   0.261E-02    0.361E-02
RMM:   5    -0.413190512829E+03    0.51771E-04   -0.60347E-05  4783   0.835E-03    0.218E-02
RMM:   6    -0.413190493614E+03    0.19216E-04   -0.49100E-05  5034   0.747E-03    0.120E-02
RMM:   7    -0.413190480846E+03    0.12768E-04   -0.10344E-05  3336   0.448E-03    0.394E-03
RMM:   8    -0.413190472542E+03    0.83040E-05   -0.18969E-06  2466   0.233E-03    0.186E-03
RMM:   9    -0.413190467026E+03    0.55157E-05   -0.57628E-07  2192   0.130E-03    0.875E-04
RMM:  10    -0.413190463158E+03    0.38673E-05   -0.21959E-07  1547   0.803E-04    0.460E-04
RMM:  11    -0.413190458427E+03    0.47311E-05   -0.11693E-07  1162   0.669E-04    0.185E-04
RMM:  12    -0.413190451577E+03    0.68507E-05   -0.11985E-07  1398   0.702E-04    0.175E-04
RMM:  13    -0.413190450603E+03    0.97350E-06   -0.26056E-08   696   0.487E-04
   33 T=    66. E= -.41286587E+03 F= -.41319045E+03 E0= -.41316905E+03  EK= 0.32458E+00 SP= 0.00E+00 SK= 0.00E+00
       N       E                     dE             d eps       ncg     rms          rms(c)
RMM:   1    -0.413183059209E+03    0.73924E-02   -0.12139E+01  4286   0.919E-01    0.917E-01
RMM:   2    -0.413194584898E+03   -0.11526E-01   -0.15783E-01  4258   0.128E-01    0.665E-01
RMM:   3    -0.413193062052E+03    0.15228E-02   -0.61541E-03  4433   0.448E-02    0.181E-01
RMM:   4    -0.413200903424E+03   -0.78414E-02   -0.83189E-03  5150   0.805E-02    0.373E-01
RMM:   5    -0.413193032392E+03    0.78710E-02   -0.38436E-03  4810   0.610E-02    0.208E-02
RMM:   6    -0.413193021051E+03    0.11341E-04   -0.59263E-04  5787   0.244E-02    0.125E-02
RMM:   7    -0.413193021087E+03   -0.35488E-07   -0.72543E-05  5193   0.827E-03    0.828E-03
RMM:   8    -0.413193015761E+03    0.53261E-05   -0.91696E-06  3261   0.350E-03    0.457E-03
RMM:   9    -0.413193011146E+03    0.46148E-05   -0.19598E-06  2569   0.226E-03    0.235E-03
RMM:  10    -0.413193006621E+03    0.45249E-05   -0.92806E-07  2493   0.153E-03    0.109E-03
RMM:  11    -0.413193003343E+03    0.32780E-05   -0.50933E-07  2302   0.113E-03    0.559E-04
RMM:  12    -0.413193000178E+03    0.31652E-05   -0.30732E-07  1897   0.907E-04    0.195E-04
RMM:  13    -0.413192998316E+03    0.18622E-05   -0.15784E-07  1324   0.724E-04    0.125E-04
RMM:  14    -0.413192996354E+03    0.19618E-05   -0.10877E-07  1156   0.674E-04    0.811E-05
RMM:  15    -0.413192994103E+03    0.22509E-05   -0.87511E-08  1161   0.657E-04    0.425E-05
RMM:  16    -0.413192993147E+03    0.95609E-06   -0.52744E-08   978   0.606E-04
   34 T=    67. E= -.41286591E+03 F= -.41319299E+03 E0= -.41317164E+03  EK= 0.32708E+00 SP= 0.00E+00 SK= 0.00E+00
       N       E                     dE             d eps       ncg     rms          rms(c)
RMM:   1    -0.413186700637E+03    0.62935E-02   -0.12285E+01  4299   0.958E-01    0.943E-01
RMM:   2    -0.413196878946E+03   -0.10178E-01   -0.16077E-01  4254   0.136E-01    0.664E-01
RMM:   3    -0.413195767636E+03    0.11113E-02   -0.64372E-03  4528   0.438E-02    0.188E-01
RMM:   4    -0.413206178346E+03   -0.10411E-01   -0.10932E-02  5159   0.897E-02    0.434E-01
RMM:   5    -0.413195530376E+03    0.10648E-01   -0.54080E-03  4813   0.715E-02    0.241E-02
RMM:   6    -0.413195522806E+03    0.75701E-05   -0.84631E-04  5793   0.281E-02    0.140E-02
RMM:   7    -0.413195522926E+03   -0.12024E-06   -0.10439E-04  5361   0.914E-03    0.943E-03
RMM:   8    -0.413195515950E+03    0.69754E-05   -0.11980E-05  3438   0.363E-03    0.552E-03
RMM:   9    -0.413195508720E+03    0.72300E-05   -0.22436E-06  2585   0.228E-03    0.301E-03
RMM:  10    -0.413195500192E+03    0.85282E-05   -0.11005E-06  2499   0.169E-03    0.134E-03
RMM:  11    -0.413195494302E+03    0.58907E-05   -0.60068E-07  2392   0.124E-03    0.651E-04
RMM:  12    -0.413195489418E+03    0.48832E-05   -0.31173E-07  2071   0.950E-04    0.259E-04
RMM:  13    -0.413195486326E+03    0.30918E-05   -0.15525E-07  1389   0.735E-04    0.154E-04
RMM:  14    -0.413195482303E+03    0.40233E-05   -0.10665E-07  1249   0.683E-04    0.111E-04
RMM:  15    -0.413195478312E+03    0.39908E-05   -0.83100E-08  1238   0.656E-04    0.659E-05
RMM:  16    -0.413195475715E+03    0.25969E-05   -0.59925E-08  1166   0.615E-04    0.571E-05
RMM:  17    -0.413195473023E+03    0.26923E-05   -0.42888E-08  1024   0.583E-04    0.278E-05
RMM:  18    -0.413195471518E+03    0.15050E-05   -0.30276E-08   890   0.553E-04    0.185E-05
RMM:  19    -0.413195471402E+03    0.11671E-06   -0.13201E-08   659   0.517E-04
   35 T=    67. E= -.41286565E+03 F= -.41319547E+03 E0= -.41317417E+03  EK= 0.32982E+00 SP= 0.00E+00 SK= 0.00E+00
       N       E                     dE             d eps       ncg     rms          rms(c)
RMM:   1    -0.413189493065E+03    0.59785E-02   -0.12339E+01  4298   0.971E-01    0.944E-01
RMM:   2    -0.413198863926E+03   -0.93709E-02   -0.15905E-01  4250   0.120E-01    0.658E-01
RMM:   3    -0.413198060311E+03    0.80361E-03   -0.67046E-03  4819   0.438E-02    0.199E-01
RMM:   4    -0.413228857552E+03   -0.30797E-01   -0.31090E-02  5163   0.148E-01    0.731E-01
RMM:   5    -0.413197713586E+03    0.31144E-01   -0.15731E-02  4805   0.122E-01    0.363E-02
RMM:   6    -0.413197766512E+03   -0.52926E-04   -0.24553E-03  5866   0.463E-02    0.176E-02
RMM:   7    -0.413197778446E+03   -0.11934E-04   -0.25104E-04  5754   0.134E-02    0.127E-02
RMM:   8    -0.413197772311E+03    0.61352E-05   -0.31220E-05  4245   0.493E-03    0.901E-03
RMM:   9    -0.413197766321E+03    0.59902E-05   -0.64342E-06  3065   0.307E-03    0.610E-03
RMM:  10    -0.413197755223E+03    0.11098E-04   -0.23502E-06  2568   0.259E-03    0.256E-03
RMM:  11    -0.413197747523E+03    0.76997E-05   -0.13730E-06  2502   0.188E-03    0.140E-03
RMM:  12    -0.413197740762E+03    0.67608E-05   -0.64419E-07  2430   0.142E-03    0.528E-04
RMM:  13    -0.413197738140E+03    0.26228E-05   -0.28243E-07  2090   0.944E-04    0.347E-04
RMM:  14    -0.413197735163E+03    0.29766E-05   -0.13948E-07  1490   0.732E-04    0.203E-04
RMM:  15    -0.413197729580E+03    0.55829E-05   -0.10674E-07  1482   0.704E-04    0.153E-04
RMM:  16    -0.413197728209E+03    0.13714E-05   -0.45113E-08   938   0.591E-04    0.906E-05
RMM:  17    -0.413197724350E+03    0.38590E-05   -0.54257E-08  1182   0.620E-04    0.655E-05
RMM:  18    -0.413197721796E+03    0.25534E-05   -0.35326E-08  1019   0.575E-04    0.239E-05
RMM:  19    -0.413197721022E+03    0.77429E-06   -0.18229E-08   775   0.537E-04
   36 T=    68. E= -.41286553E+03 F= -.41319772E+03 E0= -.41317646E+03  EK= 0.33219E+00 SP= 0.00E+00 SK= 0.00E+00
       N       E                     dE             d eps       ncg     rms          rms(c)
RMM:   1    -0.413190152800E+03    0.75690E-02   -0.12383E+01  4300   0.991E-01    0.926E-01
RMM:   2    -0.413202305811E+03   -0.12153E-01   -0.16544E-01  4250   0.136E-01    0.670E-01
RMM:   3    -0.413201207310E+03    0.10985E-02   -0.65019E-03  4840   0.520E-02    0.210E-01
RMM:   4    -0.413245417058E+03   -0.44210E-01   -0.45339E-02  5155   0.178E-01    0.872E-01
RMM:   5    -0.413200462090E+03    0.44955E-01   -0.22753E-02  4797   0.146E-01    0.409E-02
RMM:   6    -0.413200571689E+03   -0.10960E-03   -0.34276E-03  5858   0.552E-02    0.189E-02
RMM:   7    -0.413200589382E+03   -0.17694E-04   -0.33791E-04  5734   0.155E-02    0.131E-02
RMM:   8    -0.413200587076E+03    0.23060E-05   -0.39685E-05  4058   0.505E-03    0.942E-03
RMM:   9    -0.413200580234E+03    0.68424E-05   -0.82865E-06  3243   0.329E-03    0.555E-03
RMM:  10    -0.413200575998E+03    0.42363E-05   -0.30486E-06  2637   0.257E-03    0.296E-03
RMM:  11    -0.413200570010E+03    0.59879E-05   -0.15711E-06  2500   0.206E-03    0.143E-03
RMM:  12    -0.413200565941E+03    0.40690E-05   -0.71527E-07  2439   0.144E-03    0.558E-04
RMM:  13    -0.413200564020E+03    0.19206E-05   -0.31971E-07  2163   0.985E-04    0.342E-04
RMM:  14    -0.413200561588E+03    0.24321E-05   -0.16302E-07  1567   0.757E-04    0.197E-04
RMM:  15    -0.413200558240E+03    0.33478E-05   -0.11407E-07  1383   0.693E-04    0.132E-04
RMM:  16    -0.413200557329E+03    0.91133E-06   -0.54135E-08   990   0.601E-04
   37 T=    68. E= -.41286575E+03 F= -.41320056E+03 E0= -.41317934E+03  EK= 0.33481E+00 SP= 0.00E+00 SK= 0.00E+00
       N       E                     dE             d eps       ncg     rms          rms(c)
RMM:   1    -0.413199523044E+03    0.10352E-02   -0.12618E+01  4309   0.107E+00    0.947E-01
RMM:   2    -0.413205301970E+03   -0.57789E-02   -0.16463E-01  4248   0.132E-01    0.673E-01
RMM:   3    -0.413203898751E+03    0.14032E-02   -0.66757E-03  4748   0.503E-02    0.203E-01
RMM:   4    -0.413237226468E+03   -0.33328E-01   -0.33582E-02  5152   0.153E-01    0.760E-01
RMM:   5    -0.413203437887E+03    0.33789E-01   -0.17208E-02  4808   0.127E-01    0.359E-02
RMM:   6    -0.413203499514E+03   -0.61627E-04   -0.25435E-03  5843   0.477E-02    0.173E-02
RMM:   7    -0.413203513791E+03   -0.14277E-04   -0.26603E-04  5785   0.138E-02    0.127E-02
RMM:   8    -0.413203508523E+03    0.52682E-05   -0.33098E-05  4286   0.499E-03    0.901E-03
RMM:   9    -0.413203503841E+03    0.46817E-05   -0.66147E-06  3078   0.298E-03    0.615E-03
RMM:  10    -0.413203494622E+03    0.92195E-05   -0.23241E-06  2555   0.248E-03    0.256E-03
RMM:  11    -0.413203488316E+03    0.63060E-05   -0.14088E-06  2498   0.188E-03    0.137E-03
RMM:  12    -0.413203483061E+03    0.52550E-05   -0.64783E-07  2427   0.140E-03    0.525E-04
RMM:  13    -0.413203480955E+03    0.21060E-05   -0.28689E-07  2087   0.946E-04    0.352E-04
RMM:  14    -0.413203478341E+03    0.26139E-05   -0.14650E-07  1534   0.740E-04    0.201E-04
RMM:  15    -0.413203473565E+03    0.47760E-05   -0.10971E-07  1444   0.701E-04    0.144E-04
RMM:  16    -0.413203472318E+03    0.12467E-05   -0.48164E-08   959   0.594E-04    0.833E-05
RMM:  17    -0.413203468911E+03    0.34075E-05   -0.51244E-08  1124   0.614E-04    0.578E-05
RMM:  18    -0.413203466392E+03    0.25191E-05   -0.38559E-08  1055   0.587E-04    0.250E-05
RMM:  19    -0.413203465564E+03    0.82758E-06   -0.19634E-08   810   0.542E-04
   38 T=    69. E= -.41286611E+03 F= -.41320347E+03 E0= -.41318229E+03  EK= 0.33735E+00 SP= 0.00E+00 SK= 0.00E+00
       N       E                     dE             d eps       ncg     rms          rms(c)
RMM:   1    -0.413202253270E+03    0.12131E-02   -0.12683E+01  4301   0.109E+00    0.960E-01
RMM:   2    -0.413206785906E+03   -0.45326E-02   -0.16954E-01  4254   0.127E-01    0.667E-01
RMM:   3    -0.413206260656E+03    0.52525E-03   -0.72685E-03  4966   0.552E-02    0.233E-01
RMM:   4    -0.413257582085E+03   -0.51321E-01   -0.54495E-02  5135   0.194E-01    0.940E-01
RMM:   5    -0.413205135092E+03    0.52447E-01   -0.26067E-02  4791   0.158E-01    0.471E-02
RMM:   6    -0.413205296214E+03   -0.16112E-03   -0.41267E-03  5847   0.597E-02    0.209E-02
RMM:   7    -0.413205317035E+03   -0.20821E-04   -0.41450E-04  5830   0.170E-02    0.147E-02
RMM:   8    -0.413205315330E+03    0.17050E-05   -0.55139E-05  4615   0.597E-03    0.114E-02
RMM:   9    -0.413205306505E+03    0.88254E-05   -0.95466E-06  3335   0.332E-03    0.761E-03
RMM:  10    -0.413205295000E+03    0.11505E-04   -0.34188E-06  2656   0.290E-03    0.330E-03
RMM:  11    -0.413205286371E+03    0.86292E-05   -0.17691E-06  2510   0.216E-03    0.179E-03
RMM:  12    -0.413205278151E+03    0.82196E-05   -0.94404E-07  2468   0.168E-03    0.597E-04
RMM:  13    -0.413205274714E+03    0.34375E-05   -0.38499E-07  2282   0.111E-03    0.451E-04
RMM:  14    -0.413205271873E+03    0.28411E-05   -0.18937E-07  1787   0.803E-04    0.352E-04
RMM:  15    -0.413205263294E+03    0.85784E-05   -0.17575E-07  1998   0.802E-04    0.347E-04
RMM:  16    -0.413205263052E+03    0.24207E-06   -0.54868E-08  1030   0.569E-04
   39 T=    69. E= -.41286561E+03 F= -.41320526E+03 E0= -.41318413E+03  EK= 0.33966E+00 SP= 0.00E+00 SK= 0.00E+00
       N       E                     dE             d eps       ncg     rms          rms(c)
RMM:   1    -0.413208604627E+03   -0.33413E-02   -0.12740E+01  4310   0.116E+00    0.937E-01
RMM:   2    -0.413210358415E+03   -0.17538E-02   -0.16935E-01  4252   0.136E-01    0.672E-01
RMM:   3    -0.413209664473E+03    0.69394E-03   -0.69549E-03  4990   0.539E-02    0.236E-01
RMM:   4    -0.413263847538E+03   -0.54183E-01   -0.58462E-02  5132   0.200E-01    0.965E-01
RMM:   5    -0.413208400382E+03    0.55447E-01   -0.27456E-02  4789   0.162E-01    0.481E-02
RMM:   6    -0.413208572945E+03   -0.17256E-03   -0.42839E-03  5829   0.611E-02    0.201E-02
RMM:   7    -0.413208597484E+03   -0.24539E-04   -0.43989E-04  5862   0.174E-02    0.146E-02
RMM:   8    -0.413208597450E+03    0.33586E-07   -0.59184E-05  4721   0.620E-03    0.113E-02
RMM:   9    -0.413208590031E+03    0.74188E-05   -0.95802E-06  3316   0.334E-03    0.736E-03
RMM:  10    -0.413208581708E+03    0.83228E-05   -0.35283E-06  2679   0.289E-03    0.319E-03
RMM:  11    -0.413208575703E+03    0.60054E-05   -0.17639E-06  2508   0.215E-03    0.170E-03
RMM:  12    -0.413208569987E+03    0.57160E-05   -0.94382E-07  2468   0.165E-03    0.594E-04
RMM:  13    -0.413208567612E+03    0.23752E-05   -0.38520E-07  2267   0.110E-03    0.440E-04
RMM:  14    -0.413208565346E+03    0.22662E-05   -0.19576E-07  1801   0.806E-04    0.334E-04
RMM:  15    -0.413208559653E+03    0.56924E-05   -0.16286E-07  1769   0.770E-04    0.249E-04
RMM:  16    -0.413208559262E+03    0.39082E-06   -0.58545E-08  1034   0.586E-04
   40 T=    70. E= -.41286625E+03 F= -.41320856E+03 E0= -.41318746E+03  EK= 0.34231E+00 SP= 0.00E+00 SK= 0.00E+00
       N       E                     dE             d eps       ncg     rms          rms(c)
RMM:   1    -0.413204183555E+03    0.43761E-02   -0.12849E+01  4305   0.119E+00    0.949E-01
RMM:   2    -0.413211535205E+03   -0.73516E-02   -0.17604E-01  4257   0.141E-01    0.683E-01
RMM:   3    -0.413211281249E+03    0.25396E-03   -0.73715E-03  5044   0.560E-02    0.260E-01
RMM:   4    -0.413267723306E+03   -0.56442E-01   -0.63368E-02  5129   0.209E-01    0.988E-01
RMM:   5    -0.413209557776E+03    0.58166E-01   -0.28371E-02  4774   0.167E-01    0.512E-02
RMM:   6    -0.413209742200E+03   -0.18442E-03   -0.44902E-03  5819   0.626E-02    0.199E-02
RMM:   7    -0.413209767753E+03   -0.25553E-04   -0.46689E-04  5923   0.181E-02    0.153E-02
RMM:   8    -0.413209767803E+03   -0.50379E-07   -0.64676E-05  4869   0.658E-03    0.115E-02
RMM:   9    -0.413209759794E+03    0.80092E-05   -0.90019E-06  3222   0.339E-03    0.698E-03
RMM:  10    -0.413209751560E+03    0.82341E-05   -0.38371E-06  2705   0.299E-03    0.297E-03
RMM:  11    -0.413209745480E+03    0.60798E-05   -0.17535E-06  2513   0.215E-03    0.142E-03
RMM:  12    -0.413209740155E+03    0.53249E-05   -0.88904E-07  2464   0.159E-03    0.574E-04
RMM:  13    -0.413209737856E+03    0.22993E-05   -0.37426E-07  2232   0.107E-03    0.433E-04
RMM:  14    -0.413209734896E+03    0.29595E-05   -0.20401E-07  1764   0.811E-04    0.317E-04
RMM:  15    -0.413209730331E+03    0.45652E-05   -0.14609E-07  1509   0.731E-04    0.163E-04
RMM:  16    -0.413209729250E+03    0.10815E-05   -0.67185E-08  1042   0.610E-04    0.799E-05
RMM:  17    -0.413209727009E+03    0.22411E-05   -0.57254E-08  1066   0.608E-04    0.487E-05
RMM:  18    -0.413209723330E+03    0.36784E-05   -0.61997E-08  1203   0.627E-04    0.405E-05
RMM:  19    -0.413209722740E+03    0.59063E-06   -0.25158E-08   809   0.556E-04
   41 T=    70. E= -.41286552E+03 F= -.41320972E+03 E0= -.41318866E+03  EK= 0.34421E+00 SP= 0.00E+00 SK= 0.00E+00
       N       E                     dE             d eps       ncg     rms          rms(c)
RMM:   1    -0.413213396099E+03   -0.36728E-02   -0.12992E+01  4307   0.127E+00    0.973E-01
RMM:   2    -0.413213314365E+03    0.81735E-04   -0.17977E-01  4287   0.146E-01    0.676E-01
RMM:   3    -0.413216197449E+03   -0.28831E-02   -0.98257E-03  5126   0.729E-02    0.336E-01
RMM:   4    -0.413250140269E+03   -0.33943E-01   -0.49989E-02  5089   0.187E-01    0.811E-01
RMM:   5    -0.413212362160E+03    0.37778E-01   -0.17011E-02  4730   0.135E-01    0.491E-02
RMM:   6    -0.413212413611E+03   -0.51451E-04   -0.27669E-03  5751   0.497E-02    0.173E-02
RMM:   7    -0.413212427321E+03   -0.13711E-04   -0.32362E-04  5911   0.154E-02    0.136E-02
RMM:   8    -0.413212424920E+03    0.24013E-05   -0.46738E-05  4687   0.581E-03    0.925E-03
RMM:   9    -0.413212413548E+03    0.11373E-04   -0.64707E-06  3039   0.351E-03    0.461E-03
RMM:  10    -0.413212402822E+03    0.10726E-04   -0.27268E-06  2579   0.262E-03    0.236E-03
RMM:  11    -0.413212394663E+03    0.81588E-05   -0.10306E-06  2509   0.167E-03    0.940E-04
RMM:  12    -0.413212389798E+03    0.48646E-05   -0.40553E-07  2322   0.110E-03    0.557E-04
RMM:  13    -0.413212384913E+03    0.48852E-05   -0.24659E-07  1694   0.857E-04    0.252E-04
RMM:  14    -0.413212380936E+03    0.39774E-05   -0.15977E-07  1419   0.752E-04    0.149E-04
RMM:  15    -0.413212375957E+03    0.49789E-05   -0.12584E-07  1398   0.713E-04    0.117E-04
RMM:  16    -0.413212371092E+03    0.48645E-05   -0.94747E-08  1337   0.666E-04    0.552E-05
RMM:  17    -0.413212367349E+03    0.37432E-05   -0.72075E-08  1290   0.626E-04    0.525E-05
RMM:  18    -0.413212366140E+03    0.12094E-05   -0.41368E-08   929   0.553E-04    0.361E-05
RMM:  19    -0.413212365172E+03    0.96740E-06   -0.31177E-08   865   0.540E-04
   42 T=    70. E= -.41286612E+03 F= -.41321237E+03 E0= -.41319133E+03  EK= 0.34624E+00 SP= 0.00E+00 SK= 0.00E+00
       N       E                     dE             d eps       ncg     rms          rms(c)
RMM:   1    -0.413213452504E+03   -0.10864E-02   -0.12948E+01  4311   0.134E+00    0.949E-01
RMM:   2    -0.413215150383E+03   -0.16979E-02   -0.17951E-01  4294   0.156E-01    0.676E-01
RMM:   3    -0.413219082615E+03   -0.39322E-02   -0.10560E-02  5105   0.812E-02    0.369E-01
RMM:   4    -0.413247823063E+03   -0.28740E-01   -0.47931E-02  5060   0.185E-01    0.769E-01
RMM:   5    -0.413214158183E+03    0.33665E-01   -0.14782E-02  4709   0.129E-01    0.478E-02
RMM:   6    -0.413214183750E+03   -0.25567E-04   -0.24350E-03  5736   0.469E-02    0.162E-02
RMM:   7    -0.413214193201E+03   -0.94509E-05   -0.27511E-04  5891   0.148E-02    0.130E-02
RMM:   8    -0.413214190991E+03    0.22104E-05   -0.41196E-05  4610   0.559E-03    0.854E-03
RMM:   9    -0.413214181360E+03    0.96313E-05   -0.64297E-06  3084   0.366E-03    0.432E-03
RMM:  10    -0.413214173044E+03    0.83153E-05   -0.26248E-06  2593   0.263E-03    0.245E-03
RMM:  11    -0.413214167033E+03    0.60109E-05   -0.10639E-06  2516   0.167E-03    0.102E-03
RMM:  12    -0.413214163742E+03    0.32910E-05   -0.43269E-07  2360   0.111E-03    0.573E-04
RMM:  13    -0.413214159521E+03    0.42217E-05   -0.30205E-07  1794   0.911E-04    0.275E-04
RMM:  14    -0.413214157140E+03    0.23803E-05   -0.17519E-07  1390   0.756E-04    0.148E-04
RMM:  15    -0.413214153431E+03    0.37097E-05   -0.13765E-07  1321   0.719E-04    0.113E-04
RMM:  16    -0.413214149878E+03    0.35524E-05   -0.10095E-07  1204   0.674E-04    0.489E-05
RMM:  17    -0.413214146838E+03    0.30403E-05   -0.83945E-08  1285   0.649E-04    0.451E-05
RMM:  18    -0.413214145324E+03    0.15146E-05   -0.50320E-08  1005   0.580E-04    0.374E-05
RMM:  19    -0.413214144160E+03    0.11634E-05   -0.36109E-08   870   0.549E-04    0.184E-05
RMM:  20    -0.413214143849E+03    0.31108E-06   -0.22102E-08   757   0.529E-04
   43 T=    71. E= -.41286617E+03 F= -.41321414E+03 E0= -.41319314E+03  EK= 0.34798E+00 SP= 0.00E+00 SK= 0.00E+00
       N       E                     dE             d eps       ncg     rms          rms(c)
RMM:   1    -0.413247806056E+03   -0.33662E-01   -0.13411E+01  4312   0.155E+00    0.951E-01
RMM:   2    -0.413216260889E+03    0.31545E-01   -0.20100E-01  4290   0.177E-01    0.693E-01
RMM:   3    -0.413221719473E+03   -0.54586E-02   -0.11904E-02  5104   0.913E-02    0.417E-01
RMM:   4    -0.413246478973E+03   -0.24759E-01   -0.48366E-02  5055   0.186E-01    0.747E-01
RMM:   5    -0.413215085322E+03    0.31394E-01   -0.13509E-02  4683   0.127E-01    0.499E-02
RMM:   6    -0.413215089612E+03   -0.42902E-05   -0.23016E-03  5683   0.456E-02    0.166E-02
RMM:   7    -0.413215099392E+03   -0.97805E-05   -0.27118E-04  5919   0.148E-02    0.133E-02
RMM:   8    -0.413215097096E+03    0.22961E-05   -0.39276E-05  4614   0.556E-03    0.859E-03
RMM:   9    -0.413215088383E+03    0.87137E-05   -0.73493E-06  3232   0.405E-03    0.450E-03
RMM:  10    -0.413215081593E+03    0.67898E-05   -0.28645E-06  2620   0.277E-03    0.277E-03
RMM:  11    -0.413215076963E+03    0.46295E-05   -0.12734E-06  2527   0.180E-03    0.113E-03
RMM:  12    -0.413215074620E+03    0.23438E-05   -0.51314E-07  2426   0.122E-03    0.666E-04
RMM:  13    -0.413215071027E+03    0.35930E-05   -0.39596E-07  2078   0.102E-03    0.421E-04
RMM:  14    -0.413215069534E+03    0.14927E-05   -0.20118E-07  1466   0.778E-04    0.210E-04
RMM:  15    -0.413215066873E+03    0.26606E-05   -0.15310E-07  1283   0.725E-04    0.140E-04
RMM:  16    -0.413215064138E+03    0.27352E-05   -0.11570E-07  1216   0.682E-04    0.551E-05
RMM:  17    -0.413215062318E+03    0.18196E-05   -0.78194E-08  1087   0.639E-04    0.423E-05
RMM:  18    -0.413215060331E+03    0.19871E-05   -0.63657E-08  1088   0.618E-04    0.420E-05
RMM:  19    -0.413215059192E+03    0.11390E-05   -0.42447E-08   919   0.576E-04    0.334E-05
RMM:  20    -0.413215058898E+03    0.29462E-06   -0.25086E-08   760   0.546E-04
   44 T=    71. E= -.41286591E+03 F= -.41321506E+03 E0= -.41319409E+03  EK= 0.34915E+00 SP= 0.00E+00 SK= 0.00E+00
       N       E                     dE             d eps       ncg     rms          rms(c)
RMM:   1    -0.413244853760E+03   -0.29795E-01   -0.13445E+01  4307   0.159E+00    0.980E-01
RMM:   2    -0.413216871203E+03    0.27983E-01   -0.19403E-01  4361   0.183E-01    0.684E-01
RMM:   3    -0.413229219763E+03   -0.12349E-01   -0.18032E-02  5145   0.116E-01    0.530E-01
RMM:   4    -0.413232505942E+03   -0.32862E-02   -0.37645E-02  5015   0.169E-01    0.553E-01
RMM:   5    -0.413216697237E+03    0.15809E-01   -0.61763E-03  4567   0.965E-02    0.423E-02
RMM:   6    -0.413216653382E+03    0.43855E-04   -0.10856E-03  5363   0.322E-02    0.153E-02
RMM:   7    -0.413216653162E+03    0.22067E-06   -0.12139E-04  5684   0.106E-02    0.119E-02
RMM:   8    -0.413216648772E+03    0.43899E-05   -0.22335E-05  4372   0.461E-03    0.774E-03
RMM:   9    -0.413216632950E+03    0.15822E-04   -0.55683E-06  3010   0.399E-03    0.403E-03
RMM:  10    -0.413216624976E+03    0.79736E-05   -0.15752E-06  2536   0.225E-03    0.173E-03
RMM:  11    -0.413216618748E+03    0.62285E-05   -0.89479E-07  2494   0.153E-03    0.807E-04
RMM:  12    -0.413216614589E+03    0.41593E-05   -0.45884E-07  2394   0.115E-03    0.484E-04
RMM:  13    -0.413216608922E+03    0.56669E-05   -0.28745E-07  1897   0.894E-04    0.295E-04
RMM:  14    -0.413216606441E+03    0.24809E-05   -0.14712E-07  1246   0.704E-04    0.186E-04
RMM:  15    -0.413216601608E+03    0.48328E-05   -0.11848E-07  1246   0.686E-04    0.795E-05
RMM:  16    -0.413216598039E+03    0.35689E-05   -0.84535E-08  1164   0.643E-04    0.700E-05
RMM:  17    -0.413216594257E+03    0.37826E-05   -0.72055E-08  1190   0.620E-04    0.676E-05
RMM:  18    -0.413216591755E+03    0.25015E-05   -0.49847E-08  1004   0.575E-04    0.395E-05
RMM:  19    -0.413216591341E+03    0.41448E-06   -0.25683E-08   736   0.527E-04
   45 T=    71. E= -.41286628E+03 F= -.41321659E+03 E0= -.41319564E+03  EK= 0.35031E+00 SP= 0.00E+00 SK= 0.00E+00
       N       E                     dE             d eps       ncg     rms          rms(c)
RMM:   1    -0.413238311949E+03   -0.21720E-01   -0.13297E+01  4308   0.168E+00    0.961E-01
RMM:   2    -0.413216810642E+03    0.21501E-01   -0.18967E-01  4364   0.195E-01    0.680E-01
RMM:   3    -0.413231582961E+03   -0.14772E-01   -0.19987E-02  5136   0.125E-01    0.567E-01
RMM:   4    -0.413230251600E+03    0.13314E-02   -0.36924E-02  4992   0.168E-01    0.516E-01
RMM:   5    -0.413216693775E+03    0.13558E-01   -0.53250E-03  4545   0.930E-02    0.421E-02
RMM:   6    -0.413216632256E+03    0.61519E-04   -0.85401E-04  5161   0.294E-02    0.147E-02
RMM:   7    -0.413216632791E+03   -0.53500E-06   -0.10012E-04  5598   0.942E-03    0.104E-02
RMM:   8    -0.413216630002E+03    0.27891E-05   -0.22703E-05  4565   0.468E-03    0.745E-03
RMM:   9    -0.413216615717E+03    0.14285E-04   -0.85333E-06  3527   0.434E-03    0.446E-03
RMM:  10    -0.413216609142E+03    0.65759E-05   -0.15358E-06  2505   0.224E-03    0.187E-03
RMM:  11    -0.413216603385E+03    0.57563E-05   -0.11561E-06  2491   0.170E-03    0.910E-04
RMM:  12    -0.413216599669E+03    0.37158E-05   -0.43910E-07  2366   0.119E-03    0.592E-04
RMM:  13    -0.413216595774E+03    0.38954E-05   -0.22382E-07  1647   0.832E-04    0.334E-04
RMM:  14    -0.413216592113E+03    0.36615E-05   -0.13071E-07  1215   0.699E-04    0.181E-04
RMM:  15    -0.413216587011E+03    0.51016E-05   -0.11621E-07  1279   0.680E-04    0.983E-05
RMM:  16    -0.413216583891E+03    0.31199E-05   -0.69926E-08  1054   0.603E-04    0.109E-04
RMM:  17    -0.413216580468E+03    0.34228E-05   -0.56536E-08   981   0.573E-04    0.641E-05
RMM:  18    -0.413216578260E+03    0.22082E-05   -0.37696E-08   854   0.546E-04    0.373E-05
RMM:  19    -0.413216577378E+03    0.88174E-06   -0.21503E-08   686   0.519E-04
   46 T=    71. E= -.41286607E+03 F= -.41321658E+03 E0= -.41319565E+03  EK= 0.35051E+00 SP= 0.00E+00 SK= 0.00E+00
       N       E                     dE             d eps       ncg     rms          rms(c)
RMM:   1    -0.413269421888E+03   -0.52844E-01   -0.13671E+01  4309   0.187E+00    0.946E-01
RMM:   2    -0.413216728977E+03    0.52693E-01   -0.23371E-01  4390   0.218E-01    0.698E-01
RMM:   3    -0.413230239048E+03   -0.13510E-01   -0.19030E-02  5139   0.124E-01    0.586E-01
RMM:   4    -0.413231628241E+03   -0.13892E-02   -0.39234E-02  5003   0.173E-01    0.568E-01
RMM:   5    -0.413215915047E+03    0.15713E-01   -0.70056E-03  4557   0.103E-01    0.484E-02
RMM:   6    -0.413215839513E+03    0.75534E-04   -0.10662E-03  5239   0.333E-02    0.174E-02
RMM:   7    -0.413215839642E+03   -0.12924E-06   -0.13809E-04  5807   0.113E-02    0.131E-02
RMM:   8    -0.413215835952E+03    0.36908E-05   -0.26227E-05  4658   0.494E-03    0.878E-03
RMM:   9    -0.413215823948E+03    0.12004E-04   -0.80182E-06  3344   0.434E-03    0.491E-03
RMM:  10    -0.413215818171E+03    0.57763E-05   -0.20360E-06  2547   0.245E-03    0.228E-03
RMM:  11    -0.413215813840E+03    0.43312E-05   -0.15087E-06  2526   0.191E-03    0.119E-03
RMM:  12    -0.413215811413E+03    0.24268E-05   -0.58929E-07  2442   0.135E-03    0.754E-04
RMM:  13    -0.413215808701E+03    0.27122E-05   -0.33097E-07  2136   0.963E-04    0.418E-04
RMM:  14    -0.413215806579E+03    0.21219E-05   -0.17370E-07  1350   0.728E-04    0.227E-04
RMM:  15    -0.413215803875E+03    0.27041E-05   -0.13195E-07  1205   0.685E-04    0.101E-04
RMM:  16    -0.413215801803E+03    0.20722E-05   -0.94072E-08  1127   0.638E-04    0.794E-05
RMM:  17    -0.413215799983E+03    0.18202E-05   -0.67433E-08  1011   0.600E-04    0.822E-05
RMM:  18    -0.413215798396E+03    0.15873E-05   -0.50911E-08   923   0.573E-04    0.388E-05
RMM:  19    -0.413215798046E+03    0.34992E-06   -0.24487E-08   680   0.531E-04
   47 T=    71. E= -.41286609E+03 F= -.41321580E+03 E0= -.41319489E+03  EK= 0.34971E+00 SP= 0.00E+00 SK= 0.00E+00
       N       E                     dE             d eps       ncg     rms          rms(c)
RMM:   1    -0.413263931087E+03   -0.48133E-01   -0.13615E+01  4306   0.197E+00    0.974E-01
RMM:   2    -0.413214058056E+03    0.49873E-01   -0.21086E-01  4478   0.213E-01    0.690E-01
RMM:   3    -0.413237985809E+03   -0.23928E-01   -0.28500E-02  5155   0.152E-01    0.704E-01
RMM:   4    -0.413222514426E+03    0.15471E-01   -0.37240E-02  4962   0.173E-01    0.439E-01
RMM:   5    -0.413213917066E+03    0.85974E-02   -0.45277E-03  4547   0.902E-02    0.521E-02
RMM:   6    -0.413213756696E+03    0.16037E-03   -0.44549E-04  4722   0.274E-02    0.192E-02
RMM:   7    -0.413213758663E+03   -0.19668E-05   -0.11241E-04  5868   0.103E-02    0.128E-02
RMM:   8    -0.413213750936E+03    0.77267E-05   -0.20796E-05  4488   0.486E-03    0.968E-03
RMM:   9    -0.413213735892E+03    0.15044E-04   -0.67253E-06  3213   0.403E-03    0.560E-03
RMM:  10    -0.413213726910E+03    0.89821E-05   -0.27387E-06  2653   0.281E-03    0.236E-03
RMM:  11    -0.413213720311E+03    0.65994E-05   -0.23163E-06  2591   0.231E-03    0.137E-03
RMM:  12    -0.413213715177E+03    0.51336E-05   -0.86273E-07  2431   0.162E-03    0.817E-04
RMM:  13    -0.413213711396E+03    0.37817E-05   -0.39707E-07  2327   0.107E-03    0.488E-04
RMM:  14    -0.413213707500E+03    0.38960E-05   -0.19999E-07  1537   0.761E-04    0.260E-04
RMM:  15    -0.413213702139E+03    0.53604E-05   -0.15617E-07  1435   0.728E-04    0.134E-04
RMM:  16    -0.413213699158E+03    0.29807E-05   -0.91690E-08  1208   0.638E-04    0.131E-04
RMM:  17    -0.413213696545E+03    0.26139E-05   -0.62180E-08  1054   0.589E-04    0.912E-05
RMM:  18    -0.413213694347E+03    0.21973E-05   -0.43520E-08   942   0.570E-04    0.443E-05
RMM:  19    -0.413213693513E+03    0.83432E-06   -0.25717E-08   772   0.543E-04
   48 T=    71. E= -.41286616E+03 F= -.41321369E+03 E0= -.41319280E+03  EK= 0.34753E+00 SP= 0.00E+00 SK= 0.00E+00
       N       E                     dE             d eps       ncg     rms          rms(c)
RMM:   1    -0.413265166178E+03   -0.51472E-01   -0.13486E+01  4306   0.211E+00    0.964E-01
RMM:   2    -0.413209404990E+03    0.55761E-01   -0.20771E-01  4498   0.226E-01    0.678E-01
RMM:   3    -0.413239114010E+03   -0.29709E-01   -0.33720E-02  5163   0.166E-01    0.772E-01
RMM:   4    -0.413215413713E+03    0.23700E-01   -0.36967E-02  4929   0.175E-01    0.390E-01
RMM:   5    -0.413209598650E+03    0.58151E-02   -0.47292E-03  4767   0.915E-02    0.646E-02
RMM:   6    -0.413209332702E+03    0.26595E-03   -0.48979E-04  4665   0.307E-02    0.235E-02
RMM:   7    -0.413209329910E+03    0.27928E-05   -0.11746E-04  5695   0.113E-02    0.144E-02
RMM:   8    -0.413209321548E+03    0.83612E-05   -0.16243E-05  4038   0.442E-03    0.103E-02
RMM:   9    -0.413209306101E+03    0.15447E-04   -0.77182E-06  3390   0.405E-03    0.502E-03
RMM:  10    -0.413209295717E+03    0.10384E-04   -0.41204E-06  2899   0.316E-03    0.236E-03
RMM:  11    -0.413209287456E+03    0.82613E-05   -0.26414E-06  2647   0.251E-03    0.168E-03
RMM:  12    -0.413209283637E+03    0.38190E-05   -0.75266E-07  2450   0.159E-03    0.928E-04
RMM:  13    -0.413209280602E+03    0.30351E-05   -0.34249E-07  2282   0.102E-03    0.605E-04
RMM:  14    -0.413209275057E+03    0.55450E-05   -0.24351E-07  1872   0.839E-04    0.282E-04
RMM:  15    -0.413209270103E+03    0.49534E-05   -0.16653E-07  1564   0.729E-04    0.238E-04
RMM:  16    -0.413209268443E+03    0.16599E-05   -0.66809E-08  1014   0.590E-04    0.157E-04
[...]
RMM:  10    -0.413651980540E+03   -0.48690E-05   -0.75943E-05  5740   0.103E-02    0.125E-02
RMM:  11    -0.413651980765E+03   -0.22436E-06   -0.17894E-05  4363   0.559E-03    0.546E-03
RMM:  12    -0.413651986242E+03   -0.54780E-05   -0.52276E-06  3048   0.335E-03    0.281E-03
RMM:  13    -0.413651991747E+03   -0.55045E-05   -0.18457E-06  2619   0.219E-03    0.162E-03
RMM:  14    -0.413651998423E+03   -0.66761E-05   -0.17203E-06  2615   0.197E-03    0.895E-04
RMM:  15    -0.413652003907E+03   -0.54835E-05   -0.10488E-06  2509   0.144E-03    0.586E-04
RMM:  16    -0.413652008195E+03   -0.42889E-05   -0.75466E-07  2160   0.112E-03    0.408E-04
RMM:  17    -0.413652013661E+03   -0.54658E-05   -0.10994E-06  2413   0.123E-03    0.285E-04
RMM:  18    -0.413652015993E+03   -0.23323E-05   -0.44555E-07  1494   0.793E-04    0.164E-04
RMM:  19    -0.413652019269E+03   -0.32754E-05   -0.51017E-07  1737   0.862E-04    0.144E-04
RMM:  20    -0.413652020449E+03   -0.11799E-05   -0.18277E-07  1197   0.652E-04    0.987E-05
RMM:  21    -0.413652021687E+03   -0.12386E-05   -0.11817E-07  1109   0.603E-04    0.550E-05
RMM:  22    -0.413652022991E+03   -0.13033E-05   -0.85019E-08  1055   0.579E-04    0.358E-05
RMM:  23    -0.413652023348E+03   -0.35713E-06   -0.43791E-08   925   0.543E-04
  140 T=   159. E= -.41286892E+03 F= -.41365202E+03 E0= -.41362877E+03  EK= 0.78310E+00 SP= 0.00E+00 SK= 0.00E+00
       N       E                     dE             d eps       ncg     rms          rms(c)
RMM:   1    -0.413882174748E+03   -0.23015E+00   -0.17570E+01  4264   0.749E+00    0.975E-01
RMM:   2    -0.413742321939E+03    0.13985E+00   -0.48237E-01  5369   0.858E-01    0.877E-01
RMM:   3    -0.413748663167E+03   -0.63412E-02   -0.61347E-02  5576   0.285E-01    0.692E-01
RMM:   4    -0.413771630769E+03   -0.22968E-01   -0.49485E-02  5279   0.219E-01    0.863E-01
RMM:   5    -0.413741508849E+03    0.30122E-01   -0.38445E-02  4757   0.245E-01    0.230E-01
RMM:   6    -0.413739814855E+03    0.16940E-02   -0.81024E-03  5020   0.120E-01    0.849E-02
RMM:   7    -0.413739705203E+03    0.10965E-03   -0.20625E-03  5704   0.521E-02    0.674E-02
RMM:   8    -0.413739589849E+03    0.11535E-03   -0.63549E-04  5060   0.294E-02    0.411E-02
RMM:   9    -0.413739540194E+03    0.49656E-04   -0.39068E-04  4513   0.258E-02    0.171E-02
RMM:  10    -0.413739545916E+03   -0.57219E-05   -0.99689E-05  5805   0.116E-02    0.132E-02
RMM:  11    -0.413739545133E+03    0.78245E-06   -0.17743E-05  4348   0.537E-03    0.704E-03
RMM:  12    -0.413739550926E+03   -0.57930E-05   -0.72988E-06  3392   0.390E-03    0.316E-03
RMM:  13    -0.413739557799E+03   -0.68725E-05   -0.24425E-06  2690   0.254E-03    0.155E-03
RMM:  14    -0.413739565806E+03   -0.80076E-05   -0.15690E-06  2593   0.190E-03    0.826E-04
RMM:  15    -0.413739572287E+03   -0.64806E-05   -0.10692E-06  2527   0.144E-03    0.676E-04
RMM:  16    -0.413739580097E+03   -0.78100E-05   -0.12771E-06  2439   0.137E-03    0.458E-04
RMM:  17    -0.413739586088E+03   -0.59912E-05   -0.10362E-06  2168   0.117E-03    0.243E-04
RMM:  18    -0.413739589301E+03   -0.32132E-05   -0.53768E-07  1762   0.875E-04    0.189E-04
RMM:  19    -0.413739594095E+03   -0.47933E-05   -0.71310E-07  1964   0.954E-04    0.173E-04
RMM:  20    -0.413739595274E+03   -0.11794E-05   -0.19945E-07  1201   0.643E-04    0.108E-04
RMM:  21    -0.413739596910E+03   -0.16361E-05   -0.13704E-07  1137   0.607E-04    0.501E-05
RMM:  22    -0.413739598031E+03   -0.11213E-05   -0.87820E-08  1061   0.573E-04    0.399E-05
RMM:  23    -0.413739598418E+03   -0.38724E-06   -0.44906E-08   939   0.537E-04
  141 T=   174. E= -.41288364E+03 F= -.41373960E+03 E0= -.41371643E+03  EK= 0.85596E+00 SP= 0.00E+00 SK= 0.00E+00
       N       E                     dE             d eps       ncg     rms          rms(c)
RMM:   1    -0.413833449424E+03   -0.93851E-01   -0.19635E+01  4264   0.775E+00    0.172E+00
RMM:   2    -0.413657832926E+03    0.17562E+00   -0.61815E-01  5282   0.962E-01    0.153E+00
RMM:   3    -0.413751126729E+03   -0.93294E-01   -0.18579E-01  5616   0.443E-01    0.172E+00
RMM:   4    -0.413656879536E+03    0.94247E-01   -0.10410E-01  4950   0.376E-01    0.608E-01
RMM:   5    -0.413653763110E+03    0.31164E-02   -0.51919E-02  4993   0.288E-01    0.259E-01
RMM:   6    -0.413650299382E+03    0.34637E-02   -0.11292E-02  4971   0.139E-01    0.122E-01
RMM:   7    -0.413649727968E+03    0.57141E-03   -0.21134E-03  5172   0.621E-02    0.718E-02
RMM:   8    -0.413649610440E+03    0.11753E-03   -0.73310E-04  4827   0.355E-02    0.373E-02
RMM:   9    -0.413649592781E+03    0.17658E-04   -0.35815E-04  5057   0.237E-02    0.194E-02
RMM:  10    -0.413649593938E+03   -0.11566E-05   -0.89903E-05  5927   0.108E-02    0.131E-02
RMM:  11    -0.413649593091E+03    0.84713E-06   -0.22053E-05  4692   0.583E-03    0.705E-03
RMM:  12    -0.413649597448E+03   -0.43573E-05   -0.89068E-06  3890   0.427E-03    0.340E-03
RMM:  13    -0.413649602004E+03   -0.45563E-05   -0.22306E-06  2648   0.242E-03    0.207E-03
RMM:  14    -0.413649606955E+03   -0.49507E-05   -0.10367E-06  2541   0.167E-03    0.884E-04
RMM:  15    -0.413649611237E+03   -0.42819E-05   -0.78918E-07  2501   0.129E-03    0.674E-04
RMM:  16    -0.413649617047E+03   -0.58100E-05   -0.98703E-07  2313   0.124E-03    0.386E-04
RMM:  17    -0.413649620585E+03   -0.35380E-05   -0.60298E-07  1840   0.956E-04    0.247E-04
RMM:  18    -0.413649624587E+03   -0.40022E-05   -0.73847E-07  2156   0.103E-03    0.195E-04
RMM:  19    -0.413649627684E+03   -0.30963E-05   -0.50534E-07  1520   0.826E-04    0.129E-04
RMM:  20    -0.413649629536E+03   -0.18523E-05   -0.27467E-07  1365   0.719E-04    0.964E-05
RMM:  21    -0.413649630561E+03   -0.10251E-05   -0.14292E-07  1124   0.627E-04    0.561E-05
RMM:  22    -0.413649631409E+03   -0.84838E-06   -0.91206E-08  1061   0.587E-04
  142 T=   154. E= -.41289308E+03 F= -.41364963E+03 E0= -.41362654E+03  EK= 0.75655E+00 SP= 0.00E+00 SK= 0.00E+00
       N       E                     dE             d eps       ncg     rms          rms(c)
RMM:   1    -0.413474357795E+03    0.17527E+00   -0.14275E+01  4264   0.658E+00    0.149E+00
RMM:   2    -0.413400688066E+03    0.73670E-01   -0.50951E-01  5239   0.783E-01    0.130E+00
RMM:   3    -0.413480974032E+03   -0.80286E-01   -0.14685E-01  5580   0.387E-01    0.153E+00
RMM:   4    -0.413401775378E+03    0.79199E-01   -0.80792E-02  4950   0.333E-01    0.449E-01
RMM:   5    -0.413401002280E+03    0.77310E-03   -0.41517E-02  5218   0.249E-01    0.240E-01
RMM:   6    -0.413397850925E+03    0.31514E-02   -0.10428E-02  5007   0.130E-01    0.101E-01
RMM:   7    -0.413397462571E+03    0.38835E-03   -0.19426E-03  5329   0.580E-02    0.583E-02
RMM:   8    -0.413397426095E+03    0.36476E-04   -0.57393E-04  4992   0.316E-02    0.294E-02
RMM:   9    -0.413397416790E+03    0.93055E-05   -0.15988E-04  5289   0.153E-02    0.145E-02
RMM:  10    -0.413397416917E+03   -0.12747E-06   -0.48428E-05  5669   0.794E-03    0.961E-03
RMM:  11    -0.413397417020E+03   -0.10278E-06   -0.15134E-05  4365   0.469E-03    0.526E-03
RMM:  12    -0.413397418411E+03   -0.13912E-05   -0.37995E-06  2838   0.314E-03    0.255E-03
RMM:  13    -0.413397420178E+03   -0.17668E-05   -0.12558E-06  2539   0.193E-03    0.143E-03
RMM:  14    -0.413397422420E+03   -0.22423E-05   -0.73179E-07  2500   0.140E-03    0.618E-04
RMM:  15    -0.413397424290E+03   -0.18695E-05   -0.49647E-07  2039   0.104E-03    0.406E-04
RMM:  16    -0.413397426225E+03   -0.19353E-05   -0.42570E-07  1848   0.941E-04    0.230E-04
RMM:  17    -0.413397427649E+03   -0.14242E-05   -0.30066E-07  1659   0.816E-04    0.142E-04
RMM:  18    -0.413397429274E+03   -0.16252E-05   -0.30365E-07  1653   0.788E-04    0.122E-04
RMM:  19    -0.413397430263E+03   -0.98842E-06   -0.18190E-07  1245   0.668E-04
  143 T=   113. E= -.41284191E+03 F= -.41339743E+03 E0= -.41337453E+03  EK= 0.55552E+00 SP= 0.00E+00 SK= 0.00E+00
       N       E                     dE             d eps       ncg     rms          rms(c)
RMM:   1    -0.413693433290E+03   -0.29600E+00   -0.12367E+01  4271   0.613E+00    0.115E+00
RMM:   2    -0.413636239863E+03    0.57193E-01   -0.43782E-01  5408   0.748E-01    0.104E+00
RMM:   3    -0.413670851516E+03   -0.34612E-01   -0.10969E-01  5507   0.354E-01    0.120E+00
RMM:   4    -0.413623801749E+03    0.47050E-01   -0.62768E-02  5202   0.297E-01    0.516E-01
RMM:   5    -0.413620311737E+03    0.34900E-02   -0.16610E-02  4414   0.195E-01    0.140E-01
RMM:   6    -0.413620260159E+03    0.51578E-04   -0.61684E-03  5324   0.961E-02    0.101E-01
RMM:   7    -0.413619904441E+03    0.35572E-03   -0.18647E-03  5180   0.511E-02    0.569E-02
RMM:   8    -0.413619851802E+03    0.52639E-04   -0.32807E-04  5011   0.241E-02    0.316E-02
RMM:   9    -0.413619850626E+03    0.11759E-05   -0.15849E-04  4934   0.166E-02    0.171E-02
RMM:  10    -0.413619848713E+03    0.19129E-05   -0.43409E-05  5362   0.794E-03    0.951E-03
RMM:  11    -0.413619848638E+03    0.74928E-07   -0.20309E-05  4702   0.528E-03    0.464E-03
RMM:  12    -0.413619848878E+03   -0.24027E-06   -0.35429E-06  2835   0.281E-03
  144 T=   153. E= -.41286998E+03 F= -.41361985E+03 E0= -.41359717E+03  EK= 0.74987E+00 SP= 0.00E+00 SK= 0.00E+00
       N       E                     dE             d eps       ncg     rms          rms(c)
RMM:   1    -0.414411505453E+03   -0.79166E+00   -0.26097E+01  4294   0.866E+00    0.251E+00
RMM:   2    -0.414064831015E+03    0.34667E+00   -0.98511E-01  5370   0.128E+00    0.237E+00
RMM:   3    -0.414196972790E+03   -0.13214E+00   -0.35057E-01  5452   0.640E-01    0.248E+00
RMM:   4    -0.414033238501E+03    0.16373E+00   -0.23637E-01  5180   0.548E-01    0.126E+00
RMM:   5    -0.414010351540E+03    0.22887E-01   -0.77732E-02  4436   0.408E-01    0.319E-01
RMM:   6    -0.414007686024E+03    0.26655E-02   -0.19305E-02  5044   0.183E-01    0.180E-01
RMM:   7    -0.414006620375E+03    0.10656E-02   -0.46200E-03  5105   0.870E-02    0.108E-01
RMM:   8    -0.414006371494E+03    0.24888E-03   -0.91045E-04  4621   0.419E-02    0.651E-02
RMM:   9    -0.414006319416E+03    0.52078E-04   -0.59344E-04  4567   0.328E-02    0.259E-02
RMM:  10    -0.414006322624E+03   -0.32071E-05   -0.18298E-04  5813   0.158E-02    0.160E-02
RMM:  11    -0.414006323342E+03   -0.71794E-06   -0.52936E-05  5373   0.861E-03    0.764E-03
RMM:  12    -0.414006325734E+03   -0.23920E-05   -0.14060E-05  4189   0.481E-03    0.455E-03
RMM:  13    -0.414006326967E+03   -0.12333E-05   -0.45844E-06  2983   0.302E-03    0.256E-03
RMM:  14    -0.414006327720E+03   -0.75315E-06   -0.12525E-06  2533   0.191E-03
  145 T=   223. E= -.41291240E+03 F= -.41400633E+03 E0= -.41398403E+03  EK= 0.10939E+01 SP= 0.00E+00 SK= 0.00E+00
       N       E                     dE             d eps       ncg     rms          rms(c)
RMM:   1    -0.414478655278E+03   -0.47233E+00   -0.31136E+01  4295   0.947E+00    0.218E+00
RMM:   2    -0.413990330969E+03    0.48832E+00   -0.10338E+00  5373   0.133E+00    0.223E+00
RMM:   3    -0.413982118500E+03    0.82125E-02   -0.14733E-01  5360   0.450E-01    0.168E+00
RMM:   4    -0.414370107617E+03   -0.38799E+00   -0.46237E-01  5240   0.623E-01    0.262E+00
RMM:   5    -0.413969029757E+03    0.40108E+00   -0.27682E-01  4726   0.623E-01    0.487E-01
RMM:   6    -0.413965782873E+03    0.32469E-02   -0.55832E-02  5584   0.265E-01    0.234E-01
RMM:   7    -0.413965487291E+03    0.29558E-03   -0.86582E-03  5749   0.972E-02    0.150E-01
RMM:   8    -0.413965245526E+03    0.24176E-03   -0.27017E-03  5129   0.604E-02    0.897E-02
RMM:   9    -0.413965092794E+03    0.15273E-03   -0.13813E-03  5137   0.456E-02    0.328E-02
RMM:  10    -0.413965081741E+03    0.11053E-04   -0.43944E-04  5864   0.246E-02    0.219E-02
RMM:  11    -0.413965082849E+03   -0.11086E-05   -0.10459E-04  5873   0.112E-02    0.121E-02
RMM:  12    -0.413965086604E+03   -0.37542E-05   -0.26276E-05  4861   0.629E-03    0.675E-03
RMM:  13    -0.413965090542E+03   -0.39386E-05   -0.59637E-06  3153   0.354E-03    0.338E-03
RMM:  14    -0.413965093428E+03   -0.28854E-05   -0.21214E-06  2659   0.233E-03    0.161E-03
RMM:  15    -0.413965095258E+03   -0.18300E-05   -0.11998E-06  2555   0.171E-03    0.818E-04
RMM:  16    -0.413965096093E+03   -0.83581E-06   -0.61310E-07  2194   0.117E-03
  146 T=   221. E= -.41287943E+03 F= -.41396510E+03 E0= -.41394366E+03  EK= 0.10857E+01 SP= 0.00E+00 SK= 0.00E+00
       N       E                     dE             d eps       ncg     rms          rms(c)
RMM:   1    -0.414118355182E+03   -0.15326E+00   -0.24931E+01  4294   0.890E+00    0.138E+00
RMM:   2    -0.413820674996E+03    0.29768E+00   -0.67284E-01  5381   0.106E+00    0.143E+00
RMM:   3    -0.413829935892E+03   -0.92609E-02   -0.10148E-01  5804   0.340E-01    0.122E+00
RMM:   4    -0.413835106922E+03   -0.51710E-02   -0.50955E-02  5300   0.226E-01    0.113E+00
RMM:   5    -0.413811649058E+03    0.23458E-01   -0.10100E-01  4320   0.429E-01    0.367E-01
RMM:   6    -0.413807266589E+03    0.43825E-02   -0.14552E-02  4974   0.165E-01    0.208E-01
RMM:   7    -0.413806641526E+03    0.62506E-03   -0.31625E-03  5514   0.711E-02    0.145E-01
RMM:   8    -0.413806163967E+03    0.47756E-03   -0.14188E-03  4528   0.499E-02    0.695E-02
RMM:   9    -0.413806112199E+03    0.51768E-04   -0.10546E-03  4724   0.425E-02    0.259E-02
RMM:  10    -0.413806130748E+03   -0.18548E-04   -0.24167E-04  5722   0.186E-02    0.195E-02
RMM:  11    -0.413806131449E+03   -0.70113E-06   -0.59578E-05  5314   0.948E-03    0.987E-03
RMM:  12    -0.413806136967E+03   -0.55187E-05   -0.12670E-05  3769   0.470E-03    0.487E-03
RMM:  13    -0.413806141828E+03   -0.48606E-05   -0.45251E-06  2993   0.303E-03    0.264E-03
RMM:  14    -0.413806145296E+03   -0.34681E-05   -0.21817E-06  2660   0.225E-03    0.147E-03
RMM:  15    -0.413806147888E+03   -0.25920E-05   -0.13678E-06  2543   0.179E-03    0.612E-04
RMM:  16    -0.413806149161E+03   -0.12725E-05   -0.67400E-07  2295   0.122E-03    0.336E-04
RMM:  17    -0.413806150142E+03   -0.98126E-06   -0.49289E-07  2004   0.103E-03
  147 T=   193. E= -.41286058E+03 F= -.41380615E+03 E0= -.41378573E+03  EK= 0.94557E+00 SP= 0.00E+00 SK= 0.00E+00
       N       E                     dE             d eps       ncg     rms          rms(c)
RMM:   1    -0.413953187198E+03   -0.14704E+00   -0.21075E+01  4298   0.865E+00    0.120E+00
RMM:   2    -0.413764243327E+03    0.18894E+00   -0.47239E-01  5339   0.839E-01    0.936E-01
RMM:   3    -0.413842426325E+03   -0.78183E-01   -0.14364E-01  5725   0.386E-01    0.140E+00
RMM:   4    -0.413755417280E+03    0.87009E-01   -0.57200E-02  4860   0.274E-01    0.510E-01
RMM:   5    -0.413756273762E+03   -0.85648E-03   -0.48285E-02  4890   0.277E-01    0.281E-01
RMM:   6    -0.413753636492E+03    0.26373E-02   -0.13004E-02  5239   0.143E-01    0.177E-01
RMM:   7    -0.413753212551E+03    0.42394E-03   -0.25863E-03  5498   0.640E-02    0.126E-01
RMM:   8    -0.413752942709E+03    0.26984E-03   -0.14301E-03  4463   0.494E-02    0.408E-02
RMM:   9    -0.413753008143E+03   -0.65435E-04   -0.56575E-04  5621   0.277E-02    0.252E-02
RMM:  10    -0.413753013227E+03   -0.50837E-05   -0.84509E-05  5292   0.108E-02    0.159E-02
RMM:  11    -0.413753024294E+03   -0.11067E-04   -0.40419E-05  4592   0.831E-03    0.728E-03
RMM:  12    -0.413753033276E+03   -0.89826E-05   -0.11535E-05  3674   0.433E-03    0.378E-03
RMM:  13    -0.413753040943E+03   -0.76667E-05   -0.48990E-06  3019   0.313E-03    0.229E-03
RMM:  14    -0.413753046002E+03   -0.50590E-05   -0.35149E-06  2852   0.265E-03    0.132E-03
RMM:  15    -0.413753048680E+03   -0.26782E-05   -0.19709E-06  2638   0.200E-03    0.723E-04
RMM:  16    -0.413753048967E+03   -0.28656E-06   -0.11207E-06  2365   0.140E-03
  148 T=   178. E= -.41287758E+03 F= -.41375305E+03 E0= -.41373287E+03  EK= 0.87547E+00 SP= 0.00E+00 SK= 0.00E+00
       N       E                     dE             d eps       ncg     rms          rms(c)
RMM:   1    -0.413765631762E+03   -0.12583E-01   -0.18377E+01  4301   0.814E+00    0.118E+00
RMM:   2    -0.413654116792E+03    0.11151E+00   -0.45873E-01  5273   0.785E-01    0.985E-01
RMM:   3    -0.413693573374E+03   -0.39457E-01   -0.13636E-01  5625   0.372E-01    0.127E+00
RMM:   4    -0.413631605555E+03    0.61968E-01   -0.40423E-02  4834   0.240E-01    0.546E-01
RMM:   5    -0.413636032631E+03   -0.44271E-02   -0.66363E-02  5128   0.298E-01    0.397E-01
RMM:   6    -0.413630070201E+03    0.59624E-02   -0.28139E-02  5164   0.199E-01    0.223E-01
RMM:   7    -0.413629415988E+03    0.65421E-03   -0.37016E-03  5610   0.779E-02    0.155E-01
RMM:   8    -0.413628839368E+03    0.57662E-03   -0.21997E-03  4480   0.571E-02    0.534E-02
RMM:   9    -0.413628916783E+03   -0.77415E-04   -0.11573E-03  5446   0.363E-02    0.212E-02
RMM:  10    -0.413628943779E+03   -0.26997E-04   -0.12399E-04  5701   0.126E-02    0.154E-02
RMM:  11    -0.413628958722E+03   -0.14943E-04   -0.34839E-05  4549   0.762E-03    0.840E-03
RMM:  12    -0.413628983497E+03   -0.24775E-04   -0.20125E-05  3982   0.598E-03    0.453E-03
RMM:  13    -0.413628995357E+03   -0.11861E-04   -0.65732E-06  3148   0.349E-03    0.266E-03
RMM:  14    -0.413629003117E+03   -0.77598E-05   -0.45656E-06  2949   0.271E-03    0.177E-03
RMM:  15    -0.413629007386E+03   -0.42691E-05   -0.47939E-06  2955   0.270E-03    0.950E-04
RMM:  16    -0.413629007721E+03   -0.33477E-06   -0.40404E-06  2808   0.238E-03
  149 T=   153. E= -.41287664E+03 F= -.41362901E+03 E0= -.41360860E+03  EK= 0.75237E+00 SP= 0.00E+00 SK= 0.00E+00
       N       E                     dE             d eps       ncg     rms          rms(c)
RMM:   1    -0.413491007680E+03    0.13800E+00   -0.13440E+01  4302   0.692E+00    0.818E-01
RMM:   2    -0.413450822709E+03    0.40185E-01   -0.34851E-01  5226   0.671E-01    0.794E-01
RMM:   3    -0.413459880433E+03   -0.90577E-02   -0.79846E-02  5623   0.284E-01    0.899E-01
RMM:   4    -0.413433054710E+03    0.26826E-01   -0.16995E-02  4851   0.156E-01    0.490E-01
RMM:   5    -0.413434218809E+03   -0.11641E-02   -0.38277E-02  5213   0.218E-01    0.346E-01
RMM:   6    -0.413432017394E+03    0.22014E-02   -0.30908E-02  5206   0.192E-01    0.239E-01
RMM:   7    -0.413431109186E+03    0.90821E-03   -0.32600E-03  5600   0.743E-02    0.182E-01
RMM:   8    -0.413430148691E+03    0.96050E-03   -0.24162E-03  4413   0.565E-02    0.730E-02
RMM:   9    -0.413430202783E+03   -0.54092E-04   -0.18455E-03  5465   0.423E-02    0.176E-02
RMM:  10    -0.413430245250E+03   -0.42468E-04   -0.14529E-04  5746   0.136E-02    0.124E-02
RMM:  11    -0.413430265318E+03   -0.20068E-04   -0.28776E-05  4475   0.702E-03    0.726E-03
RMM:  12    -0.413430294375E+03   -0.29057E-04   -0.15703E-05  3778   0.558E-03    0.410E-03
RMM:  13    -0.413430306898E+03   -0.12523E-04   -0.66548E-06  3152   0.346E-03    0.313E-03
RMM:  14    -0.413430312259E+03   -0.53604E-05   -0.41095E-06  2931   0.254E-03    0.246E-03
RMM:  15    -0.413430314434E+03   -0.21755E-05   -0.62273E-06  3121   0.295E-03    0.114E-03
RMM:  16    -0.413430312466E+03    0.19687E-05   -0.47803E-06  2864   0.256E-03    0.781E-04
RMM:  17    -0.413430307235E+03    0.52309E-05   -0.28408E-06  2600   0.186E-03    0.661E-04
RMM:  18    -0.413430299591E+03    0.76440E-05   -0.17281E-06  2357   0.147E-03    0.482E-04
RMM:  19    -0.413430293609E+03    0.59814E-05   -0.74939E-07  1923   0.101E-03    0.332E-04
RMM:  20    -0.413430288505E+03    0.51041E-05   -0.41338E-07  1784   0.846E-04    0.131E-04
RMM:  21    -0.413430284459E+03    0.40459E-05   -0.26120E-07  1555   0.730E-04    0.149E-04
RMM:  22    -0.413430282131E+03    0.23280E-05   -0.13829E-07  1174   0.615E-04    0.977E-05
RMM:  23    -0.413430280712E+03    0.14194E-05   -0.85372E-08  1092   0.581E-04    0.451E-05
RMM:  24    -0.413430279887E+03    0.82506E-06   -0.56758E-08  1069   0.560E-04
  150 T=   114. E= -.41286796E+03 F= -.41343028E+03 E0= -.41340964E+03  EK= 0.56232E+00 SP= 0.00E+00 SK= 0.00E+00
