       N       E                     dE             d eps       ncg     rms          rms(c)
RMM:   1     0.220160803460E+04    0.22016E+04   -0.52439E+04  2132   0.654E+02
RMM:   2     0.705415737193E+03   -0.14962E+04   -0.16263E+04  2132   0.177E+02
RMM:   3     0.137455308141E+03   -0.56796E+03   -0.65737E+03  2132   0.117E+02
RMM:   4    -0.159196823586E+03   -0.29665E+03   -0.27825E+03  2132   0.936E+01
RMM:   5    -0.287417429462E+03   -0.12822E+03   -0.11446E+03  2132   0.595E+01
RMM:   6    -0.349767797249E+03   -0.62350E+02   -0.55142E+02  2132   0.423E+01
RMM:   7    -0.382740642235E+03   -0.32973E+02   -0.30468E+02  2132   0.293E+01
RMM:   8    -0.404222699403E+03   -0.21482E+02   -0.18440E+02  2132   0.233E+01
RMM:   9    -0.435948230576E+03   -0.31726E+02   -0.30679E+02  6103   0.173E+01
RMM:  10    -0.441294667966E+03   -0.53464E+01   -0.63539E+01  6399   0.540E+00
RMM:  11    -0.442516330400E+03   -0.12217E+01   -0.11056E+01  6217   0.173E+00
RMM:  12    -0.442891773219E+03   -0.37544E+00   -0.27396E+00  6366   0.599E-01    0.134E+02
RMM:  13    -0.425606419600E+03    0.17285E+02   -0.80808E+01  4672   0.119E+01    0.712E+01
RMM:  14    -0.499738899819E+03   -0.74132E+02   -0.54028E+02  5411   0.232E+01    0.308E+01
RMM:  15    -0.416366295515E+03    0.83373E+02   -0.20084E+02  5098   0.164E+01    0.731E+00
RMM:  16    -0.414027933391E+03    0.23384E+01   -0.39835E+01  6083   0.613E+00    0.430E+00
RMM:  17    -0.413212349531E+03    0.81558E+00   -0.25628E+00  5398   0.190E+00    0.244E+00
RMM:  18    -0.413174244597E+03    0.38105E-01   -0.77494E-01  5989   0.900E-01    0.168E+00
RMM:  19    -0.413172632338E+03    0.16123E-02   -0.25095E-01  5688   0.545E-01    0.894E-01
RMM:  20    -0.413193983970E+03   -0.21352E-01   -0.31159E-01  5557   0.580E-01    0.667E-01
RMM:  21    -0.413169810801E+03    0.24173E-01   -0.35536E-02  4977   0.250E-01    0.308E-01
RMM:  22    -0.413165934838E+03    0.38760E-02   -0.24286E-02  5876   0.150E-01    0.134E-01
RMM:  23    -0.413164957630E+03    0.97721E-03   -0.61625E-03  6079   0.702E-02    0.846E-02
RMM:  24    -0.413163715405E+03    0.12422E-02   -0.16432E-03  5259   0.419E-02    0.522E-02
RMM:  25    -0.413163021573E+03    0.69383E-03   -0.81353E-04  5033   0.286E-02    0.417E-02
RMM:  26    -0.413163090331E+03   -0.68758E-04   -0.10908E-03  5738   0.344E-02    0.341E-02
RMM:  27    -0.413163470104E+03   -0.37977E-03   -0.19666E-04  4619   0.199E-02    0.196E-02
RMM:  28    -0.413163929843E+03   -0.45974E-03   -0.16165E-04  5018   0.184E-02    0.103E-02
RMM:  29    -0.413164314620E+03   -0.38478E-03   -0.11906E-04  4707   0.159E-02    0.460E-03
RMM:  30    -0.413164542855E+03   -0.22824E-03   -0.77429E-05  4285   0.103E-02    0.391E-03
RMM:  31    -0.413164681975E+03   -0.13912E-03   -0.57588E-05  3339   0.745E-03    0.359E-03
RMM:  32    -0.413164707810E+03   -0.25835E-04   -0.21809E-05  2982   0.320E-03    0.205E-03
RMM:  33    -0.413164718703E+03   -0.10893E-04   -0.84713E-06  2795   0.221E-03    0.793E-04
RMM:  34    -0.413164720408E+03   -0.17049E-05   -0.46871E-06  2622   0.155E-03    0.455E-04
RMM:  35    -0.413164720430E+03   -0.22024E-07   -0.46125E-06  2401   0.130E-03
    1 T=    61. E= -.41286692E+03 F= -.41316472E+03 E0= -.41314222E+03  EK= 0.29780E+00 SP= 0.00E+00 SK= 0.00E+00
       N       E                     dE             d eps       ncg     rms          rms(c)
RMM:   1    -0.413166652609E+03   -0.19322E-02   -0.81223E+00  3979   0.579E-01    0.889E-01
RMM:   2    -0.413169621188E+03   -0.29686E-02   -0.10048E-01  3831   0.836E-02    0.656E-01
RMM:   3    -0.413165063139E+03    0.45580E-02   -0.24504E-02  4874   0.556E-02    0.128E-01
RMM:   4    -0.413188172192E+03   -0.23109E-01   -0.25675E-02  5190   0.134E-01    0.640E-01
RMM:   5    -0.413164227525E+03    0.23945E-01   -0.11545E-02  4838   0.107E-01    0.485E-02
RMM:   6    -0.413164407669E+03   -0.18014E-03   -0.21879E-03  5756   0.457E-02    0.349E-02
RMM:   7    -0.413164402407E+03    0.52621E-05   -0.42504E-04  5638   0.192E-02    0.214E-02
RMM:   8    -0.413164398217E+03    0.41896E-05   -0.49457E-05  5134   0.791E-03    0.919E-03
RMM:   9    -0.413164400452E+03   -0.22350E-05   -0.10496E-05  3477   0.339E-03    0.676E-03
RMM:  10    -0.413164405349E+03   -0.48970E-05   -0.22266E-06  2585   0.224E-03    0.394E-03
RMM:  11    -0.413164409373E+03   -0.40234E-05   -0.12500E-06  2517   0.168E-03    0.215E-03
RMM:  12    -0.413164415534E+03   -0.61609E-05   -0.15897E-06  2552   0.177E-03    0.918E-04
RMM:  13    -0.413164418378E+03   -0.28448E-05   -0.67039E-07  2365   0.124E-03    0.678E-04
RMM:  14    -0.413164418406E+03   -0.27874E-07   -0.34462E-07  1854   0.837E-04
    2 T=    61. E= -.41286667E+03 F= -.41316442E+03 E0= -.41314192E+03  EK= 0.29775E+00 SP= 0.00E+00 SK= 0.00E+00
       N       E                     dE             d eps       ncg     rms          rms(c)
RMM:   1    -0.413167578594E+03   -0.31602E-02   -0.81032E+00  4190   0.582E-01    0.906E-01
RMM:   2    -0.413169669507E+03   -0.20909E-02   -0.10009E-01  3888   0.816E-02    0.653E-01
RMM:   3    -0.413165742200E+03    0.39273E-02   -0.22811E-02  4962   0.517E-02    0.128E-01
RMM:   4    -0.413193736749E+03   -0.27995E-01   -0.30774E-02  5168   0.147E-01    0.703E-01
RMM:   5    -0.413164807145E+03    0.28930E-01   -0.13646E-02  4820   0.117E-01    0.507E-02
RMM:   6    -0.413165012552E+03   -0.20541E-03   -0.25611E-03  5755   0.495E-02    0.365E-02
RMM:   7    -0.413164997918E+03    0.14635E-04   -0.46382E-04  5625   0.204E-02    0.229E-02
RMM:   8    -0.413164987007E+03    0.10911E-04   -0.61296E-05  5194   0.883E-03    0.106E-02
RMM:   9    -0.413164984986E+03    0.20205E-05   -0.12078E-05  3788   0.386E-03    0.767E-03
RMM:  10    -0.413164985113E+03   -0.12665E-06   -0.22618E-06  2596   0.239E-03
    3 T=    61. E= -.41286696E+03 F= -.41316499E+03 E0= -.41314249E+03  EK= 0.29803E+00 SP= 0.00E+00 SK= 0.00E+00
       N       E                     dE             d eps       ncg     rms          rms(c)
RMM:   1    -0.413167002929E+03   -0.20179E-02   -0.80461E+00  4220   0.584E-01    0.892E-01
RMM:   2    -0.413169288400E+03   -0.22855E-02   -0.99698E-02  4278   0.857E-02    0.647E-01
RMM:   3    -0.413173087948E+03   -0.37995E-02   -0.28213E-02  5178   0.957E-02    0.389E-01
RMM:   4    -0.413183292771E+03   -0.10205E-01   -0.36342E-02  5093   0.165E-01    0.564E-01
RMM:   5    -0.413164737276E+03    0.18555E-01   -0.65438E-03  4640   0.934E-02    0.577E-02
RMM:   6    -0.413164719720E+03    0.17556E-04   -0.14009E-03  5358   0.380E-02    0.322E-02
RMM:   7    -0.413164734242E+03   -0.14521E-04   -0.29868E-04  5918   0.162E-02    0.189E-02
RMM:   8    -0.413164730273E+03    0.39687E-05   -0.51531E-05  5076   0.852E-03    0.751E-03
RMM:   9    -0.413164729190E+03    0.10826E-05   -0.60822E-06  3146   0.331E-03    0.384E-03
RMM:  10    -0.413164730273E+03   -0.10829E-05   -0.14288E-06  2524   0.205E-03    0.235E-03
RMM:  11    -0.413164731733E+03   -0.14599E-05   -0.11736E-06  2519   0.170E-03    0.128E-03
RMM:  12    -0.413164732476E+03   -0.74257E-06   -0.71830E-07  2477   0.134E-03
    4 T=    61. E= -.41286664E+03 F= -.41316473E+03 E0= -.41314225E+03  EK= 0.29810E+00 SP= 0.00E+00 SK= 0.00E+00
       N       E                     dE             d eps       ncg     rms          rms(c)
RMM:   1    -0.413167071759E+03   -0.23400E-02   -0.81200E+00  4235   0.598E-01    0.887E-01
RMM:   2    -0.413169856517E+03   -0.27848E-02   -0.10097E-01  4032   0.852E-02    0.654E-01
RMM:   3    -0.413165998121E+03    0.38584E-02   -0.24762E-02  4935   0.599E-02    0.157E-01
RMM:   4    -0.413196242848E+03   -0.30245E-01   -0.34295E-02  5138   0.155E-01    0.733E-01
RMM:   5    -0.413164666138E+03    0.31577E-01   -0.14708E-02  4808   0.122E-01    0.509E-02
RMM:   6    -0.413164875173E+03   -0.20903E-03   -0.26339E-03  5738   0.508E-02    0.351E-02
RMM:   7    -0.413164875071E+03    0.10197E-06   -0.46168E-04  5709   0.202E-02    0.224E-02
RMM:   8    -0.413164871912E+03    0.31582E-05   -0.62048E-05  5169   0.895E-03    0.102E-02
RMM:   9    -0.413164873000E+03   -0.10878E-05   -0.12406E-05  3809   0.393E-03    0.723E-03
RMM:  10    -0.413164877552E+03   -0.45523E-05   -0.21205E-06  2583   0.232E-03    0.432E-03
RMM:  11    -0.413164880953E+03   -0.34003E-05   -0.11681E-06  2525   0.173E-03    0.242E-03
RMM:  12    -0.413164886681E+03   -0.57283E-05   -0.18584E-06  2593   0.197E-03    0.110E-03
RMM:  13    -0.413164889125E+03   -0.24443E-05   -0.69121E-07  2425   0.135E-03    0.858E-04
RMM:  14    -0.413164888881E+03    0.24465E-06   -0.25781E-07  1929   0.874E-04
    5 T=    61. E= -.41286662E+03 F= -.41316489E+03 E0= -.41314241E+03  EK= 0.29827E+00 SP= 0.00E+00 SK= 0.00E+00
       N       E                     dE             d eps       ncg     rms          rms(c)
RMM:   1    -0.413167851198E+03   -0.29621E-02   -0.81162E+00  4245   0.594E-01    0.903E-01
RMM:   2    -0.413170008920E+03   -0.21577E-02   -0.10044E-01  4035   0.838E-02    0.654E-01
RMM:   3    -0.413166130023E+03    0.38789E-02   -0.23089E-02  4915   0.532E-02    0.127E-01
RMM:   4    -0.413193237930E+03   -0.27108E-01   -0.29446E-02  5139   0.144E-01    0.692E-01
RMM:   5    -0.413165208795E+03    0.28029E-01   -0.13293E-02  4813   0.115E-01    0.497E-02
RMM:   6    -0.413165405692E+03   -0.19690E-03   -0.24225E-03  5740   0.483E-02    0.355E-02
RMM:   7    -0.413165395354E+03    0.10338E-04   -0.43820E-04  5615   0.201E-02    0.223E-02
RMM:   8    -0.413165386703E+03    0.86514E-05   -0.58621E-05  5110   0.871E-03    0.103E-02
RMM:   9    -0.413165385139E+03    0.15639E-05   -0.11560E-05  3721   0.380E-03    0.753E-03
RMM:  10    -0.413165385472E+03   -0.33297E-06   -0.21004E-06  2566   0.235E-03
    6 T=    61. E= -.41286689E+03 F= -.41316539E+03 E0= -.41314292E+03  EK= 0.29850E+00 SP= 0.00E+00 SK= 0.00E+00
       N       E                     dE             d eps       ncg     rms          rms(c)
RMM:   1    -0.413167594982E+03   -0.22098E-02   -0.80680E+00  4257   0.600E-01    0.898E-01
RMM:   2    -0.413169682255E+03   -0.20873E-02   -0.99956E-02  4261   0.842E-02    0.648E-01
RMM:   3    -0.413172423583E+03   -0.27413E-02   -0.27225E-02  5146   0.910E-02    0.363E-01
RMM:   4    -0.413185449814E+03   -0.13026E-01   -0.36787E-02  5079   0.165E-01    0.589E-01
RMM:   5    -0.413165153049E+03    0.20297E-01   -0.74027E-03  4664   0.966E-02    0.579E-02
RMM:   6    -0.413165156630E+03   -0.35815E-05   -0.15268E-03  5395   0.396E-02    0.327E-02
RMM:   7    -0.413165166308E+03   -0.96776E-05   -0.31596E-04  5910   0.164E-02    0.192E-02
RMM:   8    -0.413165159153E+03    0.71550E-05   -0.53322E-05  5104   0.858E-03    0.771E-03
RMM:   9    -0.413165156251E+03    0.29022E-05   -0.63860E-06  3164   0.331E-03    0.395E-03
RMM:  10    -0.413165155994E+03    0.25715E-06   -0.15312E-06  2526   0.208E-03
    7 T=    61. E= -.41286668E+03 F= -.41316516E+03 E0= -.41314271E+03  EK= 0.29847E+00 SP= 0.00E+00 SK= 0.00E+00
       N       E                     dE             d eps       ncg     rms          rms(c)
RMM:   1    -0.413167821679E+03   -0.26654E-02   -0.81050E+00  4265   0.604E-01    0.885E-01
RMM:   2    -0.413170848885E+03   -0.30272E-02   -0.10041E-01  4101   0.863E-02    0.652E-01
RMM:   3    -0.413167005585E+03    0.38433E-02   -0.24491E-02  4964   0.604E-02    0.162E-01
RMM:   4    -0.413198347590E+03   -0.31342E-01   -0.36074E-02  5130   0.159E-01    0.747E-01
RMM:   5    -0.413165567996E+03    0.32780E-01   -0.15260E-02  4794   0.124E-01    0.520E-02
RMM:   6    -0.413165778158E+03   -0.21016E-03   -0.27030E-03  5723   0.517E-02    0.354E-02
RMM:   7    -0.413165775731E+03    0.24277E-05   -0.47382E-04  5714   0.201E-02    0.225E-02
RMM:   8    -0.413165770421E+03    0.53101E-05   -0.63081E-05  5204   0.881E-03    0.101E-02
RMM:   9    -0.413165769615E+03    0.80549E-06   -0.11950E-05  3786   0.388E-03    0.705E-03
RMM:  10    -0.413165772115E+03   -0.25003E-05   -0.21080E-06  2577   0.230E-03    0.423E-03
RMM:  11    -0.413165774126E+03   -0.20108E-05   -0.11014E-06  2515   0.169E-03    0.239E-03
RMM:  12    -0.413165777504E+03   -0.33779E-05   -0.17761E-06  2578   0.193E-03    0.108E-03
RMM:  13    -0.413165778962E+03   -0.14576E-05   -0.73422E-07  2430   0.136E-03    0.897E-04
RMM:  14    -0.413165778724E+03    0.23735E-06   -0.26008E-07  1936   0.879E-04
    8 T=    61. E= -.41286699E+03 F= -.41316578E+03 E0= -.41314335E+03  EK= 0.29879E+00 SP= 0.00E+00 SK= 0.00E+00
       N       E                     dE             d eps       ncg     rms          rms(c)
RMM:   1    -0.413168335688E+03   -0.25567E-02   -0.81345E+00  4281   0.607E-01    0.900E-01
RMM:   2    -0.413170981114E+03   -0.26454E-02   -0.10043E-01  4123   0.850E-02    0.656E-01
RMM:   3    -0.413166734633E+03    0.42465E-02   -0.23644E-02  4879   0.572E-02    0.134E-01
RMM:   4    -0.413194647468E+03   -0.27913E-01   -0.30585E-02  5131   0.146E-01    0.703E-01
RMM:   5    -0.413165732100E+03    0.28915E-01   -0.13714E-02  4797   0.116E-01    0.496E-02
RMM:   6    -0.413165931927E+03   -0.19983E-03   -0.24710E-03  5738   0.487E-02    0.351E-02
RMM:   7    -0.413165924700E+03    0.72275E-05   -0.43427E-04  5625   0.200E-02    0.222E-02
RMM:   8    -0.413165916013E+03    0.86869E-05   -0.60216E-05  5096   0.881E-03    0.104E-02
RMM:   9    -0.413165914063E+03    0.19499E-05   -0.11882E-05  3757   0.387E-03    0.754E-03
RMM:  10    -0.413165914542E+03   -0.47935E-06   -0.20851E-06  2569   0.234E-03
    9 T=    61. E= -.41286686E+03 F= -.41316591E+03 E0= -.41314351E+03  EK= 0.29905E+00 SP= 0.00E+00 SK= 0.00E+00
       N       E                     dE             d eps       ncg     rms          rms(c)
RMM:   1    -0.413168538539E+03   -0.26245E-02   -0.81064E+00  4290   0.622E-01    0.904E-01
RMM:   2    -0.413170789547E+03   -0.22510E-02   -0.10031E-01  4303   0.855E-02    0.650E-01
RMM:   3    -0.413173353292E+03   -0.25637E-02   -0.27295E-02  5148   0.920E-02    0.366E-01
RMM:   4    -0.413186002167E+03   -0.12649E-01   -0.36714E-02  5076   0.165E-01    0.585E-01
RMM:   5    -0.413165975161E+03    0.20027E-01   -0.72678E-03  4662   0.957E-02    0.576E-02
RMM:   6    -0.413165978225E+03   -0.30644E-05   -0.15208E-03  5417   0.393E-02    0.330E-02
RMM:   7    -0.413165986078E+03   -0.78525E-05   -0.31095E-04  5874   0.165E-02    0.193E-02
RMM:   8    -0.413165979870E+03    0.62084E-05   -0.53048E-05  5091   0.854E-03    0.771E-03
RMM:   9    -0.413165976164E+03    0.37060E-05   -0.62359E-06  3139   0.328E-03    0.399E-03
RMM:  10    -0.413165974956E+03    0.12080E-05   -0.15272E-06  2522   0.208E-03    0.246E-03
RMM:  11    -0.413165973156E+03    0.17995E-05   -0.11133E-06  2501   0.167E-03    0.129E-03
RMM:  12    -0.413165971221E+03    0.19352E-05   -0.73400E-07  2459   0.135E-03    0.550E-04
RMM:  13    -0.413165970017E+03    0.12043E-05   -0.37145E-07  2075   0.989E-04    0.324E-04
RMM:  14    -0.413165968743E+03    0.12732E-05   -0.22795E-07  1590   0.790E-04    0.210E-04
RMM:  15    -0.413165966446E+03    0.22973E-05   -0.27458E-07  1630   0.785E-04    0.210E-04
RMM:  16    -0.413165964454E+03    0.19923E-05   -0.18236E-07  1345   0.689E-04    0.158E-04
RMM:  17    -0.413165962728E+03    0.17256E-05   -0.13691E-07  1249   0.645E-04    0.739E-05
RMM:  18    -0.413165961329E+03    0.13988E-05   -0.92107E-08  1073   0.599E-04    0.457E-05
RMM:  19    -0.413165960819E+03    0.51020E-06   -0.41379E-08   820   0.542E-04
   10 T=    61. E= -.41286660E+03 F= -.41316596E+03 E0= -.41314358E+03  EK= 0.29936E+00 SP= 0.00E+00 SK= 0.00E+00
       N       E                     dE             d eps       ncg     rms          rms(c)
RMM:   1    -0.413168770341E+03   -0.28090E-02   -0.81044E+00  4288   0.616E-01    0.886E-01
RMM:   2    -0.413171605450E+03   -0.28351E-02   -0.10048E-01  4200   0.841E-02    0.651E-01
RMM:   3    -0.413167947080E+03    0.36584E-02   -0.23950E-02  4958   0.590E-02    0.158E-01
RMM:   4    -0.413199441734E+03   -0.31495E-01   -0.36220E-02  5127   0.159E-01    0.748E-01
RMM:   5    -0.413166540473E+03    0.32901E-01   -0.15386E-02  4785   0.124E-01    0.519E-02
RMM:   6    -0.413166755432E+03   -0.21496E-03   -0.27303E-03  5715   0.515E-02    0.359E-02
RMM:   7    -0.413166750909E+03    0.45230E-05   -0.47130E-04  5621   0.202E-02    0.226E-02
RMM:   8    -0.413166744790E+03    0.61192E-05   -0.64281E-05  5209   0.898E-03    0.102E-02
RMM:   9    -0.413166743289E+03    0.15004E-05   -0.12635E-05  3877   0.399E-03    0.714E-03
RMM:  10    -0.413166744903E+03   -0.16138E-05   -0.21256E-06  2582   0.230E-03    0.428E-03
RMM:  11    -0.413166746104E+03   -0.12006E-05   -0.10267E-06  2498   0.164E-03    0.248E-03
RMM:  12    -0.413166748151E+03   -0.20471E-05   -0.15917E-06  2548   0.190E-03    0.112E-03
RMM:  13    -0.413166748905E+03   -0.75442E-06   -0.66337E-07  2409   0.135E-03
   11 T=    61. E= -.41286683E+03 F= -.41316675E+03 E0= -.41314439E+03  EK= 0.29992E+00 SP= 0.00E+00 SK= 0.00E+00
       N       E                     dE             d eps       ncg     rms          rms(c)
RMM:   1    -0.413168969603E+03   -0.22215E-02   -0.81706E+00  4287   0.622E-01    0.897E-01
RMM:   2    -0.413171490303E+03   -0.25207E-02   -0.10124E-01  4207   0.842E-02    0.657E-01
RMM:   3    -0.413167578141E+03    0.39122E-02   -0.24121E-02  4902   0.562E-02    0.139E-01
RMM:   4    -0.413195777914E+03   -0.28200E-01   -0.31175E-02  5125   0.148E-01    0.707E-01
RMM:   5    -0.413166524746E+03    0.29253E-01   -0.13850E-02  4791   0.117E-01    0.494E-02
RMM:   6    -0.413166721431E+03   -0.19668E-03   -0.24887E-03  5757   0.487E-02    0.342E-02
RMM:   7    -0.413166716312E+03    0.51186E-05   -0.41956E-04  5650   0.198E-02    0.219E-02
RMM:   8    -0.413166706687E+03    0.96256E-05   -0.62741E-05  5041   0.901E-03    0.105E-02
RMM:   9    -0.413166705104E+03    0.15822E-05   -0.12512E-05  3812   0.401E-03    0.761E-03
RMM:  10    -0.413166706056E+03   -0.95171E-06   -0.20932E-06  2566   0.234E-03
   12 T=    61. E= -.41286652E+03 F= -.41316671E+03 E0= -.41314437E+03  EK= 0.30019E+00 SP= 0.00E+00 SK= 0.00E+00
       N       E                     dE             d eps       ncg     rms          rms(c)
RMM:   1    -0.413170101708E+03   -0.33966E-02   -0.81531E+00  4301   0.636E-01    0.909E-01
RMM:   2    -0.413171705789E+03   -0.16041E-02   -0.10108E-01  4315   0.860E-02    0.653E-01
RMM:   3    -0.413174956461E+03   -0.32507E-02   -0.27491E-02  5150   0.930E-02    0.371E-01
RMM:   4    -0.413187203836E+03   -0.12247E-01   -0.36963E-02  5070   0.165E-01    0.583E-01
RMM:   5    -0.413167331826E+03    0.19872E-01   -0.71425E-03  4646   0.953E-02    0.573E-02
RMM:   6    -0.413167339075E+03   -0.72496E-05   -0.15156E-03  5399   0.390E-02    0.332E-02
RMM:   7    -0.413167345237E+03   -0.61616E-05   -0.30692E-04  5836   0.166E-02    0.192E-02
RMM:   8    -0.413167337039E+03    0.81984E-05   -0.52369E-05  5067   0.859E-03    0.765E-03
RMM:   9    -0.413167332116E+03    0.49227E-05   -0.62284E-06  3121   0.329E-03    0.399E-03
RMM:  10    -0.413167330002E+03    0.21143E-05   -0.15323E-06  2515   0.207E-03    0.245E-03
RMM:  11    -0.413167327074E+03    0.29277E-05   -0.10681E-06  2492   0.165E-03    0.128E-03
RMM:  12    -0.413167324155E+03    0.29185E-05   -0.69933E-07  2451   0.134E-03    0.546E-04
RMM:  13    -0.413167322415E+03    0.17404E-05   -0.35534E-07  2062   0.982E-04    0.330E-04
RMM:  14    -0.413167320744E+03    0.16708E-05   -0.20985E-07  1569   0.778E-04    0.215E-04
RMM:  15    -0.413167317521E+03    0.32233E-05   -0.24282E-07  1594   0.780E-04    0.212E-04
RMM:  16    -0.413167314989E+03    0.25317E-05   -0.16197E-07  1305   0.678E-04    0.155E-04
RMM:  17    -0.413167312806E+03    0.21827E-05   -0.11916E-07  1236   0.644E-04    0.748E-05
RMM:  18    -0.413167311094E+03    0.17124E-05   -0.81204E-08  1057   0.593E-04    0.496E-05
RMM:  19    -0.413167310409E+03    0.68553E-06   -0.38362E-08   818   0.543E-04
   13 T=    61. E= -.41286671E+03 F= -.41316731E+03 E0= -.41314501E+03  EK= 0.30060E+00 SP= 0.00E+00 SK= 0.00E+00
       N       E                     dE             d eps       ncg     rms          rms(c)
RMM:   1    -0.413170065554E+03   -0.27545E-02   -0.81153E+00  4291   0.629E-01    0.888E-01
RMM:   2    -0.413172726259E+03   -0.26607E-02   -0.10067E-01  4224   0.855E-02    0.649E-01
RMM:   3    -0.413169206062E+03    0.35202E-02   -0.23478E-02  4966   0.594E-02    0.160E-01
RMM:   4    -0.413201480851E+03   -0.32275E-01   -0.37487E-02  5112   0.162E-01    0.757E-01
RMM:   5    -0.413167737385E+03    0.33743E-01   -0.15721E-02  4777   0.125E-01    0.527E-02
RMM:   6    -0.413167947041E+03   -0.20966E-03   -0.27952E-03  5712   0.521E-02    0.363E-02
RMM:   7    -0.413167940900E+03    0.61408E-05   -0.48119E-04  5623   0.204E-02    0.230E-02
RMM:   8    -0.413167933641E+03    0.72592E-05   -0.67017E-05  5228   0.911E-03    0.104E-02
RMM:   9    -0.413167930963E+03    0.26783E-05   -0.12885E-05  3895   0.404E-03    0.721E-03
RMM:  10    -0.413167930971E+03   -0.85784E-08   -0.21689E-06  2571   0.232E-03
   14 T=    61. E= -.41286690E+03 F= -.41316793E+03 E0= -.41314566E+03  EK= 0.30103E+00 SP= 0.00E+00 SK= 0.00E+00
       N       E                     dE             d eps       ncg     rms          rms(c)
RMM:   1    -0.413170105838E+03   -0.21749E-02   -0.82065E+00  4298   0.636E-01    0.895E-01
RMM:   2    -0.413173230520E+03   -0.31247E-02   -0.10167E-01  4319   0.890E-02    0.659E-01
RMM:   3    -0.413176745812E+03   -0.35153E-02   -0.30064E-02  5133   0.997E-02    0.398E-01
RMM:   4    -0.413187794449E+03   -0.11049E-01   -0.38493E-02  5054   0.169E-01    0.583E-01
RMM:   5    -0.413167969161E+03    0.19825E-01   -0.71576E-03  4624   0.962E-02    0.563E-02
RMM:   6    -0.413167980339E+03   -0.11179E-04   -0.15085E-03  5367   0.382E-02    0.316E-02
RMM:   7    -0.413168001988E+03   -0.21648E-04   -0.29678E-04  5853   0.162E-02    0.185E-02
RMM:   8    -0.413168001156E+03    0.83212E-06   -0.51567E-05  5055   0.844E-03    0.737E-03
RMM:   9    -0.413167999969E+03    0.11873E-05   -0.58137E-06  3046   0.324E-03    0.384E-03
RMM:  10    -0.413168001105E+03   -0.11364E-05   -0.14243E-06  2505   0.201E-03    0.236E-03
RMM:  11    -0.413168002356E+03   -0.12509E-05   -0.10606E-06  2490   0.163E-03    0.125E-03
RMM:  12    -0.413168002860E+03   -0.50376E-06   -0.66363E-07  2435   0.130E-03
   15 T=    61. E= -.41286663E+03 F= -.41316800E+03 E0= -.41314577E+03  EK= 0.30138E+00 SP= 0.00E+00 SK= 0.00E+00
       N       E                     dE             d eps       ncg     rms          rms(c)
RMM:   1    -0.413172139332E+03   -0.41370E-02   -0.82016E+00  4295   0.651E-01    0.911E-01
RMM:   2    -0.413173916752E+03   -0.17774E-02   -0.10233E-01  4250   0.875E-02    0.655E-01
RMM:   3    -0.413170241959E+03    0.36748E-02   -0.22724E-02  4968   0.581E-02    0.153E-01
RMM:   4    -0.413203424296E+03   -0.33182E-01   -0.38060E-02  5122   0.163E-01    0.765E-01
RMM:   5    -0.413168891187E+03    0.34533E-01   -0.16165E-02  4780   0.127E-01    0.533E-02
RMM:   6    -0.413169098907E+03   -0.20772E-03   -0.29213E-03  5730   0.531E-02    0.374E-02
RMM:   7    -0.413169087578E+03    0.11329E-04   -0.49800E-04  5671   0.210E-02    0.238E-02
RMM:   8    -0.413169074705E+03    0.12873E-04   -0.70804E-05  5208   0.942E-03    0.111E-02
RMM:   9    -0.413169068987E+03    0.57187E-05   -0.13481E-05  3938   0.417E-03    0.770E-03
RMM:  10    -0.413169065055E+03    0.39318E-05   -0.23178E-06  2591   0.241E-03    0.457E-03
RMM:  11    -0.413169062569E+03    0.24858E-05   -0.11514E-06  2509   0.173E-03    0.268E-03
RMM:  12    -0.413169057413E+03    0.51557E-05   -0.18600E-06  2574   0.206E-03    0.120E-03
RMM:  13    -0.413169054082E+03    0.33319E-05   -0.74739E-07  2436   0.145E-03    0.995E-04
RMM:  14    -0.413169054129E+03   -0.47770E-07   -0.28051E-07  2026   0.931E-04
   16 T=    62. E= -.41286692E+03 F= -.41316905E+03 E0= -.41314686E+03  EK= 0.30213E+00 SP= 0.00E+00 SK= 0.00E+00
       N       E                     dE             d eps       ncg     rms          rms(c)
RMM:   1    -0.413171652797E+03   -0.25987E-02   -0.81539E+00  4294   0.643E-01    0.893E-01
RMM:   2    -0.413174311839E+03   -0.26590E-02   -0.10112E-01  4247   0.845E-02    0.650E-01
RMM:   3    -0.413170420997E+03    0.38908E-02   -0.22781E-02  4926   0.549E-02    0.137E-01
RMM:   4    -0.413200336128E+03   -0.29915E-01   -0.33278E-02  5121   0.152E-01    0.726E-01
RMM:   5    -0.413169356235E+03    0.30980E-01   -0.14675E-02  4784   0.120E-01    0.507E-02
RMM:   6    -0.413169544499E+03   -0.18826E-03   -0.26264E-03  5753   0.501E-02    0.354E-02
RMM:   7    -0.413169532126E+03    0.12373E-04   -0.44354E-04  5616   0.202E-02    0.225E-02
RMM:   8    -0.413169518485E+03    0.13641E-04   -0.66214E-05  5103   0.914E-03    0.108E-02
RMM:   9    -0.413169513730E+03    0.47547E-05   -0.12814E-05  3874   0.408E-03    0.775E-03
RMM:  10    -0.413169511141E+03    0.25893E-05   -0.21731E-06  2575   0.237E-03    0.459E-03
RMM:  11    -0.413169509428E+03    0.17131E-05   -0.12055E-06  2507   0.177E-03    0.260E-03
RMM:  12    -0.413169506115E+03    0.33128E-05   -0.17553E-06  2556   0.203E-03    0.117E-03
RMM:  13    -0.413169503978E+03    0.21373E-05   -0.62227E-07  2388   0.137E-03    0.897E-04
RMM:  14    -0.413169503974E+03    0.35652E-08   -0.25935E-07  1972   0.889E-04
   17 T=    62. E= -.41286672E+03 F= -.41316950E+03 E0= -.41314734E+03  EK= 0.30278E+00 SP= 0.00E+00 SK= 0.00E+00
       N       E                     dE             d eps       ncg     rms          rms(c)
RMM:   1    -0.413172094999E+03   -0.25910E-02   -0.82526E+00  4293   0.649E-01    0.894E-01
RMM:   2    -0.413174919324E+03   -0.28243E-02   -0.10266E-01  4251   0.849E-02    0.659E-01
RMM:   3    -0.413170999079E+03    0.39202E-02   -0.24539E-02  4903   0.580E-02    0.148E-01
RMM:   4    -0.413200795526E+03   -0.29796E-01   -0.33391E-02  5109   0.153E-01    0.726E-01
RMM:   5    -0.413169829987E+03    0.30966E-01   -0.14658E-02  4787   0.120E-01    0.503E-02
RMM:   6    -0.413170020426E+03   -0.19044E-03   -0.26192E-03  5743   0.498E-02    0.345E-02
RMM:   7    -0.413170012881E+03    0.75444E-05   -0.43769E-04  5622   0.200E-02    0.222E-02
RMM:   8    -0.413170004093E+03    0.87887E-05   -0.65157E-05  5086   0.902E-03    0.105E-02
RMM:   9    -0.413170001558E+03    0.25351E-05   -0.12689E-05  3855   0.406E-03    0.751E-03
RMM:  10    -0.413170001923E+03   -0.36546E-06   -0.20967E-06  2567   0.233E-03
   18 T=    62. E= -.41286655E+03 F= -.41317000E+03 E0= -.41314788E+03  EK= 0.30345E+00 SP= 0.00E+00 SK= 0.00E+00
       N       E                     dE             d eps       ncg     rms          rms(c)
RMM:   1    -0.413173573474E+03   -0.35719E-02   -0.82586E+00  4301   0.654E-01    0.911E-01
RMM:   2    -0.413175813674E+03   -0.22402E-02   -0.10263E-01  4339   0.878E-02    0.658E-01
RMM:   3    -0.413179227188E+03   -0.34135E-02   -0.28141E-02  5135   0.964E-02    0.382E-01
RMM:   4    -0.413191016166E+03   -0.11789E-01   -0.37683E-02  5057   0.167E-01    0.583E-01
RMM:   5    -0.413171119223E+03    0.19897E-01   -0.70204E-03  4632   0.954E-02    0.569E-02
RMM:   6    -0.413171129949E+03   -0.10726E-04   -0.15598E-03  5410   0.386E-02    0.330E-02
RMM:   7    -0.413171131626E+03   -0.16771E-05   -0.30676E-04  5826   0.166E-02    0.192E-02
RMM:   8    -0.413171124190E+03    0.74363E-05   -0.52049E-05  5053   0.856E-03    0.766E-03
RMM:   9    -0.413171119170E+03    0.50192E-05   -0.62086E-06  3115   0.330E-03    0.402E-03
RMM:  10    -0.413171116689E+03    0.24815E-05   -0.14937E-06  2513   0.207E-03    0.244E-03
RMM:  11    -0.413171113374E+03    0.33149E-05   -0.10005E-06  2478   0.163E-03    0.126E-03
RMM:  12    -0.413171109715E+03    0.36589E-05   -0.67438E-07  2446   0.133E-03    0.521E-04
RMM:  13    -0.413171107483E+03    0.22325E-05   -0.33848E-07  2055   0.974E-04    0.318E-04
RMM:  14    -0.413171105491E+03    0.19913E-05   -0.19247E-07  1534   0.764E-04    0.208E-04
RMM:  15    -0.413171101392E+03    0.40997E-05   -0.20712E-07  1562   0.761E-04    0.219E-04
RMM:  16    -0.413171098415E+03    0.29770E-05   -0.12758E-07  1205   0.651E-04    0.161E-04
RMM:  17    -0.413171095755E+03    0.26592E-05   -0.10085E-07  1154   0.628E-04    0.732E-05
RMM:  18    -0.413171093377E+03    0.23787E-05   -0.73804E-08  1034   0.598E-04    0.485E-05
RMM:  19    -0.413171092586E+03    0.79110E-06   -0.32801E-08   797   0.550E-04
   19 T=    62. E= -.41286680E+03 F= -.41317109E+03 E0= -.41314902E+03  EK= 0.30429E+00 SP= 0.00E+00 SK= 0.00E+00
       N       E                     dE             d eps       ncg     rms          rms(c)
RMM:   1    -0.413174123612E+03   -0.30302E-02   -0.82235E+00  4294   0.671E-01    0.901E-01
RMM:   2    -0.413176113557E+03   -0.19899E-02   -0.10276E-01  4253   0.910E-02    0.652E-01
RMM:   3    -0.413172760230E+03    0.33533E-02   -0.22568E-02  4958   0.599E-02    0.155E-01
RMM:   4    -0.413206075349E+03   -0.33315E-01   -0.38320E-02  5115   0.163E-01    0.767E-01
RMM:   5    -0.413171380393E+03    0.34695E-01   -0.16299E-02  4784   0.127E-01    0.534E-02
RMM:   6    -0.413171577112E+03   -0.19672E-03   -0.29097E-03  5725   0.532E-02    0.372E-02
RMM:   7    -0.413171567370E+03    0.97424E-05   -0.49953E-04  5628   0.211E-02    0.236E-02
RMM:   8    -0.413171556659E+03    0.10711E-04   -0.71950E-05  5211   0.959E-03    0.110E-02
RMM:   9    -0.413171551276E+03    0.53826E-05   -0.14005E-05  3990   0.421E-03    0.757E-03
RMM:  10    -0.413171548002E+03    0.32743E-05   -0.23157E-06  2587   0.241E-03    0.454E-03
RMM:  11    -0.413171546004E+03    0.19982E-05   -0.10703E-06  2500   0.168E-03    0.271E-03
RMM:  12    -0.413171541806E+03    0.41984E-05   -0.17151E-06  2549   0.203E-03    0.122E-03
RMM:  13    -0.413171539023E+03    0.27829E-05   -0.73650E-07  2421   0.144E-03    0.100E-03
RMM:  14    -0.413171538977E+03    0.45744E-07   -0.28575E-07  2046   0.938E-04
   20 T=    62. E= -.41286663E+03 F= -.41317154E+03 E0= -.41314951E+03  EK= 0.30491E+00 SP= 0.00E+00 SK= 0.00E+00
       N       E                     dE             d eps       ncg     rms          rms(c)
RMM:   1    -0.413174810529E+03   -0.32715E-02   -0.82963E+00  4293   0.667E-01    0.893E-01
RMM:   2    -0.413177619462E+03   -0.28089E-02   -0.10363E-01  4261   0.896E-02    0.659E-01
RMM:   3    -0.413173651541E+03    0.39679E-02   -0.24164E-02  4912   0.568E-02    0.142E-01
RMM:   4    -0.413203052361E+03   -0.29401E-01   -0.32787E-02  5115   0.151E-01    0.721E-01
RMM:   5    -0.413172526779E+03    0.30526E-01   -0.14546E-02  4787   0.120E-01    0.501E-02
RMM:   6    -0.413172708067E+03   -0.18129E-03   -0.25786E-03  5763   0.497E-02    0.339E-02
RMM:   7    -0.413172709322E+03   -0.12551E-05   -0.42633E-04  5623   0.199E-02    0.219E-02
RMM:   8    -0.413172701179E+03    0.81425E-05   -0.68103E-05  5077   0.916E-03    0.107E-02
RMM:   9    -0.413172697660E+03    0.35195E-05   -0.13115E-05  3912   0.413E-03    0.769E-03
RMM:  10    -0.413172697173E+03    0.48651E-06   -0.21118E-06  2567   0.234E-03
   21 T=    62. E= -.41286684E+03 F= -.41317270E+03 E0= -.41315071E+03  EK= 0.30585E+00 SP= 0.00E+00 SK= 0.00E+00
       N       E                     dE             d eps       ncg     rms          rms(c)
RMM:   1    -0.413178564026E+03   -0.58664E-02   -0.83554E+00  4304   0.693E-01    0.910E-01
RMM:   2    -0.413178713515E+03   -0.14949E-03   -0.10478E-01  4351   0.905E-02    0.662E-01
RMM:   3    -0.413181787667E+03   -0.30742E-02   -0.28170E-02  5127   0.957E-02    0.379E-01
RMM:   4    -0.413194984131E+03   -0.13196E-01   -0.39199E-02  5061   0.170E-01    0.600E-01
RMM:   5    -0.413173832392E+03    0.21152E-01   -0.76056E-03  4634   0.984E-02    0.568E-02
RMM:   6    -0.413173850137E+03   -0.17745E-04   -0.16442E-03  5400   0.400E-02    0.329E-02
RMM:   7    -0.413173853528E+03   -0.33916E-05   -0.32097E-04  5831   0.167E-02    0.196E-02
RMM:   8    -0.413173845820E+03    0.77082E-05   -0.55032E-05  5084   0.866E-03    0.783E-03
RMM:   9    -0.413173840633E+03    0.51872E-05   -0.64528E-06  3149   0.336E-03    0.407E-03
RMM:  10    -0.413173838253E+03    0.23797E-05   -0.15306E-06  2521   0.208E-03    0.252E-03
RMM:  11    -0.413173835134E+03    0.31189E-05   -0.10123E-06  2482   0.164E-03    0.131E-03
RMM:  12    -0.413173831603E+03    0.35316E-05   -0.67492E-07  2448   0.133E-03    0.511E-04
RMM:  13    -0.413173829478E+03    0.21253E-05   -0.33436E-07  2054   0.970E-04    0.310E-04
RMM:  14    -0.413173827455E+03    0.20227E-05   -0.18782E-07  1539   0.761E-04    0.198E-04
RMM:  15    -0.413173823553E+03    0.39015E-05   -0.17794E-07  1483   0.736E-04    0.198E-04
RMM:  16    -0.413173820731E+03    0.28228E-05   -0.10953E-07  1160   0.645E-04    0.159E-04
RMM:  17    -0.413173818058E+03    0.26728E-05   -0.89748E-08  1150   0.625E-04    0.743E-05
RMM:  18    -0.413173815673E+03    0.23843E-05   -0.63909E-08  1010   0.594E-04    0.401E-05
RMM:  19    -0.413173814539E+03    0.11349E-05   -0.31945E-08   814   0.556E-04    0.317E-05
RMM:  20    -0.413173814057E+03    0.48197E-06   -0.17632E-08   732   0.543E-04
   22 T=    62. E= -.41286696E+03 F= -.41317381E+03 E0= -.41315187E+03  EK= 0.30685E+00 SP= 0.00E+00 SK= 0.00E+00
       N       E                     dE             d eps       ncg     rms          rms(c)
RMM:   1    -0.413178393085E+03   -0.45785E-02   -0.83290E+00  4294   0.703E-01    0.910E-01
RMM:   2    -0.413179372007E+03   -0.97892E-03   -0.10742E-01  4279   0.912E-02    0.657E-01
RMM:   3    -0.413175572436E+03    0.37996E-02   -0.21981E-02  4920   0.603E-02    0.149E-01
RMM:   4    -0.413209952963E+03   -0.34381E-01   -0.39060E-02  5113   0.165E-01    0.777E-01
RMM:   5    -0.413174292214E+03    0.35661E-01   -0.16864E-02  4782   0.129E-01    0.537E-02
RMM:   6    -0.413174492364E+03   -0.20015E-03   -0.29941E-03  5730   0.539E-02    0.376E-02
RMM:   7    -0.413174484936E+03    0.74279E-05   -0.50768E-04  5626   0.213E-02    0.239E-02
RMM:   8    -0.413174474475E+03    0.10461E-04   -0.75060E-05  5221   0.976E-03    0.113E-02
RMM:   9    -0.413174468073E+03    0.64020E-05   -0.14556E-05  4031   0.432E-03    0.781E-03
RMM:  10    -0.413174463652E+03    0.44214E-05   -0.23746E-06  2593   0.244E-03    0.471E-03
RMM:  11    -0.413174460793E+03    0.28589E-05   -0.11253E-06  2505   0.173E-03    0.279E-03
RMM:  12    -0.413174455046E+03    0.57470E-05   -0.18399E-06  2569   0.208E-03    0.123E-03
RMM:  13    -0.413174451314E+03    0.37313E-05   -0.73268E-07  2415   0.145E-03    0.102E-03
RMM:  14    -0.413174451402E+03   -0.87421E-07   -0.28633E-07  2041   0.941E-04
   23 T=    63. E= -.41286669E+03 F= -.41317445E+03 E0= -.41315256E+03  EK= 0.30776E+00 SP= 0.00E+00 SK= 0.00E+00
       N       E                     dE             d eps       ncg     rms          rms(c)
RMM:   1    -0.413177936692E+03   -0.34854E-02   -0.83550E+00  4294   0.675E-01    0.895E-01
RMM:   2    -0.413181386130E+03   -0.34494E-02   -0.10417E-01  4283   0.897E-02    0.659E-01
RMM:   3    -0.413176878549E+03    0.45076E-02   -0.23693E-02  4860   0.605E-02    0.135E-01
RMM:   4    -0.413205442369E+03   -0.28564E-01   -0.31354E-02  5121   0.148E-01    0.710E-01
RMM:   5    -0.413175846131E+03    0.29596E-01   -0.14122E-02  4788   0.118E-01    0.498E-02
RMM:   6    -0.413176030987E+03   -0.18486E-03   -0.26112E-03  5782   0.492E-02    0.336E-02
RMM:   7    -0.413176036446E+03   -0.54588E-05   -0.40118E-04  5629   0.195E-02    0.213E-02
RMM:   8    -0.413176026861E+03    0.95847E-05   -0.70837E-05  5055   0.914E-03    0.112E-02
RMM:   9    -0.413176022167E+03    0.46943E-05   -0.13416E-05  3991   0.422E-03    0.806E-03
RMM:  10    -0.413176020541E+03    0.16260E-05   -0.21450E-06  2572   0.239E-03    0.481E-03
RMM:  11    -0.413176019342E+03    0.11987E-05   -0.13066E-06  2515   0.183E-03    0.273E-03
RMM:  12    -0.413176017104E+03    0.22383E-05   -0.18226E-06  2559   0.207E-03    0.121E-03
RMM:  13    -0.413176015454E+03    0.16495E-05   -0.58158E-07  2383   0.135E-03    0.845E-04
RMM:  14    -0.413176015320E+03    0.13466E-06   -0.25380E-07  1950   0.881E-04
   24 T=    63. E= -.41286692E+03 F= -.41317602E+03 E0= -.41315417E+03  EK= 0.30910E+00 SP= 0.00E+00 SK= 0.00E+00
       N       E                     dE             d eps       ncg     rms          rms(c)
RMM:   1    -0.413179133560E+03   -0.31181E-02   -0.84319E+00  4294   0.680E-01    0.909E-01
RMM:   2    -0.413182104371E+03   -0.29708E-02   -0.10499E-01  4282   0.911E-02    0.666E-01
RMM:   3    -0.413177727200E+03    0.43772E-02   -0.23468E-02  4843   0.578E-02    0.123E-01
RMM:   4    -0.413204134941E+03   -0.26408E-01   -0.28421E-02  5119   0.141E-01    0.682E-01
RMM:   5    -0.413176887993E+03    0.27247E-01   -0.13058E-02  4790   0.114E-01    0.490E-02
RMM:   6    -0.413177043406E+03   -0.15541E-03   -0.23985E-03  5796   0.472E-02    0.328E-02
RMM:   7    -0.413177043901E+03   -0.49491E-06   -0.36577E-04  5619   0.189E-02    0.204E-02
RMM:   8    -0.413177033184E+03    0.10717E-04   -0.66770E-05  5011   0.896E-03    0.110E-02
RMM:   9    -0.413177027888E+03    0.52958E-05   -0.12816E-05  3922   0.415E-03    0.800E-03
RMM:  10    -0.413177025204E+03    0.26839E-05   -0.20747E-06  2570   0.239E-03    0.475E-03
RMM:  11    -0.413177022952E+03    0.22527E-05   -0.14502E-06  2524   0.193E-03    0.255E-03
RMM:  12    -0.413177019486E+03    0.34652E-05   -0.16243E-06  2540   0.198E-03    0.110E-03
RMM:  13    -0.413177017624E+03    0.18624E-05   -0.52317E-07  2341   0.129E-03    0.701E-04
RMM:  14    -0.413177017262E+03    0.36219E-06   -0.24276E-07  1893   0.861E-04
   25 T=    63. E= -.41286664E+03 F= -.41317702E+03 E0= -.41315522E+03  EK= 0.31037E+00 SP= 0.00E+00 SK= 0.00E+00
       N       E                     dE             d eps       ncg     rms          rms(c)
RMM:   1    -0.413186668443E+03   -0.96508E-02   -0.84949E+00  4293   0.745E-01    0.920E-01
RMM:   2    -0.413182927247E+03    0.37412E-02   -0.11136E-01  4283   0.972E-02    0.662E-01
RMM:   3    -0.413178763091E+03    0.41642E-02   -0.21350E-02  4804   0.537E-02    0.103E-01
RMM:   4    -0.413202337199E+03   -0.23574E-01   -0.24663E-02  5136   0.131E-01    0.644E-01
RMM:   5    -0.413178216725E+03    0.24120E-01   -0.11845E-02  4800   0.107E-01    0.486E-02
RMM:   6    -0.413178347872E+03   -0.13115E-03   -0.21538E-03  5815   0.446E-02    0.331E-02
RMM:   7    -0.413178341860E+03    0.60123E-05   -0.33032E-04  5590   0.186E-02    0.196E-02
RMM:   8    -0.413178330481E+03    0.11379E-04   -0.61215E-05  4968   0.874E-03    0.108E-02
RMM:   9    -0.413178323999E+03    0.64819E-05   -0.11786E-05  3807   0.402E-03    0.798E-03
RMM:  10    -0.413178318798E+03    0.52008E-05   -0.20788E-06  2567   0.244E-03    0.466E-03
RMM:  11    -0.413178313648E+03    0.51501E-05   -0.15813E-06  2535   0.202E-03    0.240E-03
RMM:  12    -0.413178307059E+03    0.65887E-05   -0.14921E-06  2527   0.192E-03    0.102E-03
RMM:  13    -0.413178304221E+03    0.28389E-05   -0.50750E-07  2327   0.125E-03    0.649E-04
RMM:  14    -0.413178303364E+03    0.85685E-06   -0.24239E-07  1882   0.855E-04
   26 T=    63. E= -.41286653E+03 F= -.41317830E+03 E0= -.41315656E+03  EK= 0.31177E+00 SP= 0.00E+00 SK= 0.00E+00
       N       E                     dE             d eps       ncg     rms          rms(c)
RMM:   1    -0.413182531966E+03   -0.42277E-02   -0.84475E+00  4292   0.713E-01    0.901E-01
RMM:   2    -0.413184933546E+03   -0.24016E-02   -0.10598E-01  4274   0.965E-02    0.661E-01
RMM:   3    -0.413180623898E+03    0.43096E-02   -0.22922E-02  4746   0.565E-02    0.106E-01
RMM:   4    -0.413201403141E+03   -0.20779E-01   -0.21735E-02  5132   0.124E-01    0.607E-01
RMM:   5    -0.413180040582E+03    0.21363E-01   -0.10449E-02  4799   0.100E-01    0.468E-02
RMM:   6    -0.413180161004E+03   -0.12042E-03   -0.19049E-03  5822   0.416E-02    0.312E-02
RMM:   7    -0.413180158885E+03    0.21189E-05   -0.29413E-04  5584   0.176E-02    0.185E-02
RMM:   8    -0.413180150066E+03    0.88192E-05   -0.54422E-05  4934   0.822E-03    0.102E-02
RMM:   9    -0.413180145242E+03    0.48241E-05   -0.10106E-05  3637   0.378E-03    0.745E-03
RMM:  10    -0.413180142548E+03    0.26934E-05   -0.18742E-06  2539   0.232E-03    0.430E-03
RMM:  11    -0.413180139777E+03    0.27711E-05   -0.15805E-06  2541   0.199E-03    0.214E-03
RMM:  12    -0.413180136413E+03    0.33640E-05   -0.12139E-06  2500   0.175E-03    0.974E-04
RMM:  13    -0.413180134996E+03    0.14168E-05   -0.44078E-07  2261   0.117E-03    0.610E-04
RMM:  14    -0.413180134177E+03    0.81956E-06   -0.21092E-07  1786   0.819E-04
   27 T=    64. E= -.41286687E+03 F= -.41318013E+03 E0= -.41315844E+03  EK= 0.31327E+00 SP= 0.00E+00 SK= 0.00E+00
       N       E                     dE             d eps       ncg     rms          rms(c)
RMM:   1    -0.413183249534E+03   -0.31145E-02   -0.85529E+00  4294   0.706E-01    0.911E-01
RMM:   2    -0.413186243704E+03   -0.29942E-02   -0.10763E-01  4274   0.982E-02    0.670E-01
RMM:   3    -0.413181684703E+03    0.45590E-02   -0.23863E-02  4747   0.580E-02    0.111E-01
RMM:   4    -0.413202954391E+03   -0.21270E-01   -0.22302E-02  5137   0.126E-01    0.614E-01
RMM:   5    -0.413181046580E+03    0.21908E-01   -0.10666E-02  4801   0.101E-01    0.468E-02
RMM:   6    -0.413181173296E+03   -0.12672E-03   -0.19388E-03  5825   0.419E-02    0.313E-02
RMM:   7    -0.413181175157E+03   -0.18609E-05   -0.29800E-04  5582   0.177E-02    0.187E-02
RMM:   8    -0.413181168045E+03    0.71112E-05   -0.55162E-05  4936   0.830E-03    0.102E-02
RMM:   9    -0.413181163878E+03    0.41678E-05   -0.10203E-05  3645   0.380E-03    0.741E-03
RMM:  10    -0.413181162100E+03    0.17775E-05   -0.18972E-06  2539   0.234E-03    0.425E-03
RMM:  11    -0.413181160211E+03    0.18888E-05   -0.15691E-06  2537   0.199E-03    0.211E-03
RMM:  12    -0.413181157750E+03    0.24615E-05   -0.12277E-06  2491   0.178E-03    0.100E-03
RMM:  13    -0.413181156602E+03    0.11479E-05   -0.45364E-07  2291   0.118E-03    0.626E-04
RMM:  14    -0.413181155879E+03    0.72276E-06   -0.21549E-07  1796   0.821E-04
   28 T=    64. E= -.41286665E+03 F= -.41318116E+03 E0= -.41315951E+03  EK= 0.31450E+00 SP= 0.00E+00 SK= 0.00E+00
       N       E                     dE             d eps       ncg     rms          rms(c)
RMM:   1    -0.413192888897E+03   -0.11732E-01   -0.86366E+00  4290   0.799E-01    0.927E-01
RMM:   2    -0.413188270497E+03    0.46184E-02   -0.11244E-01  4273   0.104E-01    0.668E-01
RMM:   3    -0.413183586301E+03    0.46842E-02   -0.21679E-02  4677   0.540E-02    0.879E-02
RMM:   4    -0.413199708603E+03   -0.16122E-01   -0.16521E-02  5136   0.108E-01    0.535E-01
RMM:   5    -0.413183243326E+03    0.16465E-01   -0.82059E-03  4812   0.880E-02    0.459E-02
RMM:   6    -0.413183320863E+03   -0.77538E-04   -0.15399E-03  5833   0.364E-02    0.296E-02
RMM:   7    -0.413183312020E+03    0.88430E-05   -0.18849E-04  5523   0.147E-02    0.144E-02
RMM:   8    -0.413183305332E+03    0.66877E-05   -0.29706E-05  4671   0.592E-03    0.912E-03
RMM:   9    -0.413183300511E+03    0.48213E-05   -0.70128E-06  3307   0.308E-03    0.681E-03
RMM:  10    -0.413183296131E+03    0.43795E-05   -0.15566E-06  2519   0.217E-03    0.391E-03
RMM:  11    -0.413183290363E+03    0.57683E-05   -0.16741E-06  2547   0.202E-03    0.197E-03
RMM:  12    -0.413183284221E+03    0.61421E-05   -0.10983E-06  2479   0.170E-03    0.110E-03
RMM:  13    -0.413183282305E+03    0.19157E-05   -0.39960E-07  2240   0.112E-03    0.638E-04
RMM:  14    -0.413183281162E+03    0.11431E-05   -0.18629E-07  1718   0.780E-04    0.483E-04
RMM:  15    -0.413183276087E+03    0.50753E-05   -0.23104E-07  2193   0.856E-04    0.546E-04
RMM:  16    -0.413183272257E+03    0.38304E-05   -0.11087E-07  1405   0.661E-04    0.483E-04
RMM:  17    -0.413183271091E+03    0.11656E-05   -0.34677E-08   842   0.528E-04    0.383E-04
RMM:  18    -0.413183267885E+03    0.32064E-05   -0.53163E-08   967   0.581E-04    0.134E-04
RMM:  19    -0.413183264987E+03    0.28971E-05   -0.42886E-08  1021   0.593E-04    0.839E-05
RMM:  20    -0.413183264323E+03    0.66466E-06   -0.25708E-08   910   0.562E-04
   29 T=    64. E= -.41286705E+03 F= -.41318326E+03 E0= -.41316167E+03  EK= 0.31622E+00 SP= 0.00E+00 SK= 0.00E+00
       N       E                     dE             d eps       ncg     rms          rms(c)
RMM:   1    -0.413187823830E+03   -0.45588E-02   -0.85594E+00  4290   0.738E-01    0.909E-01
RMM:   2    -0.413190407628E+03   -0.25838E-02   -0.10860E-01  4269   0.106E-01    0.664E-01
RMM:   3    -0.413185570463E+03    0.48372E-02   -0.22428E-02  4686   0.611E-02    0.978E-02
RMM:   4    -0.413205007872E+03   -0.19437E-01   -0.20039E-02  5129   0.119E-01    0.587E-01
RMM:   5    -0.413185078328E+03    0.19930E-01   -0.98752E-03  4800   0.967E-02    0.464E-02
RMM:   6    -0.413185177304E+03   -0.98976E-04   -0.17605E-03  5843   0.393E-02    0.296E-02
RMM:   7    -0.413185173531E+03    0.37736E-05   -0.20523E-04  5541   0.150E-02    0.142E-02
RMM:   8    -0.413185167674E+03    0.58565E-05   -0.29736E-05  4625   0.583E-03    0.890E-03
RMM:   9    -0.413185164158E+03    0.35166E-05   -0.75778E-06  3369   0.314E-03    0.637E-03
RMM:  10    -0.413185162304E+03    0.18539E-05   -0.17318E-06  2546   0.216E-03    0.405E-03
RMM:  11    -0.413185158938E+03    0.33653E-05   -0.18484E-06  2572   0.211E-03    0.208E-03
RMM:  12    -0.413185155118E+03    0.38208E-05   -0.12422E-06  2475   0.181E-03    0.125E-03
RMM:  13    -0.413185153922E+03    0.11958E-05   -0.40019E-07  2302   0.116E-03    0.670E-04
RMM:  14    -0.413185153256E+03    0.66576E-06   -0.17862E-07  1706   0.772E-04
   30 T=    65. E= -.41286708E+03 F= -.41318515E+03 E0= -.41316361E+03  EK= 0.31807E+00 SP= 0.00E+00 SK= 0.00E+00
       N       E                     dE             d eps       ncg     rms          rms(c)
RMM:   1    -0.413193057647E+03   -0.79037E-02   -0.87313E+00  4293   0.770E-01    0.911E-01
RMM:   2    -0.413192455641E+03    0.60201E-03   -0.12044E-01  4267   0.113E-01    0.677E-01
RMM:   3    -0.413187202512E+03    0.52531E-02   -0.22548E-02  4623   0.638E-02    0.895E-02
RMM:   4    -0.413203685114E+03   -0.16483E-01   -0.16776E-02  5134   0.109E-01    0.541E-01
RMM:   5    -0.413186815898E+03    0.16869E-01   -0.84179E-03  4807   0.890E-02    0.449E-02
RMM:   6    -0.413186901663E+03   -0.85765E-04   -0.15259E-03  5841   0.365E-02    0.286E-02
RMM:   7    -0.413186904533E+03   -0.28705E-05   -0.19360E-04  5492   0.148E-02    0.143E-02
RMM:   8    -0.413186896263E+03    0.82701E-05   -0.27473E-05  4577   0.574E-03    0.842E-03
RMM:   9    -0.413186896240E+03    0.22686E-07   -0.82087E-06  3515   0.326E-03
   31 T=    65. E= -.41286693E+03 F= -.41318690E+03 E0= -.41316540E+03  EK= 0.31996E+00 SP= 0.00E+00 SK= 0.00E+00
       N       E                     dE             d eps       ncg     rms          rms(c)
RMM:   1    -0.413194947462E+03   -0.80512E-02   -0.87556E+00  4298   0.792E-01    0.933E-01
RMM:   2    -0.413194478122E+03    0.46934E-03   -0.11671E-01  4323   0.115E-01    0.675E-01
RMM:   3    -0.413195061812E+03   -0.58369E-03   -0.25491E-02  5056   0.975E-02    0.320E-01
RMM:   4    -0.413218495642E+03   -0.23434E-01   -0.43506E-02  5065   0.178E-01    0.701E-01
RMM:   5    -0.413189369695E+03    0.29126E-01   -0.11439E-02  4698   0.114E-01    0.583E-02
RMM:   6    -0.413189452938E+03   -0.83243E-04   -0.23860E-03  5665   0.467E-02    0.357E-02
RMM:   7    -0.413189458326E+03   -0.53881E-05   -0.41239E-04  5734   0.190E-02    0.225E-02
RMM:   8    -0.413189450220E+03    0.81065E-05   -0.73542E-05  5116   0.989E-03    0.966E-03
RMM:   9    -0.413189441731E+03    0.84894E-05   -0.10730E-05  3698   0.410E-03    0.496E-03
RMM:  10    -0.413189436778E+03    0.49520E-05   -0.22214E-06  2595   0.233E-03    0.319E-03
RMM:  11    -0.413189431178E+03    0.56009E-05   -0.11490E-06  2501   0.177E-03    0.164E-03
RMM:  12    -0.413189423913E+03    0.72644E-05   -0.86420E-07  2461   0.150E-03    0.592E-04
RMM:  13    -0.413189420279E+03    0.36342E-05   -0.43655E-07  2259   0.110E-03    0.386E-04
RMM:  14    -0.413189417854E+03    0.24245E-05   -0.23160E-07  1763   0.829E-04    0.292E-04
RMM:  15    -0.413189411004E+03    0.68508E-05   -0.19563E-07  1639   0.782E-04    0.272E-04
RMM:  16    -0.413189406954E+03    0.40499E-05   -0.10503E-07  1152   0.646E-04    0.210E-04
RMM:  17    -0.413189402555E+03    0.43984E-05   -0.86968E-08  1133   0.636E-04    0.126E-04
RMM:  18    -0.413189400204E+03    0.23510E-05   -0.60706E-08  1062   0.609E-04    0.499E-05
RMM:  19    -0.413189397273E+03    0.29311E-05   -0.55003E-08  1145   0.609E-04    0.570E-05
RMM:  20    -0.413189397070E+03    0.20288E-06   -0.20237E-08   742   0.536E-04
   32 T=    66. E= -.41286719E+03 F= -.41318940E+03 E0= -.41316795E+03  EK= 0.32221E+00 SP= 0.00E+00 SK= 0.00E+00
       N       E                     dE             d eps       ncg     rms          rms(c)
RMM:   1    -0.413200119818E+03   -0.10723E-01   -0.87872E+00  4299   0.832E-01    0.922E-01
RMM:   2    -0.413196218456E+03    0.39014E-02   -0.11982E-01  4269   0.118E-01    0.671E-01
RMM:   3    -0.413191385219E+03    0.48332E-02   -0.21304E-02  4505   0.651E-02    0.758E-02
RMM:   4    -0.413201006814E+03   -0.96216E-02   -0.97348E-03  5141   0.831E-02    0.416E-01
RMM:   5    -0.413191207213E+03    0.97996E-02   -0.49746E-03  4823   0.682E-02    0.437E-02
RMM:   6    -0.413191260342E+03   -0.53130E-04   -0.10704E-03  5795   0.300E-02    0.295E-02
RMM:   7    -0.413191255343E+03    0.49996E-05   -0.26545E-04  5337   0.166E-02    0.191E-02
RMM:   8    -0.413191237614E+03    0.17728E-04   -0.26869E-05  4571   0.656E-03    0.845E-03
RMM:   9    -0.413191235182E+03    0.24325E-05   -0.50410E-06  2945   0.281E-03    0.587E-03
RMM:  10    -0.413191231336E+03    0.38459E-05   -0.17065E-06  2522   0.214E-03    0.315E-03
RMM:  11    -0.413191227353E+03    0.39824E-05   -0.11553E-06  2485   0.177E-03    0.156E-03
RMM:  12    -0.413191223603E+03    0.37506E-05   -0.63378E-07  2381   0.134E-03    0.772E-04
RMM:  13    -0.413191221574E+03    0.20292E-05   -0.31789E-07  2017   0.958E-04    0.360E-04
RMM:  14    -0.413191219161E+03    0.24128E-05   -0.17438E-07  1579   0.756E-04    0.228E-04
RMM:  15    -0.413191215583E+03    0.35781E-05   -0.10678E-07  1270   0.674E-04    0.127E-04
RMM:  16    -0.413191212558E+03    0.30243E-05   -0.66331E-08  1026   0.628E-04    0.879E-05
RMM:  17    -0.413191209749E+03    0.28098E-05   -0.50466E-08  1012   0.611E-04    0.575E-05
RMM:  18    -0.413191206067E+03    0.36821E-05   -0.56336E-08  1131   0.618E-04    0.462E-05
RMM:  19    -0.413191205167E+03    0.89940E-06   -0.20808E-08   786   0.546E-04
   33 T=    66. E= -.41286686E+03 F= -.41319121E+03 E0= -.41316980E+03  EK= 0.32435E+00 SP= 0.00E+00 SK= 0.00E+00
       N       E                     dE             d eps       ncg     rms          rms(c)
RMM:   1    -0.413195727277E+03   -0.45212E-02   -0.88494E+00  4304   0.779E-01    0.919E-01
RMM:   2    -0.413199007428E+03   -0.32802E-02   -0.11446E-01  4256   0.118E-01    0.680E-01
RMM:   3    -0.413193747775E+03    0.52597E-02   -0.24012E-02  4395   0.735E-02    0.760E-02
RMM:   4    -0.413198268504E+03   -0.45207E-02   -0.46754E-03  5147   0.592E-02    0.291E-01
RMM:   5    -0.413193554550E+03    0.47140E-02   -0.24152E-03  4817   0.477E-02    0.414E-02
RMM:   6    -0.413193603851E+03   -0.49301E-04   -0.72419E-04  5650   0.253E-02    0.305E-02
RMM:   7    -0.413193585207E+03    0.18643E-04   -0.24697E-04  5155   0.166E-02    0.184E-02
RMM:   8    -0.413193575170E+03    0.10038E-04   -0.23710E-05  4405   0.586E-03    0.731E-03
RMM:   9    -0.413193574221E+03    0.94861E-06   -0.29726E-06  2663   0.234E-03
   34 T=    67. E= -.41286687E+03 F= -.41319357E+03 E0= -.41317222E+03  EK= 0.32670E+00 SP= 0.00E+00 SK= 0.00E+00
       N       E                     dE             d eps       ncg     rms          rms(c)
RMM:   1    -0.413204780774E+03   -0.11206E-01   -0.89713E+00  4302   0.842E-01    0.939E-01
RMM:   2    -0.413201088424E+03    0.36924E-02   -0.12044E-01  4273   0.123E-01    0.683E-01
RMM:   3    -0.413196993777E+03    0.40946E-02   -0.22543E-02  4760   0.785E-02    0.130E-01
RMM:   4    -0.413231012955E+03   -0.34019E-01   -0.36332E-02  5122   0.160E-01    0.770E-01
RMM:   5    -0.413196033971E+03    0.34979E-01   -0.17054E-02  4794   0.128E-01    0.527E-02
RMM:   6    -0.413196198341E+03   -0.16437E-03   -0.29720E-03  5820   0.512E-02    0.348E-02
RMM:   7    -0.413196209680E+03   -0.11340E-04   -0.35295E-04  5560   0.187E-02    0.178E-02
RMM:   8    -0.413196199424E+03    0.10257E-04   -0.43772E-05  4743   0.701E-03    0.974E-03
RMM:   9    -0.413196197433E+03    0.19908E-05   -0.15770E-05  4218   0.420E-03    0.789E-03
RMM:  10    -0.413196191593E+03    0.58403E-05   -0.30225E-06  2727   0.258E-03    0.481E-03
RMM:  11    -0.413196187000E+03    0.45922E-05   -0.17320E-06  2548   0.209E-03    0.276E-03
RMM:  12    -0.413196178320E+03    0.86805E-05   -0.21635E-06  2585   0.230E-03    0.130E-03
RMM:  13    -0.413196175647E+03    0.26731E-05   -0.56767E-07  2412   0.141E-03    0.799E-04
RMM:  14    -0.413196175127E+03    0.52015E-06   -0.23844E-07  2010   0.883E-04
   35 T=    67. E= -.41286701E+03 F= -.41319618E+03 E0= -.41317487E+03  EK= 0.32916E+00 SP= 0.00E+00 SK= 0.00E+00
       N       E                     dE             d eps       ncg     rms          rms(c)
RMM:   1    -0.413214577958E+03   -0.18402E-01   -0.90577E+00  4299   0.917E-01    0.937E-01
RMM:   2    -0.413202958301E+03    0.11620E-01   -0.13274E-01  4249   0.134E-01    0.680E-01
RMM:   3    -0.413198523012E+03    0.44353E-02   -0.20161E-02  4526   0.701E-02    0.870E-02
RMM:   4    -0.413211653979E+03   -0.13131E-01   -0.13245E-02  5154   0.967E-02    0.484E-01
RMM:   5    -0.413198395215E+03    0.13259E-01   -0.67657E-03  4819   0.801E-02    0.461E-02
RMM:   6    -0.413198429908E+03   -0.34693E-04   -0.13571E-03  5795   0.352E-02    0.313E-02
RMM:   7    -0.413198430659E+03   -0.75125E-06   -0.31055E-04  5390   0.179E-02    0.204E-02
RMM:   8    -0.413198410681E+03    0.19978E-04   -0.39350E-05  4898   0.745E-03    0.964E-03
RMM:   9    -0.413198407540E+03    0.31409E-05   -0.72857E-06  3191   0.336E-03    0.634E-03
RMM:  10    -0.413198401391E+03    0.61494E-05   -0.18708E-06  2547   0.234E-03    0.335E-03
RMM:  11    -0.413198395561E+03    0.58298E-05   -0.11883E-06  2485   0.182E-03    0.176E-03
RMM:  12    -0.413198388751E+03    0.68105E-05   -0.86378E-07  2454   0.154E-03    0.943E-04
RMM:  13    -0.413198385149E+03    0.36019E-05   -0.37902E-07  2145   0.106E-03    0.457E-04
RMM:  14    -0.413198382797E+03    0.23516E-05   -0.19412E-07  1642   0.784E-04    0.306E-04
RMM:  15    -0.413198377598E+03    0.51990E-05   -0.12096E-07  1317   0.703E-04    0.145E-04
RMM:  16    -0.413198372855E+03    0.47436E-05   -0.80529E-08  1112   0.652E-04    0.125E-04
RMM:  17    -0.413198369571E+03    0.32833E-05   -0.49357E-08   909   0.604E-04    0.819E-05
RMM:  18    -0.413198364150E+03    0.54213E-05   -0.65041E-08  1218   0.635E-04    0.403E-05
RMM:  19    -0.413198362624E+03    0.15260E-05   -0.25732E-08   763   0.544E-04    0.264E-05
RMM:  20    -0.413198362094E+03    0.53051E-06   -0.14592E-08   642   0.523E-04
   36 T=    67. E= -.41286686E+03 F= -.41319836E+03 E0= -.41317710E+03  EK= 0.33150E+00 SP= 0.00E+00 SK= 0.00E+00
       N       E                     dE             d eps       ncg     rms          rms(c)
RMM:   1    -0.413204064158E+03   -0.57015E-02   -0.90190E+00  4306   0.847E-01    0.926E-01
RMM:   2    -0.413206529440E+03   -0.24653E-02   -0.11912E-01  4248   0.130E-01    0.684E-01
RMM:   3    -0.413201517049E+03    0.50124E-02   -0.23454E-02  4472   0.747E-02    0.755E-02
RMM:   4    -0.413209093501E+03   -0.75765E-02   -0.77246E-03  5157   0.748E-02    0.373E-01
RMM:   5    -0.413201321904E+03    0.77716E-02   -0.39731E-03  4825   0.615E-02    0.435E-02
RMM:   6    -0.413201351842E+03   -0.29939E-04   -0.94124E-04  5677   0.299E-02    0.321E-02
RMM:   7    -0.413201344502E+03    0.73400E-05   -0.30369E-04  5235   0.178E-02    0.196E-02
RMM:   8    -0.413201332549E+03    0.11953E-04   -0.33460E-05  4921   0.679E-03    0.873E-03
RMM:   9    -0.413201331373E+03    0.11768E-05   -0.50196E-06  2878   0.272E-03    0.509E-03
RMM:  10    -0.413201329570E+03    0.18029E-05   -0.15700E-06  2516   0.209E-03    0.266E-03
RMM:  11    -0.413201327378E+03    0.21917E-05   -0.94090E-07  2469   0.158E-03    0.132E-03
RMM:  12    -0.413201324985E+03    0.23929E-05   -0.55301E-07  2310   0.122E-03    0.641E-04
RMM:  13    -0.413201323054E+03    0.19305E-05   -0.29092E-07  1934   0.902E-04    0.315E-04
RMM:  14    -0.413201321010E+03    0.20449E-05   -0.14920E-07  1379   0.716E-04    0.208E-04
RMM:  15    -0.413201317947E+03    0.30622E-05   -0.94032E-08  1090   0.656E-04    0.115E-04
RMM:  16    -0.413201315344E+03    0.26039E-05   -0.70642E-08  1055   0.633E-04    0.724E-05
RMM:  17    -0.413201313387E+03    0.19565E-05   -0.43272E-08   930   0.599E-04    0.484E-05
RMM:  18    -0.413201310096E+03    0.32907E-05   -0.53813E-08  1127   0.611E-04    0.300E-05
RMM:  19    -0.413201309247E+03    0.84904E-06   -0.19662E-08   758   0.540E-04
   37 T=    68. E= -.41286716E+03 F= -.41320131E+03 E0= -.41318009E+03  EK= 0.33415E+00 SP= 0.00E+00 SK= 0.00E+00
       N       E                     dE             d eps       ncg     rms          rms(c)
RMM:   1    -0.413210139586E+03   -0.88295E-02   -0.91552E+00  4309   0.901E-01    0.944E-01
RMM:   2    -0.413209360113E+03    0.77947E-03   -0.12126E-01  4247   0.127E-01    0.691E-01
RMM:   3    -0.413204270176E+03    0.50899E-02   -0.23090E-02  4628   0.710E-02    0.915E-02
RMM:   4    -0.413222798338E+03   -0.18528E-01   -0.18916E-02  5135   0.116E-01    0.574E-01
RMM:   5    -0.413203911755E+03    0.18887E-01   -0.94475E-03  4815   0.946E-02    0.478E-02
RMM:   6    -0.413203942638E+03   -0.30883E-04   -0.17403E-03  5806   0.395E-02    0.324E-02
RMM:   7    -0.413203952661E+03   -0.10023E-04   -0.35830E-04  5469   0.187E-02    0.212E-02
RMM:   8    -0.413203934393E+03    0.18268E-04   -0.51309E-05  5034   0.820E-03    0.100E-02
RMM:   9    -0.413203932716E+03    0.16767E-05   -0.95571E-06  3528   0.378E-03    0.657E-03
RMM:  10    -0.413203929291E+03    0.34251E-05   -0.19414E-06  2567   0.235E-03    0.354E-03
RMM:  11    -0.413203926310E+03    0.29814E-05   -0.11333E-06  2498   0.175E-03    0.193E-03
RMM:  12    -0.413203921776E+03    0.45335E-05   -0.11178E-06  2498   0.166E-03    0.101E-03
RMM:  13    -0.413203919412E+03    0.23641E-05   -0.41371E-07  2225   0.112E-03    0.523E-04
RMM:  14    -0.413203918312E+03    0.11004E-05   -0.20233E-07  1715   0.796E-04    0.359E-04
RMM:  15    -0.413203914602E+03    0.37094E-05   -0.13273E-07  1443   0.721E-04    0.152E-04
RMM:  16    -0.413203911924E+03    0.26780E-05   -0.79701E-08  1151   0.643E-04    0.132E-04
RMM:  17    -0.413203909047E+03    0.28777E-05   -0.53195E-08   988   0.608E-04    0.115E-04
RMM:  18    -0.413203905114E+03    0.39327E-05   -0.53246E-08  1055   0.609E-04    0.499E-05
RMM:  19    -0.413203903671E+03    0.14430E-05   -0.28217E-08   861   0.562E-04    0.265E-05
RMM:  20    -0.413203902927E+03    0.74344E-06   -0.17583E-08   754   0.543E-04
   38 T=    69. E= -.41286712E+03 F= -.41320390E+03 E0= -.41318272E+03  EK= 0.33679E+00 SP= 0.00E+00 SK= 0.00E+00
       N       E                     dE             d eps       ncg     rms          rms(c)
RMM:   1    -0.413222106198E+03   -0.18203E-01   -0.92761E+00  4309   0.101E+00    0.953E-01
RMM:   2    -0.413211960444E+03    0.10146E-01   -0.13388E-01  4248   0.128E-01    0.688E-01
RMM:   3    -0.413207202597E+03    0.47578E-02   -0.20856E-02  4871   0.652E-02    0.133E-01
RMM:   4    -0.413244334524E+03   -0.37132E-01   -0.39543E-02  5130   0.166E-01    0.803E-01
RMM:   5    -0.413206417231E+03    0.37917E-01   -0.18692E-02  4793   0.133E-01    0.550E-02
RMM:   6    -0.413206523566E+03   -0.10633E-03   -0.31995E-03  5821   0.529E-02    0.362E-02
RMM:   7    -0.413206530780E+03   -0.72142E-05   -0.38690E-04  5620   0.191E-02    0.189E-02
RMM:   8    -0.413206522116E+03    0.86638E-05   -0.46752E-05  4741   0.704E-03    0.979E-03
RMM:   9    -0.413206520059E+03    0.20574E-05   -0.15792E-05  4167   0.419E-03    0.727E-03
RMM:  10    -0.413206514891E+03    0.51676E-05   -0.32146E-06  2745   0.257E-03    0.440E-03
RMM:  11    -0.413206510800E+03    0.40913E-05   -0.15359E-06  2506   0.202E-03    0.263E-03
RMM:  12    -0.413206502075E+03    0.87255E-05   -0.19896E-06  2564   0.221E-03    0.127E-03
RMM:  13    -0.413206499202E+03    0.28722E-05   -0.57734E-07  2431   0.141E-03    0.812E-04
RMM:  14    -0.413206498806E+03    0.39639E-06   -0.24197E-07  2028   0.889E-04
   39 T=    69. E= -.41286706E+03 F= -.41320650E+03 E0= -.41318536E+03  EK= 0.33943E+00 SP= 0.00E+00 SK= 0.00E+00
       N       E                     dE             d eps       ncg     rms          rms(c)
RMM:   1    -0.413221394012E+03   -0.14895E-01   -0.92942E+00  4309   0.102E+00    0.937E-01
RMM:   2    -0.413215342233E+03    0.60518E-02   -0.12705E-01  4249   0.125E-01    0.690E-01
RMM:   3    -0.413210517351E+03    0.48249E-02   -0.22781E-02  4881   0.698E-02    0.140E-01
RMM:   4    -0.413248660148E+03   -0.38143E-01   -0.41698E-02  5134   0.170E-01    0.816E-01
RMM:   5    -0.413209438901E+03    0.39221E-01   -0.19051E-02  4795   0.135E-01    0.550E-02
RMM:   6    -0.413209554446E+03   -0.11554E-03   -0.32711E-03  5821   0.533E-02    0.353E-02
RMM:   7    -0.413209565698E+03   -0.11252E-04   -0.38557E-04  5641   0.189E-02    0.185E-02
RMM:   8    -0.413209558297E+03    0.74007E-05   -0.46563E-05  4722   0.694E-03    0.954E-03
RMM:   9    -0.413209554558E+03    0.37385E-05   -0.92576E-06  3255   0.342E-03    0.560E-03
RMM:  10    -0.413209551818E+03    0.27402E-05   -0.18918E-06  2546   0.211E-03    0.379E-03
RMM:  11    -0.413209547840E+03    0.39781E-05   -0.17885E-06  2523   0.213E-03    0.216E-03
RMM:  12    -0.413209541818E+03    0.60219E-05   -0.14788E-06  2503   0.196E-03    0.114E-03
RMM:  13    -0.413209539519E+03    0.22994E-05   -0.51830E-07  2359   0.129E-03    0.781E-04
RMM:  14    -0.413209538864E+03    0.65447E-06   -0.23454E-07  1912   0.858E-04
   40 T=    70. E= -.41286738E+03 F= -.41320954E+03 E0= -.41318844E+03  EK= 0.34216E+00 SP= 0.00E+00 SK= 0.00E+00
       N       E                     dE             d eps       ncg     rms          rms(c)
RMM:   1    -0.413217203252E+03   -0.76637E-02   -0.93660E+00  4308   0.101E+00    0.949E-01
RMM:   2    -0.413217588906E+03   -0.38565E-03   -0.13033E-01  4261   0.132E-01    0.700E-01
RMM:   3    -0.413213285290E+03    0.43036E-02   -0.23696E-02  4972   0.745E-02    0.181E-01
RMM:   4    -0.413257472616E+03   -0.44187E-01   -0.51602E-02  5120   0.190E-01    0.880E-01
RMM:   5    -0.413211443075E+03    0.46030E-01   -0.21712E-02  4782   0.146E-01    0.585E-02
RMM:   6    -0.413211583060E+03   -0.13999E-03   -0.37739E-03  5814   0.572E-02    0.363E-02
RMM:   7    -0.413211596585E+03   -0.13525E-04   -0.44882E-04  5718   0.200E-02    0.202E-02
RMM:   8    -0.413211598515E+03   -0.19298E-05   -0.88841E-05  5179   0.941E-03    0.128E-02
RMM:   9    -0.413211589411E+03    0.91034E-05   -0.23713E-05  4583   0.538E-03    0.766E-03
RMM:  10    -0.413211585968E+03    0.34432E-05   -0.39315E-06  2773   0.295E-03    0.450E-03
RMM:  11    -0.413211583349E+03    0.26192E-05   -0.14839E-06  2502   0.204E-03    0.276E-03
RMM:  12    -0.413211577000E+03    0.63486E-05   -0.17282E-06  2530   0.213E-03    0.117E-03
RMM:  13    -0.413211572741E+03    0.42596E-05   -0.75841E-07  2447   0.150E-03    0.816E-04
RMM:  14    -0.413211572076E+03    0.66452E-06   -0.31206E-07  2148   0.983E-04
   41 T=    70. E= -.41286706E+03 F= -.41321157E+03 E0= -.41319050E+03  EK= 0.34451E+00 SP= 0.00E+00 SK= 0.00E+00
       N       E                     dE             d eps       ncg     rms          rms(c)
RMM:   1    -0.413240445131E+03   -0.28872E-01   -0.95921E+00  4311   0.119E+00    0.966E-01
RMM:   2    -0.413219581223E+03    0.20864E-01   -0.14895E-01  4295   0.137E-01    0.699E-01
RMM:   3    -0.413216636492E+03    0.29447E-02   -0.21065E-02  5040   0.755E-02    0.235E-01
RMM:   4    -0.413262226458E+03   -0.45590E-01   -0.57783E-02  5117   0.202E-01    0.900E-01
RMM:   5    -0.413213928910E+03    0.48298E-01   -0.22160E-02  4772   0.150E-01    0.624E-02
RMM:   6    -0.413214070086E+03   -0.14118E-03   -0.39363E-03  5802   0.588E-02    0.389E-02
RMM:   7    -0.413214076587E+03   -0.65005E-05   -0.51858E-04  5723   0.215E-02    0.239E-02
RMM:   8    -0.413214075239E+03    0.13474E-05   -0.12952E-04  5242   0.116E-02    0.146E-02
RMM:   9    -0.413214060373E+03    0.14866E-04   -0.23889E-05  4569   0.596E-03    0.693E-03
RMM:  10    -0.413214054501E+03    0.58721E-05   -0.52642E-06  3004   0.303E-03    0.421E-03
RMM:  11    -0.413214050067E+03    0.44337E-05   -0.13622E-06  2505   0.199E-03    0.247E-03
RMM:  12    -0.413214040933E+03    0.91349E-05   -0.12875E-06  2483   0.191E-03    0.101E-03
RMM:  13    -0.413214034813E+03    0.61196E-05   -0.62212E-07  2410   0.137E-03    0.626E-04
RMM:  14    -0.413214033630E+03    0.11833E-05   -0.29049E-07  2074   0.947E-04    0.430E-04
RMM:  15    -0.413214031408E+03    0.22216E-05   -0.14844E-07  1541   0.731E-04    0.283E-04
RMM:  16    -0.413214022908E+03    0.84999E-05   -0.15921E-07  1810   0.769E-04    0.402E-04
RMM:  17    -0.413214021283E+03    0.16256E-05   -0.55941E-08   977   0.573E-04    0.286E-04
RMM:  18    -0.413214015414E+03    0.58689E-05   -0.64436E-08  1174   0.616E-04    0.182E-04
RMM:  19    -0.413214013862E+03    0.15514E-05   -0.35530E-08   929   0.568E-04    0.622E-05
RMM:  20    -0.413214011718E+03    0.21441E-05   -0.46136E-08  1193   0.608E-04    0.185E-04
RMM:  21    -0.413214011694E+03    0.23749E-07   -0.12978E-08   694   0.527E-04
   42 T=    71. E= -.41286716E+03 F= -.41321401E+03 E0= -.41319297E+03  EK= 0.34685E+00 SP= 0.00E+00 SK= 0.00E+00
       N       E                     dE             d eps       ncg     rms          rms(c)
RMM:   1    -0.413232952026E+03   -0.18940E-01   -0.94918E+00  4311   0.118E+00    0.947E-01
RMM:   2    -0.413221664680E+03    0.11287E-01   -0.14077E-01  4323   0.141E-01    0.696E-01
RMM:   3    -0.413220479831E+03    0.11848E-02   -0.23762E-02  5072   0.877E-02    0.289E-01
RMM:   4    -0.413256555446E+03   -0.36076E-01   -0.54330E-02  5094   0.198E-01    0.826E-01
RMM:   5    -0.413216004204E+03    0.40551E-01   -0.17323E-02  4741   0.136E-01    0.608E-02
RMM:   6    -0.413216092917E+03   -0.88713E-04   -0.32521E-03  5767   0.536E-02    0.371E-02
RMM:   7    -0.413216096004E+03   -0.30869E-05   -0.48107E-04  5693   0.207E-02    0.238E-02
RMM:   8    -0.413216092941E+03    0.30629E-05   -0.12171E-04  5208   0.116E-02    0.131E-02
RMM:   9    -0.413216081704E+03    0.11237E-04   -0.18225E-05  4346   0.550E-03    0.583E-03
RMM:  10    -0.413216078291E+03    0.34135E-05   -0.41791E-06  2835   0.272E-03    0.358E-03
RMM:  11    -0.413216075395E+03    0.28958E-05   -0.12437E-06  2497   0.187E-03    0.199E-03
RMM:  12    -0.413216069829E+03    0.55656E-05   -0.10381E-06  2478   0.169E-03    0.825E-04
RMM:  13    -0.413216066152E+03    0.36770E-05   -0.49471E-07  2325   0.121E-03    0.435E-04
RMM:  14    -0.413216064856E+03    0.12961E-05   -0.24948E-07  1895   0.869E-04    0.307E-04
RMM:  15    -0.413216062024E+03    0.28317E-05   -0.14128E-07  1430   0.717E-04    0.144E-04
RMM:  16    -0.413216058103E+03    0.39209E-05   -0.10116E-07  1209   0.670E-04    0.136E-04
RMM:  17    -0.413216055606E+03    0.24973E-05   -0.63033E-08  1043   0.624E-04    0.884E-05
RMM:  18    -0.413216052791E+03    0.28155E-05   -0.51902E-08  1068   0.618E-04    0.593E-05
RMM:  19    -0.413216050076E+03    0.27145E-05   -0.47065E-08  1133   0.606E-04    0.336E-05
RMM:  20    -0.413216049395E+03    0.68145E-06   -0.21264E-08   798   0.546E-04
   43 T=    71. E= -.41286719E+03 F= -.41321605E+03 E0= -.41319504E+03  EK= 0.34886E+00 SP= 0.00E+00 SK= 0.00E+00
       N       E                     dE             d eps       ncg     rms          rms(c)
RMM:   1    -0.413228946576E+03   -0.12896E-01   -0.95618E+00  4313   0.121E+00    0.950E-01
RMM:   2    -0.413223170338E+03    0.57762E-02   -0.14316E-01  4345   0.149E-01    0.708E-01
RMM:   3    -0.413222744542E+03    0.42580E-03   -0.25645E-02  5063   0.949E-02    0.318E-01
RMM:   4    -0.413256884982E+03   -0.34140E-01   -0.55454E-02  5083   0.201E-01    0.816E-01
RMM:   5    -0.413217236441E+03    0.39649E-01   -0.16473E-02  4724   0.134E-01    0.609E-02
RMM:   6    -0.413217308141E+03   -0.71701E-04   -0.31137E-03  5747   0.525E-02    0.358E-02
RMM:   7    -0.413217314081E+03   -0.59395E-05   -0.46033E-04  5698   0.204E-02    0.234E-02
RMM:   8    -0.413217311530E+03    0.25511E-05   -0.12091E-04  5187   0.117E-02    0.125E-02
RMM:   9    -0.413217301501E+03    0.10029E-04   -0.17605E-05  4319   0.547E-03    0.534E-03
RMM:  10    -0.413217299201E+03    0.23002E-05   -0.39732E-06  2814   0.264E-03    0.332E-03
RMM:  11    -0.413217297033E+03    0.21678E-05   -0.12218E-06  2495   0.184E-03    0.180E-03
RMM:  12    -0.413217292977E+03    0.40560E-05   -0.95886E-07  2475   0.159E-03    0.752E-04
RMM:  13    -0.413217290190E+03    0.27876E-05   -0.45769E-07  2228   0.114E-03    0.372E-04
RMM:  14    -0.413217288753E+03    0.14366E-05   -0.23362E-07  1768   0.834E-04    0.247E-04
RMM:  15    -0.413217285255E+03    0.34984E-05   -0.15826E-07  1393   0.731E-04    0.142E-04
RMM:  16    -0.413217282897E+03    0.23574E-05   -0.98420E-08  1174   0.660E-04    0.112E-04
RMM:  17    -0.413217280685E+03    0.22116E-05   -0.70648E-08  1093   0.631E-04    0.747E-05
RMM:  18    -0.413217277948E+03    0.27373E-05   -0.62311E-08  1172   0.626E-04    0.431E-05
RMM:  19    -0.413217275767E+03    0.21816E-05   -0.43738E-08  1052   0.591E-04    0.304E-05
RMM:  20    -0.413217275192E+03    0.57460E-06   -0.21144E-08   784   0.544E-04
   44 T=    71. E= -.41286696E+03 F= -.41321728E+03 E0= -.41319629E+03  EK= 0.35031E+00 SP= 0.00E+00 SK= 0.00E+00
       N       E                     dE             d eps       ncg     rms          rms(c)
RMM:   1    -0.413243576114E+03   -0.26300E-01   -0.96761E+00  4311   0.134E+00    0.971E-01
RMM:   2    -0.413223922492E+03    0.19654E-01   -0.15110E-01  4361   0.159E-01    0.706E-01
RMM:   3    -0.413226084485E+03   -0.21620E-02   -0.25388E-02  5080   0.104E-01    0.380E-01
RMM:   4    -0.413249786629E+03   -0.23702E-01   -0.50356E-02  5069   0.193E-01    0.728E-01
RMM:   5    -0.413218514117E+03    0.31273E-01   -0.12095E-02  4695   0.120E-01    0.607E-02
RMM:   6    -0.413218532600E+03   -0.18483E-04   -0.24361E-03  5676   0.471E-02    0.361E-02
RMM:   7    -0.413218530571E+03    0.20295E-05   -0.41427E-04  5640   0.196E-02    0.236E-02
RMM:   8    -0.413218523500E+03    0.70714E-05   -0.12021E-04  5117   0.118E-02    0.118E-02
RMM:   9    -0.413218511467E+03    0.12033E-04   -0.15295E-05  4243   0.542E-03    0.484E-03
RMM:  10    -0.413218507310E+03    0.41566E-05   -0.34551E-06  2771   0.250E-03    0.293E-03
RMM:  11    -0.413218502630E+03    0.46805E-05   -0.11610E-06  2489   0.179E-03    0.157E-03
RMM:  12    -0.413218495992E+03    0.66381E-05   -0.73955E-07  2440   0.144E-03    0.670E-04
RMM:  13    -0.413218492132E+03    0.38591E-05   -0.35337E-07  2063   0.102E-03    0.312E-04
RMM:  14    -0.413218489261E+03    0.28718E-05   -0.19491E-07  1608   0.791E-04    0.197E-04
RMM:  15    -0.413218483290E+03    0.59710E-05   -0.14146E-07  1373   0.728E-04    0.143E-04
RMM:  16    -0.413218480814E+03    0.24756E-05   -0.83564E-08  1140   0.653E-04    0.905E-05
RMM:  17    -0.413218476628E+03    0.41858E-05   -0.75835E-08  1257   0.650E-04    0.537E-05
RMM:  18    -0.413218473489E+03    0.31389E-05   -0.53549E-08  1136   0.607E-04    0.400E-05
RMM:  19    -0.413218471494E+03    0.19957E-05   -0.35589E-08   992   0.569E-04    0.237E-05
RMM:  20    -0.413218471097E+03    0.39609E-06   -0.18786E-08   750   0.531E-04
   45 T=    72. E= -.41286724E+03 F= -.41321847E+03 E0= -.41319751E+03  EK= 0.35123E+00 SP= 0.00E+00 SK= 0.00E+00
       N       E                     dE             d eps       ncg     rms          rms(c)
RMM:   1    -0.413240224575E+03   -0.21753E-01   -0.95657E+00  4312   0.141E+00    0.954E-01
RMM:   2    -0.413223469355E+03    0.16755E-01   -0.14772E-01  4380   0.169E-01    0.699E-01
RMM:   3    -0.413228024252E+03   -0.45549E-02   -0.27471E-02  5091   0.115E-01    0.434E-01
RMM:   4    -0.413243189573E+03   -0.15165E-01   -0.47078E-02  5047   0.188E-01    0.656E-01
RMM:   5    -0.413217898955E+03    0.25291E-01   -0.89747E-03  4651   0.108E-01    0.590E-02
RMM:   6    -0.413217886025E+03    0.12931E-04   -0.19510E-03  5586   0.423E-02    0.339E-02
RMM:   7    -0.413217889501E+03   -0.34768E-05   -0.34880E-04  5577   0.183E-02    0.223E-02
RMM:   8    -0.413217881205E+03    0.82960E-05   -0.12182E-04  5088   0.118E-02    0.110E-02
RMM:   9    -0.413217869739E+03    0.11467E-04   -0.14054E-05  4160   0.529E-03    0.452E-03
RMM:  10    -0.413217866160E+03    0.35785E-05   -0.29182E-06  2704   0.236E-03    0.265E-03
RMM:  11    -0.413217861600E+03    0.45597E-05   -0.11231E-06  2485   0.175E-03    0.139E-03
RMM:  12    -0.413217855847E+03    0.57530E-05   -0.67051E-07  2412   0.137E-03    0.667E-04
RMM:  13    -0.413217852266E+03    0.35808E-05   -0.31518E-07  1937   0.966E-04    0.299E-04
RMM:  14    -0.413217849149E+03    0.31178E-05   -0.17758E-07  1500   0.757E-04    0.174E-04
RMM:  15    -0.413217843736E+03    0.54128E-05   -0.13329E-07  1295   0.712E-04    0.128E-04
RMM:  16    -0.413217841230E+03    0.25060E-05   -0.84091E-08  1153   0.651E-04    0.867E-05
RMM:  17    -0.413217836062E+03    0.51674E-05   -0.89580E-08  1423   0.671E-04    0.648E-05
RMM:  18    -0.413217833996E+03    0.20663E-05   -0.45556E-08  1010   0.572E-04    0.372E-05
RMM:  19    -0.413217832331E+03    0.16648E-05   -0.33007E-08   926   0.551E-04    0.206E-05
RMM:  20    -0.413217831894E+03    0.43781E-06   -0.18791E-08   742   0.520E-04
   46 T=    71. E= -.41286702E+03 F= -.41321783E+03 E0= -.41319689E+03  EK= 0.35081E+00 SP= 0.00E+00 SK= 0.00E+00
       N       E                     dE             d eps       ncg     rms          rms(c)
RMM:   1    -0.413230620461E+03   -0.12788E-01   -0.95102E+00  4312   0.142E+00    0.945E-01
RMM:   2    -0.413222309816E+03    0.83106E-02   -0.14572E-01  4411   0.175E-01    0.707E-01
RMM:   3    -0.413229105177E+03   -0.67954E-02   -0.30861E-02  5086   0.127E-01    0.481E-01
RMM:   4    -0.413239573892E+03   -0.10469E-01   -0.47836E-02  5037   0.192E-01    0.628E-01
RMM:   5    -0.413216344517E+03    0.23229E-01   -0.77918E-03  4619   0.104E-01    0.580E-02
RMM:   6    -0.413216305342E+03    0.39175E-04   -0.17017E-03  5496   0.398E-02    0.313E-02
RMM:   7    -0.413216307220E+03   -0.18778E-05   -0.30217E-04  5581   0.172E-02    0.210E-02
RMM:   8    -0.413216299163E+03    0.80574E-05   -0.12336E-04  5081   0.117E-02    0.104E-02
RMM:   9    -0.413216289131E+03    0.10032E-04   -0.13297E-05  4081   0.525E-03    0.431E-03
RMM:  10    -0.413216286867E+03    0.22643E-05   -0.28553E-06  2695   0.231E-03    0.248E-03
RMM:  11    -0.413216283598E+03    0.32691E-05   -0.11666E-06  2489   0.175E-03    0.128E-03
RMM:  12    -0.413216279878E+03    0.37203E-05   -0.65297E-07  2386   0.133E-03    0.661E-04
RMM:  13    -0.413216277196E+03    0.26816E-05   -0.31732E-07  1860   0.945E-04    0.301E-04
RMM:  14    -0.413216274552E+03    0.26438E-05   -0.18381E-07  1412   0.752E-04    0.166E-04
RMM:  15    -0.413216270843E+03    0.37096E-05   -0.14651E-07  1340   0.714E-04    0.114E-04
RMM:  16    -0.413216268678E+03    0.21651E-05   -0.92126E-08  1173   0.650E-04    0.843E-05
RMM:  17    -0.413216264368E+03    0.43092E-05   -0.99428E-08  1397   0.675E-04    0.592E-05
RMM:  18    -0.413216262730E+03    0.16383E-05   -0.48475E-08  1012   0.570E-04    0.364E-05
RMM:  19    -0.413216261530E+03    0.12001E-05   -0.32592E-08   890   0.543E-04    0.220E-05
RMM:  20    -0.413216260824E+03    0.70535E-06   -0.21498E-08   797   0.530E-04
   47 T=    71. E= -.41286711E+03 F= -.41321626E+03 E0= -.41319533E+03  EK= 0.34915E+00 SP= 0.00E+00 SK= 0.00E+00
       N       E                     dE             d eps       ncg     rms          rms(c)
RMM:   1    -0.413239270337E+03   -0.23009E-01   -0.95119E+00  4310   0.158E+00    0.958E-01
RMM:   2    -0.413219093129E+03    0.20177E-01   -0.15833E-01  4473   0.190E-01    0.705E-01
RMM:   3    -0.413231615469E+03   -0.12522E-01   -0.32706E-02  5120   0.141E-01    0.579E-01
RMM:   4    -0.413229735503E+03    0.18800E-02   -0.44913E-02  5001   0.189E-01    0.530E-01
RMM:   5    -0.413213475473E+03    0.16260E-01   -0.51311E-03  4564   0.929E-02    0.580E-02
RMM:   6    -0.413213389250E+03    0.86223E-04   -0.10203E-03  5151   0.332E-02    0.308E-02
RMM:   7    -0.413213385796E+03    0.34542E-05   -0.21051E-04  5551   0.144E-02    0.175E-02
RMM:   8    -0.413213385494E+03    0.30249E-06   -0.12702E-04  5191   0.116E-02    0.120E-02
RMM:   9    -0.413213369763E+03    0.15730E-04   -0.18333E-05  4414   0.583E-03    0.445E-03
RMM:  10    -0.413213366860E+03    0.29031E-05   -0.34353E-06  2769   0.244E-03    0.244E-03
RMM:  11    -0.413213361291E+03    0.55687E-05   -0.13615E-06  2460   0.191E-03    0.129E-03
RMM:  12    -0.413213357224E+03    0.40678E-05   -0.60945E-07  2359   0.135E-03    0.762E-04
RMM:  13    -0.413213353050E+03    0.41733E-05   -0.29217E-07  1827   0.954E-04    0.369E-04
RMM:  14    -0.413213348708E+03    0.43422E-05   -0.15532E-07  1414   0.739E-04    0.197E-04
RMM:  15    -0.413213344609E+03    0.40987E-05   -0.99890E-08  1143   0.664E-04    0.121E-04
RMM:  16    -0.413213341648E+03    0.29617E-05   -0.71914E-08  1108   0.626E-04    0.100E-04
RMM:  17    -0.413213337447E+03    0.42003E-05   -0.70250E-08  1243   0.624E-04    0.584E-05
RMM:  18    -0.413213334628E+03    0.28192E-05   -0.37758E-08   918   0.556E-04    0.462E-05
RMM:  19    -0.413213333755E+03    0.87308E-06   -0.18927E-08   695   0.513E-04
   48 T=    70. E= -.41286734E+03 F= -.41321333E+03 E0= -.41319241E+03  EK= 0.34599E+00 SP= 0.00E+00 SK= 0.00E+00
       N       E                     dE             d eps       ncg     rms          rms(c)
RMM:   1    -0.413240020718E+03   -0.26686E-01   -0.93613E+00  4305   0.171E+00    0.945E-01
RMM:   2    -0.413213246318E+03    0.26774E-01   -0.16142E-01  4546   0.201E-01    0.694E-01
RMM:   3    -0.413232144864E+03   -0.18899E-01   -0.36245E-02  5142   0.156E-01    0.668E-01
RMM:   4    -0.413219282540E+03    0.12862E-01   -0.43044E-02  4970   0.187E-01    0.447E-01
RMM:   5    -0.413208066443E+03    0.11216E-01   -0.39987E-03  4541   0.870E-02    0.598E-02
RMM:   6    -0.413207933592E+03    0.13285E-03   -0.58094E-04  4799   0.290E-02    0.313E-02
RMM:   7    -0.413207929270E+03    0.43226E-05   -0.22479E-04  5837   0.153E-02    0.163E-02
RMM:   8    -0.413207919707E+03    0.95631E-05   -0.91842E-05  5193   0.107E-02    0.113E-02
RMM:   9    -0.413207911091E+03    0.86152E-05   -0.17388E-05  4447   0.532E-03    0.446E-03
RMM:  10    -0.413207907303E+03    0.37888E-05   -0.26734E-06  2673   0.252E-03    0.243E-03
RMM:  11    -0.413207901230E+03    0.60724E-05   -0.15699E-06  2487   0.206E-03    0.156E-03
RMM:  12    -0.413207897357E+03    0.38730E-05   -0.60665E-07  2419   0.140E-03    0.898E-04
RMM:  13    -0.413207892998E+03    0.43589E-05   -0.31230E-07  2095   0.978E-04    0.499E-04
RMM:  14    -0.413207886700E+03    0.62979E-05   -0.21656E-07  1780   0.822E-04    0.405E-04
RMM:  15    -0.413207882642E+03    0.40584E-05   -0.10313E-07  1112   0.630E-04    0.170E-04
RMM:  16    -0.413207880021E+03    0.26213E-05   -0.73847E-08  1102   0.603E-04    0.971E-05
RMM:  17    -0.413207875182E+03    0.48387E-05   -0.78015E-08  1258   0.631E-04    0.127E-04
RMM:  18    -0.413207873825E+03    0.13565E-05   -0.35600E-08   906   0.549E-04    0.101E-04
[...]
RMM:  16    -0.413160867705E+03   -0.22941E-05   -0.24077E-07  1491   0.716E-04    0.154E-04
RMM:  17    -0.413160869311E+03   -0.16063E-05   -0.19878E-07  1350   0.677E-04    0.861E-05
RMM:  18    -0.413160869797E+03   -0.48560E-06   -0.91717E-08  1046   0.576E-04
  136 T=    60. E= -.41286757E+03 F= -.41316087E+03 E0= -.41314013E+03  EK= 0.29330E+00 SP= 0.00E+00 SK= 0.00E+00
       N       E                     dE             d eps       ncg     rms          rms(c)
RMM:   1    -0.413161806283E+03   -0.93697E-03   -0.80308E+00  4264   0.725E-01    0.863E-01
RMM:   2    -0.413164915246E+03   -0.31090E-02   -0.94667E-02  4299   0.871E-02    0.627E-01
RMM:   3    -0.413162164601E+03    0.27506E-02   -0.19973E-02  5002   0.594E-02    0.160E-01
RMM:   4    -0.413192549109E+03   -0.30385E-01   -0.36358E-02  5125   0.160E-01    0.736E-01
RMM:   5    -0.413160813482E+03    0.31736E-01   -0.14816E-02  4784   0.123E-01    0.571E-02
RMM:   6    -0.413160850392E+03   -0.36910E-04   -0.27053E-03  5654   0.494E-02    0.327E-02
RMM:   7    -0.413160881603E+03   -0.31210E-04   -0.41695E-04  5860   0.177E-02    0.192E-02
RMM:   8    -0.413160886277E+03   -0.46743E-05   -0.62327E-05  5284   0.850E-03    0.901E-03
RMM:   9    -0.413160888461E+03   -0.21838E-05   -0.97104E-06  3449   0.367E-03    0.484E-03
RMM:  10    -0.413160894729E+03   -0.62682E-05   -0.26098E-06  2628   0.228E-03    0.308E-03
RMM:  11    -0.413160900164E+03   -0.54345E-05   -0.12119E-06  2500   0.173E-03    0.158E-03
RMM:  12    -0.413160906094E+03   -0.59309E-05   -0.10690E-06  2502   0.151E-03    0.667E-04
RMM:  13    -0.413160908357E+03   -0.22623E-05   -0.45450E-07  2190   0.107E-03    0.404E-04
RMM:  14    -0.413160909741E+03   -0.13842E-05   -0.24613E-07  1706   0.824E-04    0.253E-04
RMM:  15    -0.413160911927E+03   -0.21857E-05   -0.23284E-07  1555   0.779E-04    0.163E-04
RMM:  16    -0.413160913569E+03   -0.16429E-05   -0.18899E-07  1381   0.714E-04    0.145E-04
RMM:  17    -0.413160914138E+03   -0.56899E-06   -0.10038E-07  1114   0.622E-04
  137 T=    60. E= -.41286738E+03 F= -.41316091E+03 E0= -.41314019E+03  EK= 0.29354E+00 SP= 0.00E+00 SK= 0.00E+00
       N       E                     dE             d eps       ncg     rms          rms(c)
RMM:   1    -0.413161155798E+03   -0.24223E-03   -0.82698E+00  4264   0.746E-01    0.871E-01
RMM:   2    -0.413164270160E+03   -0.31144E-02   -0.96758E-02  4300   0.887E-02    0.619E-01
RMM:   3    -0.413161586335E+03    0.26838E-02   -0.16880E-02  4967   0.527E-02    0.130E-01
RMM:   4    -0.413190883458E+03   -0.29297E-01   -0.32837E-02  5134   0.151E-01    0.717E-01
RMM:   5    -0.413160781066E+03    0.30102E-01   -0.14412E-02  4800   0.119E-01    0.563E-02
RMM:   6    -0.413160821887E+03   -0.40821E-04   -0.26359E-03  5669   0.487E-02    0.341E-02
RMM:   7    -0.413160838995E+03   -0.17108E-04   -0.42290E-04  5827   0.178E-02    0.192E-02
RMM:   8    -0.413160838112E+03    0.88345E-06   -0.58542E-05  5271   0.828E-03    0.900E-03
RMM:   9    -0.413160837615E+03    0.49651E-06   -0.94040E-06  3406   0.356E-03
  138 T=    60. E= -.41286733E+03 F= -.41316084E+03 E0= -.41314012E+03  EK= 0.29350E+00 SP= 0.00E+00 SK= 0.00E+00
       N       E                     dE             d eps       ncg     rms          rms(c)
RMM:   1    -0.413160313622E+03    0.52449E-03   -0.84855E+00  4265   0.751E-01    0.850E-01
RMM:   2    -0.413164869120E+03   -0.45555E-02   -0.99469E-02  4321   0.891E-02    0.617E-01
RMM:   3    -0.413166198647E+03   -0.13295E-02   -0.18717E-02  5146   0.778E-02    0.295E-01
RMM:   4    -0.413184829346E+03   -0.18631E-01   -0.36571E-02  5073   0.163E-01    0.632E-01
RMM:   5    -0.413161603563E+03    0.23226E-01   -0.95503E-03  4717   0.106E-01    0.645E-02
RMM:   6    -0.413161471940E+03    0.13162E-03   -0.17657E-03  5329   0.424E-02    0.303E-02
RMM:   7    -0.413161521463E+03   -0.49523E-04   -0.39229E-04  6008   0.182E-02    0.198E-02
RMM:   8    -0.413161523439E+03   -0.19760E-05   -0.74505E-05  5356   0.968E-03    0.920E-03
RMM:   9    -0.413161526818E+03   -0.33792E-05   -0.14845E-05  4386   0.468E-03    0.418E-03
RMM:  10    -0.413161530559E+03   -0.37410E-05   -0.16345E-06  2562   0.206E-03    0.272E-03
RMM:  11    -0.413161538672E+03   -0.81131E-05   -0.16014E-06  2525   0.195E-03    0.157E-03
RMM:  12    -0.413161545076E+03   -0.64034E-05   -0.94014E-07  2495   0.145E-03    0.690E-04
RMM:  13    -0.413161547992E+03   -0.29161E-05   -0.41655E-07  1956   0.969E-04    0.384E-04
RMM:  14    -0.413161550994E+03   -0.30025E-05   -0.33255E-07  1713   0.849E-04    0.230E-04
RMM:  15    -0.413161553257E+03   -0.22626E-05   -0.26552E-07  1528   0.765E-04    0.169E-04
RMM:  16    -0.413161554871E+03   -0.16139E-05   -0.22992E-07  1473   0.725E-04    0.137E-04
RMM:  17    -0.413161555907E+03   -0.10360E-05   -0.19718E-07  1334   0.673E-04    0.879E-05
RMM:  18    -0.413161556217E+03   -0.30974E-06   -0.91634E-08  1022   0.582E-04
  139 T=    60. E= -.41286756E+03 F= -.41316156E+03 E0= -.41314085E+03  EK= 0.29399E+00 SP= 0.00E+00 SK= 0.00E+00
       N       E                     dE             d eps       ncg     rms          rms(c)
RMM:   1    -0.413159414730E+03    0.21412E-02   -0.88115E+00  4264   0.767E-01    0.858E-01
RMM:   2    -0.413164730616E+03   -0.53159E-02   -0.10300E-01  4296   0.906E-02    0.623E-01
RMM:   3    -0.413161732838E+03    0.29978E-02   -0.14243E-02  4863   0.472E-02    0.930E-02
RMM:   4    -0.413181949685E+03   -0.20217E-01   -0.21248E-02  5129   0.122E-01    0.596E-01
RMM:   5    -0.413161416986E+03    0.20533E-01   -0.10122E-02  4808   0.989E-02    0.489E-02
RMM:   6    -0.413161437175E+03   -0.20189E-04   -0.18107E-03  5682   0.408E-02    0.313E-02
RMM:   7    -0.413161456015E+03   -0.18840E-04   -0.31417E-04  5707   0.154E-02    0.158E-02
RMM:   8    -0.413161461208E+03   -0.51927E-05   -0.42443E-05  5047   0.700E-03    0.768E-03
RMM:   9    -0.413161463710E+03   -0.25017E-05   -0.63300E-06  3093   0.299E-03    0.444E-03
RMM:  10    -0.413161470733E+03   -0.70234E-05   -0.19251E-06  2547   0.207E-03    0.260E-03
RMM:  11    -0.413161476881E+03   -0.61478E-05   -0.10880E-06  2497   0.159E-03    0.118E-03
RMM:  12    -0.413161482099E+03   -0.52184E-05   -0.81576E-07  2397   0.132E-03    0.558E-04
RMM:  13    -0.413161484634E+03   -0.25348E-05   -0.39649E-07  2012   0.973E-04    0.312E-04
RMM:  14    -0.413161485838E+03   -0.12039E-05   -0.20407E-07  1488   0.769E-04    0.203E-04
RMM:  15    -0.413161488150E+03   -0.23121E-05   -0.24538E-07  1519   0.780E-04    0.146E-04
RMM:  16    -0.413161489188E+03   -0.10383E-05   -0.14389E-07  1268   0.678E-04    0.112E-04
RMM:  17    -0.413161489487E+03   -0.29869E-06   -0.79702E-08  1018   0.602E-04
  140 T=    60. E= -.41286721E+03 F= -.41316149E+03 E0= -.41314080E+03  EK= 0.29428E+00 SP= 0.00E+00 SK= 0.00E+00
       N       E                     dE             d eps       ncg     rms          rms(c)
RMM:   1    -0.413160490647E+03    0.99854E-03   -0.90760E+00  4264   0.792E-01    0.876E-01
RMM:   2    -0.413164299607E+03   -0.38090E-02   -0.10473E-01  4292   0.923E-02    0.616E-01
RMM:   3    -0.413161922232E+03    0.23774E-02   -0.12293E-02  4789   0.414E-02    0.928E-02
RMM:   4    -0.413172403100E+03   -0.10481E-01   -0.10952E-02  5164   0.880E-02    0.431E-01
RMM:   5    -0.413161840497E+03    0.10563E-01   -0.53814E-03  4827   0.721E-02    0.452E-02
RMM:   6    -0.413161846457E+03   -0.59604E-05   -0.10851E-03  5625   0.323E-02    0.316E-02
RMM:   7    -0.413161842887E+03    0.35705E-05   -0.24456E-04  5498   0.139E-02    0.141E-02
RMM:   8    -0.413161841752E+03    0.11351E-05   -0.33508E-05  4901   0.635E-03    0.735E-03
RMM:   9    -0.413161841860E+03   -0.10811E-06   -0.39943E-06  2836   0.248E-03
  141 T=    60. E= -.41286742E+03 F= -.41316184E+03 E0= -.41314116E+03  EK= 0.29442E+00 SP= 0.00E+00 SK= 0.00E+00
       N       E                     dE             d eps       ncg     rms          rms(c)
RMM:   1    -0.413158283502E+03    0.35582E-02   -0.92283E+00  4268   0.795E-01    0.854E-01
RMM:   2    -0.413164514741E+03   -0.62312E-02   -0.10729E-01  4309   0.916E-02    0.611E-01
RMM:   3    -0.413162594798E+03    0.19199E-02   -0.11176E-02  5015   0.448E-02    0.125E-01
RMM:   4    -0.413191595764E+03   -0.29001E-01   -0.31309E-02  5134   0.147E-01    0.710E-01
RMM:   5    -0.413162122007E+03    0.29474E-01   -0.14501E-02  4817   0.119E-01    0.564E-02
RMM:   6    -0.413162116450E+03    0.55575E-05   -0.24507E-03  5659   0.477E-02    0.297E-02
RMM:   7    -0.413162149031E+03   -0.32581E-04   -0.37690E-04  5990   0.162E-02    0.159E-02
RMM:   8    -0.413162156141E+03   -0.71097E-05   -0.64472E-05  5270   0.833E-03    0.867E-03
RMM:   9    -0.413162157409E+03   -0.12680E-05   -0.87743E-06  3351   0.355E-03    0.407E-03
RMM:  10    -0.413162162338E+03   -0.49292E-05   -0.29577E-06  2652   0.237E-03    0.269E-03
RMM:  11    -0.413162167033E+03   -0.46956E-05   -0.14511E-06  2525   0.185E-03    0.136E-03
RMM:  12    -0.413162170815E+03   -0.37815E-05   -0.92054E-07  2457   0.140E-03    0.554E-04
RMM:  13    -0.413162172605E+03   -0.17897E-05   -0.45484E-07  2043   0.101E-03    0.342E-04
RMM:  14    -0.413162173935E+03   -0.13301E-05   -0.30021E-07  1632   0.839E-04    0.195E-04
RMM:  15    -0.413162174936E+03   -0.10016E-05   -0.24869E-07  1475   0.773E-04    0.128E-04
RMM:  16    -0.413162175758E+03   -0.82170E-06   -0.28882E-07  1589   0.773E-04
  142 T=    60. E= -.41286739E+03 F= -.41316218E+03 E0= -.41314150E+03  EK= 0.29478E+00 SP= 0.00E+00 SK= 0.00E+00
       N       E                     dE             d eps       ncg     rms          rms(c)
RMM:   1    -0.413157570136E+03    0.46048E-02   -0.95330E+00  4264   0.805E-01    0.855E-01
RMM:   2    -0.413165063161E+03   -0.74930E-02   -0.11156E-01  4293   0.959E-02    0.620E-01
RMM:   3    -0.413162311840E+03    0.27513E-02   -0.10209E-02  4570   0.410E-02    0.824E-02
RMM:   4    -0.413162725970E+03   -0.41413E-03   -0.10064E-03  5174   0.263E-02    0.884E-02
RMM:   5    -0.413162365896E+03    0.36007E-03   -0.30308E-04  4906   0.178E-02    0.410E-02
RMM:   6    -0.413162341399E+03    0.24497E-04   -0.21549E-04  5218   0.152E-02    0.263E-02
RMM:   7    -0.413162357977E+03   -0.16578E-04   -0.14955E-04  4912   0.947E-03    0.150E-02
RMM:   8    -0.413162354325E+03    0.36521E-05   -0.10404E-05  3672   0.420E-03    0.726E-03
RMM:   9    -0.413162355975E+03   -0.16501E-05   -0.46058E-06  2531   0.221E-03    0.255E-03
RMM:  10    -0.413162364647E+03   -0.86717E-05   -0.21410E-06  2550   0.195E-03    0.120E-03
RMM:  11    -0.413162371209E+03   -0.65621E-05   -0.10217E-06  2396   0.145E-03    0.640E-04
RMM:  12    -0.413162373935E+03   -0.27260E-05   -0.40288E-07  1905   0.964E-04    0.433E-04
RMM:  13    -0.413162377012E+03   -0.30767E-05   -0.29937E-07  1617   0.793E-04    0.291E-04
RMM:  14    -0.413162379249E+03   -0.22374E-05   -0.22381E-07  1370   0.708E-04    0.137E-04
RMM:  15    -0.413162380063E+03   -0.81394E-06   -0.10404E-07  1076   0.599E-04
  143 T=    60. E= -.41286708E+03 F= -.41316238E+03 E0= -.41314172E+03  EK= 0.29530E+00 SP= 0.00E+00 SK= 0.00E+00
       N       E                     dE             d eps       ncg     rms          rms(c)
RMM:   1    -0.413157902671E+03    0.44766E-02   -0.97699E+00  4264   0.817E-01    0.878E-01
RMM:   2    -0.413164559522E+03   -0.66569E-02   -0.11257E-01  4294   0.954E-02    0.613E-01
RMM:   3    -0.413162964326E+03    0.15952E-02   -0.93150E-03  4660   0.371E-02    0.109E-01
RMM:   4    -0.413164708613E+03   -0.17443E-02   -0.24028E-03  5200   0.420E-02    0.178E-01
RMM:   5    -0.413162993589E+03    0.17150E-02   -0.96538E-04  4836   0.313E-02    0.388E-02
RMM:   6    -0.413162973736E+03    0.19853E-04   -0.32493E-04  5379   0.187E-02    0.265E-02
RMM:   7    -0.413162975887E+03   -0.21516E-05   -0.14113E-04  5222   0.100E-02    0.130E-02
RMM:   8    -0.413162973642E+03    0.22454E-05   -0.15886E-05  4250   0.482E-03    0.628E-03
RMM:   9    -0.413162974608E+03   -0.96639E-06   -0.34685E-06  2576   0.218E-03
  144 T=    60. E= -.41286732E+03 F= -.41316297E+03 E0= -.41314232E+03  EK= 0.29566E+00 SP= 0.00E+00 SK= 0.00E+00
       N       E                     dE             d eps       ncg     rms          rms(c)
RMM:   1    -0.413156730863E+03    0.62428E-02   -0.98856E+00  4264   0.823E-01    0.863E-01
RMM:   2    -0.413164479585E+03   -0.77487E-02   -0.11419E-01  4294   0.958E-02    0.606E-01
RMM:   3    -0.413163007463E+03    0.14721E-02   -0.84443E-03  4901   0.387E-02    0.125E-01
RMM:   4    -0.413178414723E+03   -0.15407E-01   -0.15872E-02  5164   0.106E-01    0.520E-01
RMM:   5    -0.413162914757E+03    0.15500E-01   -0.77940E-03  4838   0.860E-02    0.451E-02
RMM:   6    -0.413162911571E+03    0.31864E-05   -0.13725E-03  5695   0.350E-02    0.255E-02
RMM:   7    -0.413162926572E+03   -0.15001E-04   -0.21352E-04  5753   0.124E-02    0.116E-02
RMM:   8    -0.413162930295E+03   -0.37228E-05   -0.34551E-05  4943   0.620E-03    0.643E-03
RMM:   9    -0.413162930947E+03   -0.65248E-06   -0.46412E-06  2932   0.275E-03
  145 T=    60. E= -.41286713E+03 F= -.41316293E+03 E0= -.41314229E+03  EK= 0.29580E+00 SP= 0.00E+00 SK= 0.00E+00
       N       E                     dE             d eps       ncg     rms          rms(c)
RMM:   1    -0.413156380448E+03    0.65498E-02   -0.10099E+01  4269   0.834E-01    0.852E-01
RMM:   2    -0.413165230104E+03   -0.88497E-02   -0.11931E-01  4289   0.102E-01    0.617E-01
RMM:   3    -0.413164122020E+03    0.11081E-02   -0.84643E-03  5064   0.476E-02    0.162E-01
RMM:   4    -0.413201782408E+03   -0.37660E-01   -0.41515E-02  5140   0.169E-01    0.807E-01
RMM:   5    -0.413163260929E+03    0.38521E-01   -0.18794E-02  4818   0.135E-01    0.603E-02
RMM:   6    -0.413163305206E+03   -0.44276E-04   -0.30720E-03  5655   0.533E-02    0.225E-02
RMM:   7    -0.413163348505E+03   -0.43299E-04   -0.42822E-04  6072   0.169E-02    0.147E-02
RMM:   8    -0.413163359445E+03   -0.10940E-04   -0.66223E-05  5420   0.816E-03    0.831E-03
RMM:   9    -0.413163364181E+03   -0.47359E-05   -0.11254E-05  3495   0.381E-03    0.351E-03
RMM:  10    -0.413163370145E+03   -0.59641E-05   -0.30750E-06  2652   0.233E-03    0.231E-03
RMM:  11    -0.413163376904E+03   -0.67588E-05   -0.16846E-06  2535   0.188E-03    0.139E-03
RMM:  12    -0.413163381504E+03   -0.46008E-05   -0.98854E-07  2496   0.142E-03    0.482E-04
RMM:  13    -0.413163383088E+03   -0.15835E-05   -0.41816E-07  1971   0.969E-04    0.300E-04
RMM:  14    -0.413163384678E+03   -0.15899E-05   -0.32539E-07  1631   0.855E-04    0.199E-04
RMM:  15    -0.413163385931E+03   -0.12536E-05   -0.30720E-07  1635   0.807E-04    0.117E-04
RMM:  16    -0.413163386152E+03   -0.22024E-06   -0.14327E-07  1269   0.664E-04
  146 T=    60. E= -.41286701E+03 F= -.41316339E+03 E0= -.41314275E+03  EK= 0.29637E+00 SP= 0.00E+00 SK= 0.00E+00
       N       E                     dE             d eps       ncg     rms          rms(c)
RMM:   1    -0.413156811843E+03    0.65741E-02   -0.10290E+01  4265   0.844E-01    0.874E-01
RMM:   2    -0.413165115355E+03   -0.83035E-02   -0.11957E-01  4293   0.987E-02    0.613E-01
RMM:   3    -0.413164229604E+03    0.88575E-03   -0.76239E-03  4958   0.410E-02    0.145E-01
RMM:   4    -0.413189935663E+03   -0.25706E-01   -0.26619E-02  5150   0.136E-01    0.668E-01
RMM:   5    -0.413163947893E+03    0.25988E-01   -0.12947E-02  4822   0.111E-01    0.493E-02
RMM:   6    -0.413163979527E+03   -0.31634E-04   -0.21640E-03  5690   0.439E-02    0.216E-02
RMM:   7    -0.413164002104E+03   -0.22576E-04   -0.28252E-04  5835   0.137E-02    0.124E-02
RMM:   8    -0.413164005727E+03   -0.36229E-05   -0.38926E-05  4952   0.627E-03    0.648E-03
RMM:   9    -0.413164006102E+03   -0.37523E-06   -0.68736E-06  3120   0.305E-03
  147 T=    60. E= -.41286727E+03 F= -.41316401E+03 E0= -.41314338E+03  EK= 0.29673E+00 SP= 0.00E+00 SK= 0.00E+00
       N       E                     dE             d eps       ncg     rms          rms(c)
RMM:   1    -0.413155978950E+03    0.80268E-02   -0.10369E+01  4266   0.849E-01    0.871E-01
RMM:   2    -0.413164945570E+03   -0.89666E-02   -0.11971E-01  4300   0.989E-02    0.604E-01
RMM:   3    -0.413165429747E+03   -0.48418E-03   -0.84597E-03  5133   0.552E-02    0.223E-01
RMM:   4    -0.413197881512E+03   -0.32452E-01   -0.40971E-02  5118   0.169E-01    0.765E-01
RMM:   5    -0.413163718513E+03    0.34163E-01   -0.16153E-02  4799   0.129E-01    0.656E-02
RMM:   6    -0.413163651233E+03    0.67280E-04   -0.26115E-03  5531   0.504E-02    0.212E-02
RMM:   7    -0.413163686577E+03   -0.35344E-04   -0.41895E-04  6077   0.176E-02    0.145E-02
RMM:   8    -0.413163688517E+03   -0.19401E-05   -0.58767E-05  5389   0.752E-03    0.798E-03
RMM:   9    -0.413163688304E+03    0.21304E-06   -0.11782E-05  3720   0.406E-03    0.374E-03
RMM:  10    -0.413163689368E+03   -0.10642E-05   -0.20611E-06  2565   0.210E-03    0.231E-03
RMM:  11    -0.413163690461E+03   -0.10929E-05   -0.14585E-06  2544   0.179E-03    0.138E-03
RMM:  12    -0.413163690315E+03    0.14581E-06   -0.76832E-07  2460   0.129E-03
  148 T=    60. E= -.41286695E+03 F= -.41316369E+03 E0= -.41314306E+03  EK= 0.29674E+00 SP= 0.00E+00 SK= 0.00E+00
       N       E                     dE             d eps       ncg     rms          rms(c)
RMM:   1    -0.413156006287E+03    0.76842E-02   -0.10450E+01  4266   0.856E-01    0.851E-01
RMM:   2    -0.413165681117E+03   -0.96748E-02   -0.12459E-01  4294   0.992E-02    0.612E-01
RMM:   3    -0.413165051450E+03    0.62967E-03   -0.69191E-03  5048   0.445E-02    0.169E-01
RMM:   4    -0.413202819660E+03   -0.37768E-01   -0.40742E-02  5143   0.167E-01    0.807E-01
RMM:   5    -0.413164311131E+03    0.38509E-01   -0.18868E-02  4812   0.135E-01    0.563E-02
RMM:   6    -0.413164378568E+03   -0.67437E-04   -0.31292E-03  5672   0.531E-02    0.163E-02
RMM:   7    -0.413164419293E+03   -0.40725E-04   -0.40249E-04  6023   0.159E-02    0.124E-02
RMM:   8    -0.413164426435E+03   -0.71423E-05   -0.47262E-05  5037   0.649E-03    0.703E-03
RMM:   9    -0.413164431138E+03   -0.47026E-05   -0.81346E-06  3076   0.322E-03    0.338E-03
RMM:  10    -0.413164435433E+03   -0.42954E-05   -0.24329E-06  2583   0.206E-03    0.199E-03
RMM:  11    -0.413164439442E+03   -0.40086E-05   -0.12945E-06  2526   0.159E-03    0.114E-03
RMM:  12    -0.413164441798E+03   -0.23561E-05   -0.79731E-07  2344   0.123E-03    0.416E-04
RMM:  13    -0.413164442576E+03   -0.77853E-06   -0.35785E-07  1844   0.905E-04
  149 T=    61. E= -.41286705E+03 F= -.41316444E+03 E0= -.41314382E+03  EK= 0.29739E+00 SP= 0.00E+00 SK= 0.00E+00
       N       E                     dE             d eps       ncg     rms          rms(c)
RMM:   1    -0.413156629740E+03    0.78121E-02   -0.10586E+01  4264   0.873E-01    0.868E-01
RMM:   2    -0.413166047526E+03   -0.94178E-02   -0.12490E-01  4302   0.990E-02    0.614E-01
RMM:   3    -0.413165624952E+03    0.42257E-03   -0.68130E-03  5084   0.431E-02    0.176E-01
RMM:   4    -0.413203860938E+03   -0.38236E-01   -0.41291E-02  5145   0.168E-01    0.812E-01
RMM:   5    -0.413164905176E+03    0.38956E-01   -0.19151E-02  4813   0.136E-01    0.572E-02
RMM:   6    -0.413164963746E+03   -0.58570E-04   -0.31412E-03  5672   0.533E-02    0.156E-02
RMM:   7    -0.413165003537E+03   -0.39791E-04   -0.40620E-04  6022   0.159E-02    0.120E-02
RMM:   8    -0.413165008509E+03   -0.49728E-05   -0.43606E-05  4742   0.604E-03    0.688E-03
RMM:   9    -0.413165011358E+03   -0.28484E-05   -0.72423E-06  2965   0.309E-03    0.339E-03
RMM:  10    -0.413165013812E+03   -0.24544E-05   -0.22138E-06  2562   0.201E-03    0.193E-03
RMM:  11    -0.413165015643E+03   -0.18303E-05   -0.11665E-06  2519   0.152E-03    0.105E-03
RMM:  12    -0.413165016350E+03   -0.70795E-06   -0.68602E-07  2245   0.117E-03
  150 T=    61. E= -.41286718E+03 F= -.41316502E+03 E0= -.41314440E+03  EK= 0.29784E+00 SP= 0.00E+00 SK= 0.00E+00
