       N       E                     dE             d eps       ncg     rms          rms(c)
RMM:   1     0.220128866883E+04    0.22013E+04   -0.52441E+04  2132   0.654E+02
RMM:   2     0.705264238188E+03   -0.14960E+04   -0.16263E+04  2132   0.177E+02
RMM:   3     0.137442907355E+03   -0.56782E+03   -0.65709E+03  2132   0.117E+02
RMM:   4    -0.159028975429E+03   -0.29647E+03   -0.27838E+03  2132   0.936E+01
RMM:   5    -0.287442408241E+03   -0.12841E+03   -0.11448E+03  2132   0.595E+01
RMM:   6    -0.349947519129E+03   -0.62505E+02   -0.55224E+02  2132   0.424E+01
RMM:   7    -0.382722401909E+03   -0.32775E+02   -0.30353E+02  2132   0.293E+01
RMM:   8    -0.404218734599E+03   -0.21496E+02   -0.18384E+02  2132   0.233E+01
RMM:   9    -0.436025689723E+03   -0.31807E+02   -0.30673E+02  6108   0.173E+01
RMM:  10    -0.441325163665E+03   -0.52995E+01   -0.63447E+01  6390   0.540E+00
RMM:  11    -0.442516268765E+03   -0.11911E+01   -0.11177E+01  6216   0.173E+00
RMM:  12    -0.442883669480E+03   -0.36740E+00   -0.25530E+00  6367   0.594E-01    0.134E+02
RMM:  13    -0.425623834341E+03    0.17260E+02   -0.81190E+01  4676   0.119E+01    0.712E+01
RMM:  14    -0.499844703135E+03   -0.74221E+02   -0.54282E+02  5424   0.233E+01    0.307E+01
RMM:  15    -0.415188986404E+03    0.84656E+02   -0.19853E+02  5078   0.163E+01    0.657E+00
RMM:  16    -0.414013534030E+03    0.11755E+01   -0.39154E+01  6075   0.607E+00    0.424E+00
RMM:  17    -0.413215912188E+03    0.79762E+00   -0.24482E+00  5382   0.184E+00    0.244E+00
RMM:  18    -0.413170766162E+03    0.45146E-01   -0.82346E-01  5979   0.926E-01    0.163E+00
RMM:  19    -0.413166395508E+03    0.43707E-02   -0.30491E-01  5705   0.587E-01    0.840E-01
RMM:  20    -0.413179819676E+03   -0.13424E-01   -0.19296E-01  5460   0.476E-01    0.503E-01
RMM:  21    -0.413166594348E+03    0.13225E-01   -0.31774E-02  5024   0.217E-01    0.236E-01
RMM:  22    -0.413165304143E+03    0.12902E-02   -0.13192E-02  6106   0.945E-02    0.144E-01
RMM:  23    -0.413163933487E+03    0.13707E-02   -0.57117E-03  5811   0.698E-02    0.829E-02
RMM:  24    -0.413162774082E+03    0.11594E-02   -0.16746E-03  5467   0.403E-02    0.379E-02
RMM:  25    -0.413162610317E+03    0.16376E-03   -0.82053E-04  5599   0.248E-02    0.320E-02
RMM:  26    -0.413162830088E+03   -0.21977E-03   -0.64646E-04  5824   0.260E-02    0.312E-02
RMM:  27    -0.413163264302E+03   -0.43421E-03   -0.18554E-04  4562   0.194E-02    0.161E-02
RMM:  28    -0.413163748858E+03   -0.48456E-03   -0.17946E-04  5252   0.192E-02    0.929E-03
RMM:  29    -0.413164110908E+03   -0.36205E-03   -0.98162E-05  4366   0.143E-02    0.468E-03
RMM:  30    -0.413164325550E+03   -0.21464E-03   -0.70448E-05  4104   0.961E-03    0.285E-03
RMM:  31    -0.413164443851E+03   -0.11830E-03   -0.48085E-05  3177   0.634E-03    0.271E-03
RMM:  32    -0.413164470700E+03   -0.26849E-04   -0.19903E-05  2933   0.302E-03    0.130E-03
RMM:  33    -0.413164481314E+03   -0.10614E-04   -0.78648E-06  2757   0.204E-03    0.471E-04
RMM:  34    -0.413164485305E+03   -0.39908E-05   -0.44101E-06  2669   0.167E-03    0.909E-04
RMM:  35    -0.413164485219E+03    0.86446E-07   -0.21376E-06  2239   0.112E-03
    1 T=    61. E= -.41286667E+03 F= -.41316449E+03 E0= -.41314199E+03  EK= 0.29781E+00 SP= 0.00E+00 SK= 0.00E+00
       N       E                     dE             d eps       ncg     rms          rms(c)
RMM:   1    -0.413154550188E+03    0.99351E-02   -0.11190E+01  3986   0.703E-01    0.887E-01
RMM:   2    -0.413165468012E+03   -0.10918E-01   -0.13824E-01  3888   0.101E-01    0.640E-01
RMM:   3    -0.413164034706E+03    0.14333E-02   -0.62323E-03  4659   0.350E-02    0.155E-01
RMM:   4    -0.413179043032E+03   -0.15008E-01   -0.15659E-02  5218   0.104E-01    0.513E-01
RMM:   5    -0.413163801786E+03    0.15241E-01   -0.75698E-03  4857   0.856E-02    0.260E-02
RMM:   6    -0.413163897103E+03   -0.95318E-04   -0.12082E-03  5834   0.335E-02    0.143E-02
RMM:   7    -0.413163910458E+03   -0.13355E-04   -0.15198E-04  5624   0.104E-02    0.106E-02
RMM:   8    -0.413163917493E+03   -0.70345E-05   -0.18224E-05  3701   0.404E-03    0.616E-03
RMM:   9    -0.413163925000E+03   -0.75067E-05   -0.36183E-06  2720   0.236E-03    0.391E-03
RMM:  10    -0.413163933329E+03   -0.83297E-05   -0.17039E-06  2543   0.183E-03    0.200E-03
RMM:  11    -0.413163940584E+03   -0.72545E-05   -0.12169E-06  2522   0.150E-03    0.878E-04
RMM:  12    -0.413163943830E+03   -0.32459E-05   -0.60118E-07  2260   0.108E-03    0.359E-04
RMM:  13    -0.413163945750E+03   -0.19204E-05   -0.36226E-07  1657   0.816E-04    0.208E-04
RMM:  14    -0.413163948320E+03   -0.25701E-05   -0.30014E-07  1439   0.755E-04    0.149E-04
RMM:  15    -0.413163949826E+03   -0.15053E-05   -0.22131E-07  1276   0.685E-04    0.792E-05
RMM:  16    -0.413163950665E+03   -0.83986E-06   -0.16781E-07  1197   0.639E-04
    2 T=    61. E= -.41286626E+03 F= -.41316395E+03 E0= -.41314145E+03  EK= 0.29770E+00 SP= 0.00E+00 SK= 0.00E+00
       N       E                     dE             d eps       ncg     rms          rms(c)
RMM:   1    -0.413155703667E+03    0.82462E-02   -0.11224E+01  4194   0.705E-01    0.912E-01
RMM:   2    -0.413165585714E+03   -0.98820E-02   -0.13529E-01  3893   0.961E-02    0.633E-01
RMM:   3    -0.413164946670E+03    0.63904E-03   -0.67588E-03  4850   0.387E-02    0.170E-01
RMM:   4    -0.413194155185E+03   -0.29209E-01   -0.29561E-02  5187   0.144E-01    0.712E-01
RMM:   5    -0.413164532527E+03    0.29623E-01   -0.14354E-02  4829   0.119E-01    0.366E-02
RMM:   6    -0.413164715732E+03   -0.18320E-03   -0.23180E-03  5798   0.468E-02    0.183E-02
RMM:   7    -0.413164728411E+03   -0.12679E-04   -0.27678E-04  5877   0.138E-02    0.136E-02
RMM:   8    -0.413164729282E+03   -0.87068E-06   -0.35200E-05  4374   0.517E-03    0.864E-03
RMM:   9    -0.413164728619E+03    0.66281E-06   -0.54308E-06  2932   0.266E-03
    3 T=    61. E= -.41286678E+03 F= -.41316473E+03 E0= -.41314223E+03  EK= 0.29795E+00 SP= 0.00E+00 SK= 0.00E+00
       N       E                     dE             d eps       ncg     rms          rms(c)
RMM:   1    -0.413155119270E+03    0.96100E-02   -0.11135E+01  4227   0.705E-01    0.894E-01
RMM:   2    -0.413165783261E+03   -0.10664E-01   -0.13416E-01  4181   0.987E-02    0.627E-01
RMM:   3    -0.413167831907E+03   -0.20486E-02   -0.89617E-03  5170   0.649E-02    0.292E-01
RMM:   4    -0.413194840757E+03   -0.27009E-01   -0.40930E-02  5142   0.171E-01    0.726E-01
RMM:   5    -0.413164328127E+03    0.30513E-01   -0.12885E-02  4742   0.121E-01    0.534E-02
RMM:   6    -0.413164387287E+03   -0.59160E-04   -0.21682E-03  5589   0.466E-02    0.159E-02
RMM:   7    -0.413164411591E+03   -0.24305E-04   -0.30652E-04  6044   0.150E-02    0.118E-02
RMM:   8    -0.413164414635E+03   -0.30440E-05   -0.38242E-05  4656   0.547E-03    0.746E-03
RMM:   9    -0.413164416689E+03   -0.20536E-05   -0.66602E-06  3074   0.356E-03    0.361E-03
RMM:  10    -0.413164418688E+03   -0.19988E-05   -0.19404E-06  2555   0.220E-03    0.217E-03
RMM:  11    -0.413164420829E+03   -0.21415E-05   -0.10018E-06  2539   0.156E-03    0.994E-04
RMM:  12    -0.413164421950E+03   -0.11202E-05   -0.46781E-07  2107   0.105E-03    0.445E-04
RMM:  13    -0.413164423238E+03   -0.12885E-05   -0.38428E-07  1809   0.894E-04    0.223E-04
RMM:  14    -0.413164423832E+03   -0.59444E-06   -0.21166E-07  1372   0.726E-04
    4 T=    61. E= -.41286650E+03 F= -.41316442E+03 E0= -.41314194E+03  EK= 0.29792E+00 SP= 0.00E+00 SK= 0.00E+00
       N       E                     dE             d eps       ncg     rms          rms(c)
RMM:   1    -0.413154913883E+03    0.95094E-02   -0.11175E+01  4236   0.710E-01    0.884E-01
RMM:   2    -0.413165948286E+03   -0.11034E-01   -0.13830E-01  4028   0.979E-02    0.639E-01
RMM:   3    -0.413164871140E+03    0.10771E-02   -0.63294E-03  4932   0.369E-02    0.166E-01
RMM:   4    -0.413196513107E+03   -0.31642E-01   -0.32291E-02  5162   0.150E-01    0.741E-01
RMM:   5    -0.413164300556E+03    0.32213E-01   -0.15524E-02  4810   0.124E-01    0.366E-02
RMM:   6    -0.413164496924E+03   -0.19637E-03   -0.24994E-03  5776   0.485E-02    0.164E-02
RMM:   7    -0.413164516815E+03   -0.19891E-04   -0.29308E-04  5886   0.140E-02    0.130E-02
RMM:   8    -0.413164521729E+03   -0.49131E-05   -0.35935E-05  4357   0.519E-03    0.836E-03
RMM:   9    -0.413164525893E+03   -0.41642E-05   -0.54175E-06  2910   0.269E-03    0.572E-03
RMM:  10    -0.413164532902E+03   -0.70089E-05   -0.22421E-06  2571   0.219E-03    0.275E-03
RMM:  11    -0.413164538724E+03   -0.58228E-05   -0.14910E-06  2550   0.180E-03    0.137E-03
RMM:  12    -0.413164542093E+03   -0.33686E-05   -0.72934E-07  2438   0.134E-03    0.491E-04
RMM:  13    -0.413164543517E+03   -0.14235E-05   -0.33241E-07  2007   0.931E-04    0.308E-04
RMM:  14    -0.413164545198E+03   -0.16819E-05   -0.23272E-07  1572   0.788E-04    0.186E-04
RMM:  15    -0.413164546937E+03   -0.17388E-05   -0.21177E-07  1502   0.744E-04    0.137E-04
RMM:  16    -0.413164547305E+03   -0.36783E-06   -0.95580E-08  1093   0.628E-04
    5 T=    61. E= -.41286650E+03 F= -.41316455E+03 E0= -.41314207E+03  EK= 0.29804E+00 SP= 0.00E+00 SK= 0.00E+00
       N       E                     dE             d eps       ncg     rms          rms(c)
RMM:   1    -0.413155939741E+03    0.86072E-02   -0.11230E+01  4248   0.716E-01    0.907E-01
RMM:   2    -0.413166259657E+03   -0.10320E-01   -0.13519E-01  4002   0.970E-02    0.635E-01
RMM:   3    -0.413165374787E+03    0.88487E-03   -0.65468E-03  4841   0.372E-02    0.169E-01
RMM:   4    -0.413193604879E+03   -0.28230E-01   -0.28502E-02  5163   0.141E-01    0.700E-01
RMM:   5    -0.413164963366E+03    0.28642E-01   -0.13944E-02  4814   0.117E-01    0.355E-02
RMM:   6    -0.413165140402E+03   -0.17704E-03   -0.22286E-03  5775   0.456E-02    0.178E-02
RMM:   7    -0.413165153161E+03   -0.12759E-04   -0.26250E-04  5860   0.133E-02    0.133E-02
RMM:   8    -0.413165154430E+03   -0.12692E-05   -0.33011E-05  4318   0.507E-03    0.846E-03
RMM:   9    -0.413165154145E+03    0.28537E-06   -0.52225E-06  2888   0.266E-03
    6 T=    61. E= -.41286678E+03 F= -.41316515E+03 E0= -.41314269E+03  EK= 0.29838E+00 SP= 0.00E+00 SK= 0.00E+00
       N       E                     dE             d eps       ncg     rms          rms(c)
RMM:   1    -0.413155567090E+03    0.95873E-02   -0.11170E+01  4265   0.723E-01    0.902E-01
RMM:   2    -0.413165463626E+03   -0.98965E-02   -0.13473E-01  4220   0.992E-02    0.628E-01
RMM:   3    -0.413167756532E+03   -0.22929E-02   -0.89520E-03  5140   0.628E-02    0.283E-01
RMM:   4    -0.413196034383E+03   -0.28278E-01   -0.41217E-02  5126   0.171E-01    0.737E-01
RMM:   5    -0.413164566978E+03    0.31467E-01   -0.13449E-02  4749   0.123E-01    0.528E-02
RMM:   6    -0.413164637879E+03   -0.70901E-04   -0.22268E-03  5612   0.471E-02    0.160E-02
RMM:   7    -0.413164661709E+03   -0.23830E-04   -0.30714E-04  6043   0.150E-02    0.119E-02
RMM:   8    -0.413164663722E+03   -0.20134E-05   -0.38390E-05  4635   0.546E-03    0.752E-03
RMM:   9    -0.413164662486E+03    0.12366E-05   -0.63538E-06  2979   0.347E-03    0.355E-03
RMM:  10    -0.413164662535E+03   -0.49193E-07   -0.20143E-06  2550   0.219E-03
    7 T=    61. E= -.41286627E+03 F= -.41316466E+03 E0= -.41314222E+03  EK= 0.29839E+00 SP= 0.00E+00 SK= 0.00E+00
       N       E                     dE             d eps       ncg     rms          rms(c)
RMM:   1    -0.413155728695E+03    0.89338E-02   -0.11169E+01  4278   0.728E-01    0.883E-01
RMM:   2    -0.413166735679E+03   -0.11007E-01   -0.13759E-01  4077   0.958E-02    0.636E-01
RMM:   3    -0.413166012551E+03    0.72313E-03   -0.65015E-03  5024   0.406E-02    0.181E-01
RMM:   4    -0.413207301487E+03   -0.41289E-01   -0.43194E-02  5146   0.173E-01    0.843E-01
RMM:   5    -0.413165215907E+03    0.42086E-01   -0.20154E-02  4800   0.141E-01    0.438E-02
RMM:   6    -0.413165441240E+03   -0.22533E-03   -0.32471E-03  5761   0.553E-02    0.166E-02
RMM:   7    -0.413165470157E+03   -0.28917E-04   -0.39046E-04  5947   0.158E-02    0.137E-02
RMM:   8    -0.413165474679E+03   -0.45223E-05   -0.44939E-05  4438   0.559E-03    0.870E-03
RMM:   9    -0.413165477962E+03   -0.32830E-05   -0.68027E-06  2974   0.278E-03    0.589E-03
RMM:  10    -0.413165483571E+03   -0.56087E-05   -0.26788E-06  2595   0.231E-03    0.277E-03
RMM:  11    -0.413165487964E+03   -0.43931E-05   -0.15236E-06  2537   0.181E-03    0.132E-03
RMM:  12    -0.413165490548E+03   -0.25836E-05   -0.82411E-07  2458   0.137E-03    0.437E-04
RMM:  13    -0.413165491907E+03   -0.13593E-05   -0.39749E-07  2056   0.976E-04    0.296E-04
RMM:  14    -0.413165493219E+03   -0.13122E-05   -0.30020E-07  1661   0.828E-04    0.208E-04
RMM:  15    -0.413165494020E+03   -0.80098E-06   -0.20667E-07  1400   0.734E-04
    8 T=    61. E= -.41286677E+03 F= -.41316549E+03 E0= -.41314306E+03  EK= 0.29872E+00 SP= 0.00E+00 SK= 0.00E+00
       N       E                     dE             d eps       ncg     rms          rms(c)
RMM:   1    -0.413156196418E+03    0.92968E-02   -0.11236E+01  4283   0.729E-01    0.901E-01
RMM:   2    -0.413166662128E+03   -0.10466E-01   -0.13667E-01  4157   0.101E-01    0.638E-01
RMM:   3    -0.413165787257E+03    0.87487E-03   -0.65060E-03  4837   0.384E-02    0.168E-01
RMM:   4    -0.413194828117E+03   -0.29041E-01   -0.29464E-02  5159   0.143E-01    0.711E-01
RMM:   5    -0.413165278866E+03    0.29549E-01   -0.14437E-02  4806   0.118E-01    0.351E-02
RMM:   6    -0.413165461918E+03   -0.18305E-03   -0.22886E-03  5786   0.463E-02    0.173E-02
RMM:   7    -0.413165474918E+03   -0.12999E-04   -0.26724E-04  5842   0.135E-02    0.131E-02
RMM:   8    -0.413165476297E+03   -0.13794E-05   -0.33796E-05  4324   0.511E-03    0.851E-03
RMM:   9    -0.413165476055E+03    0.24239E-06   -0.52787E-06  2897   0.269E-03
    9 T=    61. E= -.41286655E+03 F= -.41316548E+03 E0= -.41314307E+03  EK= 0.29893E+00 SP= 0.00E+00 SK= 0.00E+00
       N       E                     dE             d eps       ncg     rms          rms(c)
RMM:   1    -0.413156702199E+03    0.87741E-02   -0.11220E+01  4295   0.734E-01    0.909E-01
RMM:   2    -0.413166347746E+03   -0.96455E-02   -0.13466E-01  4272   0.975E-02    0.629E-01
RMM:   3    -0.413169059238E+03   -0.27115E-02   -0.94136E-03  5135   0.660E-02    0.296E-01
RMM:   4    -0.413194620747E+03   -0.25562E-01   -0.39582E-02  5109   0.168E-01    0.710E-01
RMM:   5    -0.413165596828E+03    0.29024E-01   -0.12258E-02  4737   0.118E-01    0.523E-02
RMM:   6    -0.413165653329E+03   -0.56501E-04   -0.20473E-03  5599   0.450E-02    0.167E-02
RMM:   7    -0.413165671967E+03   -0.18638E-04   -0.28304E-04  6041   0.146E-02    0.120E-02
RMM:   8    -0.413165672410E+03   -0.44351E-06   -0.35610E-05  4587   0.538E-03    0.748E-03
RMM:   9    -0.413165668908E+03    0.35026E-05   -0.66696E-06  3027   0.361E-03    0.356E-03
RMM:  10    -0.413165667623E+03    0.12854E-05   -0.19407E-06  2551   0.218E-03    0.210E-03
RMM:  11    -0.413165666227E+03    0.13951E-05   -0.97874E-07  2528   0.155E-03    0.962E-04
RMM:  12    -0.413165665349E+03    0.87865E-06   -0.46115E-07  2107   0.104E-03
   10 T=    61. E= -.41286649E+03 F= -.41316567E+03 E0= -.41314328E+03  EK= 0.29918E+00 SP= 0.00E+00 SK= 0.00E+00
       N       E                     dE             d eps       ncg     rms          rms(c)
RMM:   1    -0.413156771258E+03    0.88950E-02   -0.11171E+01  4292   0.736E-01    0.884E-01
RMM:   2    -0.413167828077E+03   -0.11057E-01   -0.13653E-01  4197   0.965E-02    0.634E-01
RMM:   3    -0.413166723026E+03    0.11051E-02   -0.61824E-03  4876   0.388E-02    0.167E-01
RMM:   4    -0.413196123936E+03   -0.29401E-01   -0.29912E-02  5151   0.144E-01    0.716E-01
RMM:   5    -0.413166173920E+03    0.29950E-01   -0.14705E-02  4809   0.119E-01    0.346E-02
RMM:   6    -0.413166356619E+03   -0.18270E-03   -0.22860E-03  5792   0.463E-02    0.170E-02
RMM:   7    -0.413166371739E+03   -0.15120E-04   -0.26703E-04  5831   0.136E-02    0.130E-02
RMM:   8    -0.413166374119E+03   -0.23804E-05   -0.34554E-05  4388   0.518E-03    0.860E-03
RMM:   9    -0.413166374773E+03   -0.65402E-06   -0.54683E-06  2913   0.273E-03
   11 T=    61. E= -.41286674E+03 F= -.41316637E+03 E0= -.41314402E+03  EK= 0.29963E+00 SP= 0.00E+00 SK= 0.00E+00
       N       E                     dE             d eps       ncg     rms          rms(c)
RMM:   1    -0.413156777297E+03    0.95968E-02   -0.11253E+01  4295   0.745E-01    0.896E-01
RMM:   2    -0.413167429574E+03   -0.10652E-01   -0.13832E-01  4275   0.100E-01    0.641E-01
RMM:   3    -0.413169727194E+03   -0.22976E-02   -0.90991E-03  5141   0.660E-02    0.296E-01
RMM:   4    -0.413199503424E+03   -0.29776E-01   -0.44650E-02  5110   0.177E-01    0.757E-01
RMM:   5    -0.413166085247E+03    0.33418E-01   -0.14183E-02  4728   0.126E-01    0.529E-02
RMM:   6    -0.413166166124E+03   -0.80877E-04   -0.23476E-03  5623   0.482E-02    0.146E-02
RMM:   7    -0.413166192263E+03   -0.26139E-04   -0.31398E-04  6038   0.152E-02    0.116E-02
RMM:   8    -0.413166195517E+03   -0.32540E-05   -0.39403E-05  4660   0.549E-03    0.731E-03
RMM:   9    -0.413166197783E+03   -0.22657E-05   -0.65806E-06  2992   0.351E-03    0.368E-03
RMM:  10    -0.413166199765E+03   -0.19814E-05   -0.21779E-06  2559   0.223E-03    0.217E-03
RMM:  11    -0.413166201396E+03   -0.16313E-05   -0.11580E-06  2547   0.158E-03    0.970E-04
RMM:  12    -0.413166202155E+03   -0.75952E-06   -0.49723E-07  2146   0.106E-03
   12 T=    61. E= -.41286629E+03 F= -.41316620E+03 E0= -.41314387E+03  EK= 0.29991E+00 SP= 0.00E+00 SK= 0.00E+00
       N       E                     dE             d eps       ncg     rms          rms(c)
RMM:   1    -0.413157826615E+03    0.83748E-02   -0.11279E+01  4297   0.747E-01    0.915E-01
RMM:   2    -0.413167709878E+03   -0.98833E-02   -0.13499E-01  4217   0.943E-02    0.631E-01
RMM:   3    -0.413167206864E+03    0.50301E-03   -0.67575E-03  4901   0.374E-02    0.173E-01
RMM:   4    -0.413197006027E+03   -0.29799E-01   -0.30200E-02  5149   0.144E-01    0.719E-01
RMM:   5    -0.413166760139E+03    0.30246E-01   -0.14818E-02  4808   0.120E-01    0.367E-02
RMM:   6    -0.413166945053E+03   -0.18491E-03   -0.23828E-03  5801   0.466E-02    0.190E-02
RMM:   7    -0.413166954776E+03   -0.97230E-05   -0.27553E-04  5842   0.137E-02    0.138E-02
RMM:   8    -0.413166953061E+03    0.17143E-05   -0.35937E-05  4439   0.526E-03    0.917E-03
RMM:   9    -0.413166948591E+03    0.44701E-05   -0.57511E-06  2936   0.273E-03    0.629E-03
RMM:  10    -0.413166944218E+03    0.43729E-05   -0.21000E-06  2553   0.215E-03    0.307E-03
RMM:  11    -0.413166941041E+03    0.31771E-05   -0.15756E-06  2541   0.186E-03    0.153E-03
RMM:  12    -0.413166938526E+03    0.25154E-05   -0.75846E-07  2440   0.140E-03    0.510E-04
RMM:  13    -0.413166937649E+03    0.87716E-06   -0.32905E-07  2074   0.951E-04
   13 T=    61. E= -.41286646E+03 F= -.41316694E+03 E0= -.41314464E+03  EK= 0.30048E+00 SP= 0.00E+00 SK= 0.00E+00
       N       E                     dE             d eps       ncg     rms          rms(c)
RMM:   1    -0.413157836662E+03    0.91019E-02   -0.11194E+01  4295   0.749E-01    0.888E-01
RMM:   2    -0.413168521773E+03   -0.10685E-01   -0.13700E-01  4227   0.960E-02    0.632E-01
RMM:   3    -0.413167709774E+03    0.81200E-03   -0.62870E-03  4855   0.370E-02    0.168E-01
RMM:   4    -0.413195825009E+03   -0.28115E-01   -0.28625E-02  5146   0.141E-01    0.700E-01
RMM:   5    -0.413167213875E+03    0.28611E-01   -0.14022E-02  4806   0.116E-01    0.342E-02
RMM:   6    -0.413167388917E+03   -0.17504E-03   -0.22405E-03  5800   0.452E-02    0.170E-02
RMM:   7    -0.413167400190E+03   -0.11273E-04   -0.25727E-04  5821   0.133E-02    0.129E-02
RMM:   8    -0.413167400498E+03   -0.30819E-06   -0.33052E-05  4327   0.507E-03    0.850E-03
RMM:   9    -0.413167398747E+03    0.17518E-05   -0.51989E-06  2882   0.268E-03    0.585E-03
RMM:  10    -0.413167398028E+03    0.71824E-06   -0.20541E-06  2553   0.214E-03
   14 T=    61. E= -.41286646E+03 F= -.41316740E+03 E0= -.41314513E+03  EK= 0.30094E+00 SP= 0.00E+00 SK= 0.00E+00
       N       E                     dE             d eps       ncg     rms          rms(c)
RMM:   1    -0.413157848564E+03    0.95502E-02   -0.11285E+01  4305   0.757E-01    0.892E-01
RMM:   2    -0.413169234831E+03   -0.11386E-01   -0.13942E-01  4290   0.101E-01    0.643E-01
RMM:   3    -0.413171181228E+03   -0.19464E-02   -0.90464E-03  5130   0.659E-02    0.296E-01
RMM:   4    -0.413202008045E+03   -0.30827E-01   -0.45871E-02  5102   0.180E-01    0.768E-01
RMM:   5    -0.413167528029E+03    0.34480E-01   -0.14702E-02  4728   0.127E-01    0.508E-02
RMM:   6    -0.413167621445E+03   -0.93416E-04   -0.23966E-03  5622   0.486E-02    0.140E-02
RMM:   7    -0.413167647009E+03   -0.25564E-04   -0.31218E-04  6014   0.148E-02    0.113E-02
RMM:   8    -0.413167650227E+03   -0.32177E-05   -0.37873E-05  4567   0.539E-03    0.694E-03
RMM:   9    -0.413167652050E+03   -0.18227E-05   -0.58501E-06  2871   0.322E-03    0.344E-03
RMM:  10    -0.413167653811E+03   -0.17617E-05   -0.22560E-06  2562   0.216E-03    0.202E-03
RMM:  11    -0.413167655043E+03   -0.12321E-05   -0.10455E-06  2535   0.149E-03    0.854E-04
RMM:  12    -0.413167655689E+03   -0.64572E-06   -0.48822E-07  1950   0.103E-03
   15 T=    61. E= -.41286639E+03 F= -.41316766E+03 E0= -.41314542E+03  EK= 0.30127E+00 SP= 0.00E+00 SK= 0.00E+00
       N       E                     dE             d eps       ncg     rms          rms(c)
RMM:   1    -0.413159695260E+03    0.79598E-02   -0.11330E+01  4300   0.770E-01    0.916E-01
RMM:   2    -0.413169474908E+03   -0.97796E-02   -0.13647E-01  4246   0.100E-01    0.635E-01
RMM:   3    -0.413168889985E+03    0.58492E-03   -0.67828E-03  4915   0.387E-02    0.176E-01
RMM:   4    -0.413201740126E+03   -0.32850E-01   -0.33601E-02  5147   0.152E-01    0.754E-01
RMM:   5    -0.413168332990E+03    0.33407E-01   -0.16319E-02  4800   0.126E-01    0.383E-02
RMM:   6    -0.413168527845E+03   -0.19485E-03   -0.26391E-03  5799   0.492E-02    0.190E-02
RMM:   7    -0.413168537258E+03   -0.94132E-05   -0.30251E-04  5875   0.144E-02    0.142E-02
RMM:   8    -0.413168534800E+03    0.24577E-05   -0.38788E-05  4497   0.545E-03    0.948E-03
RMM:   9    -0.413168529635E+03    0.51656E-05   -0.60841E-06  2950   0.280E-03    0.653E-03
RMM:  10    -0.413168524326E+03    0.53087E-05   -0.22160E-06  2552   0.223E-03    0.320E-03
RMM:  11    -0.413168520276E+03    0.40495E-05   -0.16370E-06  2535   0.193E-03    0.158E-03
RMM:  12    -0.413168517223E+03    0.30532E-05   -0.78882E-07  2450   0.144E-03    0.525E-04
RMM:  13    -0.413168516127E+03    0.10962E-05   -0.34225E-07  2117   0.975E-04    0.329E-04
RMM:  14    -0.413168514702E+03    0.14254E-05   -0.20248E-07  1625   0.781E-04    0.189E-04
RMM:  15    -0.413168512160E+03    0.25416E-05   -0.19987E-07  1563   0.758E-04    0.156E-04
RMM:  16    -0.413168511547E+03    0.61261E-06   -0.79605E-08  1068   0.616E-04
   16 T=    61. E= -.41286666E+03 F= -.41316851E+03 E0= -.41314631E+03  EK= 0.30185E+00 SP= 0.00E+00 SK= 0.00E+00
       N       E                     dE             d eps       ncg     rms          rms(c)
RMM:   1    -0.413159490203E+03    0.90220E-02   -0.11239E+01  4295   0.761E-01    0.895E-01
RMM:   2    -0.413170141962E+03   -0.10652E-01   -0.13721E-01  4249   0.985E-02    0.631E-01
RMM:   3    -0.413169285368E+03    0.85659E-03   -0.64113E-03  4890   0.408E-02    0.176E-01
RMM:   4    -0.413203505698E+03   -0.34220E-01   -0.35071E-02  5148   0.155E-01    0.769E-01
RMM:   5    -0.413168770346E+03    0.34735E-01   -0.17059E-02  4799   0.128E-01    0.381E-02
RMM:   6    -0.413168970546E+03   -0.20020E-03   -0.27162E-03  5770   0.502E-02    0.184E-02
RMM:   7    -0.413168982510E+03   -0.11964E-04   -0.31327E-04  5878   0.146E-02    0.139E-02
RMM:   8    -0.413168981138E+03    0.13718E-05   -0.39689E-05  4474   0.542E-03    0.924E-03
RMM:   9    -0.413168977309E+03    0.38287E-05   -0.61946E-06  2956   0.276E-03    0.642E-03
RMM:  10    -0.413168973787E+03    0.35226E-05   -0.22224E-06  2552   0.223E-03    0.309E-03
RMM:  11    -0.413168971495E+03    0.22922E-05   -0.15805E-06  2530   0.189E-03    0.155E-03
RMM:  12    -0.413168969686E+03    0.18085E-05   -0.76282E-07  2443   0.142E-03    0.521E-04
RMM:  13    -0.413168969021E+03    0.66521E-06   -0.33772E-07  2109   0.972E-04
   17 T=    62. E= -.41286659E+03 F= -.41316897E+03 E0= -.41314681E+03  EK= 0.30238E+00 SP= 0.00E+00 SK= 0.00E+00
       N       E                     dE             d eps       ncg     rms          rms(c)
RMM:   1    -0.413159697379E+03    0.92723E-02   -0.11322E+01  4298   0.770E-01    0.890E-01
RMM:   2    -0.413171254526E+03   -0.11557E-01   -0.13986E-01  4258   0.101E-01    0.644E-01
RMM:   3    -0.413169876712E+03    0.13778E-02   -0.62500E-03  4867   0.390E-02    0.170E-01
RMM:   4    -0.413201808561E+03   -0.31932E-01   -0.32748E-02  5150   0.150E-01    0.744E-01
RMM:   5    -0.413169292591E+03    0.32516E-01   -0.15927E-02  4802   0.124E-01    0.360E-02
RMM:   6    -0.413169482528E+03   -0.18994E-03   -0.25365E-03  5788   0.485E-02    0.171E-02
RMM:   7    -0.413169496212E+03   -0.13684E-04   -0.28724E-04  5858   0.140E-02    0.132E-02
RMM:   8    -0.413169497166E+03   -0.95431E-06   -0.37229E-05  4430   0.530E-03    0.884E-03
RMM:   9    -0.413169496028E+03    0.11383E-05   -0.58136E-06  2935   0.277E-03    0.610E-03
RMM:  10    -0.413169496422E+03   -0.39451E-06   -0.22823E-06  2565   0.223E-03
   18 T=    62. E= -.41286648E+03 F= -.41316950E+03 E0= -.41314738E+03  EK= 0.30302E+00 SP= 0.00E+00 SK= 0.00E+00
       N       E                     dE             d eps       ncg     rms          rms(c)
RMM:   1    -0.413161422409E+03    0.80736E-02   -0.11382E+01  4305   0.773E-01    0.915E-01
RMM:   2    -0.413171584890E+03   -0.10162E-01   -0.13829E-01  4305   0.101E-01    0.639E-01
RMM:   3    -0.413174592830E+03   -0.30079E-02   -0.97373E-03  5125   0.685E-02    0.312E-01
RMM:   4    -0.413199367926E+03   -0.24775E-01   -0.40955E-02  5092   0.170E-01    0.707E-01
RMM:   5    -0.413170491846E+03    0.28876E-01   -0.11997E-02  4704   0.117E-01    0.494E-02
RMM:   6    -0.413170552521E+03   -0.60676E-04   -0.20264E-03  5591   0.442E-02    0.158E-02
RMM:   7    -0.413170567209E+03   -0.14688E-04   -0.26350E-04  5995   0.140E-02    0.114E-02
RMM:   8    -0.413170565327E+03    0.18818E-05   -0.32765E-05  4446   0.514E-03    0.700E-03
RMM:   9    -0.413170557817E+03    0.75109E-05   -0.54138E-06  2805   0.327E-03    0.330E-03
RMM:  10    -0.413170553906E+03    0.39106E-05   -0.18604E-06  2535   0.206E-03    0.188E-03
RMM:  11    -0.413170550165E+03    0.37411E-05   -0.86567E-07  2518   0.145E-03    0.843E-04
RMM:  12    -0.413170547978E+03    0.21865E-05   -0.42328E-07  1930   0.101E-03    0.424E-04
RMM:  13    -0.413170545239E+03    0.27396E-05   -0.33601E-07  1892   0.912E-04    0.243E-04
RMM:  14    -0.413170543817E+03    0.14213E-05   -0.18079E-07  1434   0.723E-04    0.144E-04
RMM:  15    -0.413170540935E+03    0.28822E-05   -0.20298E-07  1593   0.752E-04    0.978E-05
RMM:  16    -0.413170539306E+03    0.16288E-05   -0.11810E-07  1269   0.646E-04    0.805E-05
RMM:  17    -0.413170537219E+03    0.20875E-05   -0.10554E-07  1294   0.637E-04    0.461E-05
RMM:  18    -0.413170535495E+03    0.17240E-05   -0.69172E-08  1049   0.572E-04    0.249E-05
RMM:  19    -0.413170535117E+03    0.37789E-06   -0.31494E-08   788   0.517E-04
   19 T=    62. E= -.41286663E+03 F= -.41317054E+03 E0= -.41314846E+03  EK= 0.30391E+00 SP= 0.00E+00 SK= 0.00E+00
       N       E                     dE             d eps       ncg     rms          rms(c)
RMM:   1    -0.413162385219E+03    0.81503E-02   -0.11339E+01  4298   0.792E-01    0.905E-01
RMM:   2    -0.413172200571E+03   -0.98154E-02   -0.13738E-01  4248   0.100E-01    0.632E-01
RMM:   3    -0.413171648298E+03    0.55227E-03   -0.66038E-03  4950   0.414E-02    0.186E-01
RMM:   4    -0.413211065540E+03   -0.39417E-01   -0.41272E-02  5148   0.168E-01    0.824E-01
RMM:   5    -0.413170918172E+03    0.40147E-01   -0.19600E-02  4791   0.138E-01    0.422E-02
RMM:   6    -0.413171134041E+03   -0.21587E-03   -0.31691E-03  5755   0.542E-02    0.192E-02
RMM:   7    -0.413171149184E+03   -0.15143E-04   -0.36980E-04  5877   0.157E-02    0.148E-02
RMM:   8    -0.413171146901E+03    0.22826E-05   -0.45683E-05  4591   0.578E-03    0.978E-03
RMM:   9    -0.413171141357E+03    0.55442E-05   -0.68967E-06  3007   0.285E-03    0.672E-03
RMM:  10    -0.413171135441E+03    0.59164E-05   -0.24544E-06  2566   0.233E-03    0.319E-03
RMM:  11    -0.413171131463E+03    0.39773E-05   -0.15820E-06  2523   0.193E-03    0.158E-03
RMM:  12    -0.413171128558E+03    0.29058E-05   -0.79521E-07  2458   0.146E-03    0.516E-04
RMM:  13    -0.413171127547E+03    0.10110E-05   -0.34760E-07  2138   0.100E-03    0.335E-04
RMM:  14    -0.413171126320E+03    0.12268E-05   -0.19265E-07  1664   0.785E-04    0.197E-04
RMM:  15    -0.413171123986E+03    0.23334E-05   -0.17550E-07  1570   0.752E-04    0.141E-04
RMM:  16    -0.413171123454E+03    0.53214E-06   -0.71721E-08  1050   0.615E-04
   20 T=    62. E= -.41286642E+03 F= -.41317112E+03 E0= -.41314909E+03  EK= 0.30470E+00 SP= 0.00E+00 SK= 0.00E+00
       N       E                     dE             d eps       ncg     rms          rms(c)
RMM:   1    -0.413162361913E+03    0.87621E-02   -0.11378E+01  4296   0.787E-01    0.890E-01
RMM:   2    -0.413173436181E+03   -0.11074E-01   -0.14162E-01  4257   0.103E-01    0.644E-01
RMM:   3    -0.413172390287E+03    0.10459E-02   -0.63699E-03  4914   0.403E-02    0.177E-01
RMM:   4    -0.413209280538E+03   -0.36890E-01   -0.38229E-02  5143   0.162E-01    0.798E-01
RMM:   5    -0.413171673140E+03    0.37607E-01   -0.18439E-02  4799   0.134E-01    0.390E-02
RMM:   6    -0.413171887053E+03   -0.21391E-03   -0.29933E-03  5783   0.525E-02    0.177E-02
RMM:   7    -0.413171904691E+03   -0.17637E-04   -0.34332E-04  5891   0.152E-02    0.140E-02
RMM:   8    -0.413171904686E+03    0.41327E-08   -0.43310E-05  4555   0.564E-03    0.943E-03
RMM:   9    -0.413171902239E+03    0.24473E-05   -0.66253E-06  2991   0.284E-03    0.660E-03
RMM:  10    -0.413171900928E+03    0.13112E-05   -0.24423E-06  2573   0.235E-03    0.322E-03
RMM:  11    -0.413171900273E+03    0.65458E-06   -0.17390E-06  2543   0.197E-03
   21 T=    62. E= -.41286634E+03 F= -.41317190E+03 E0= -.41314991E+03  EK= 0.30557E+00 SP= 0.00E+00 SK= 0.00E+00
       N       E                     dE             d eps       ncg     rms          rms(c)
RMM:   1    -0.413163492258E+03    0.84087E-02   -0.11457E+01  4298   0.789E-01    0.912E-01
RMM:   2    -0.413174252814E+03   -0.10761E-01   -0.14038E-01  4293   0.999E-02    0.643E-01
RMM:   3    -0.413174342798E+03   -0.89984E-04   -0.71978E-03  5044   0.488E-02    0.215E-01
RMM:   4    -0.413219721727E+03   -0.45379E-01   -0.50936E-02  5134   0.187E-01    0.887E-01
RMM:   5    -0.413172975637E+03    0.46746E-01   -0.22219E-02  4782   0.149E-01    0.469E-02
RMM:   6    -0.413173190609E+03   -0.21497E-03   -0.35158E-03  5746   0.581E-02    0.184E-02
RMM:   7    -0.413173211995E+03   -0.21386E-04   -0.42432E-04  5962   0.169E-02    0.149E-02
RMM:   8    -0.413173210156E+03    0.18393E-05   -0.52182E-05  4744   0.609E-03    0.977E-03
RMM:   9    -0.413173204564E+03    0.55923E-05   -0.73500E-06  3019   0.292E-03    0.628E-03
RMM:  10    -0.413173198748E+03    0.58155E-05   -0.27303E-06  2589   0.241E-03    0.287E-03
RMM:  11    -0.413173194634E+03    0.41146E-05   -0.14515E-06  2519   0.186E-03    0.135E-03
RMM:  12    -0.413173191489E+03    0.31443E-05   -0.75976E-07  2456   0.140E-03    0.445E-04
RMM:  13    -0.413173189833E+03    0.16567E-05   -0.33942E-07  2098   0.978E-04    0.304E-04
RMM:  14    -0.413173187402E+03    0.24304E-05   -0.22649E-07  1675   0.805E-04    0.209E-04
RMM:  15    -0.413173185325E+03    0.20778E-05   -0.14613E-07  1394   0.709E-04    0.105E-04
RMM:  16    -0.413173184441E+03    0.88338E-06   -0.81456E-08  1138   0.630E-04
   22 T=    62. E= -.41286671E+03 F= -.41317318E+03 E0= -.41315124E+03  EK= 0.30647E+00 SP= 0.00E+00 SK= 0.00E+00
       N       E                     dE             d eps       ncg     rms          rms(c)
RMM:   1    -0.413164527558E+03    0.86578E-02   -0.11447E+01  4297   0.791E-01    0.915E-01
RMM:   2    -0.413174831998E+03   -0.10304E-01   -0.13876E-01  4276   0.107E-01    0.635E-01
RMM:   3    -0.413174277621E+03    0.55438E-03   -0.67512E-03  4888   0.436E-02    0.184E-01
RMM:   4    -0.413211630180E+03   -0.37353E-01   -0.38513E-02  5145   0.163E-01    0.802E-01
RMM:   5    -0.413173609983E+03    0.38020E-01   -0.18599E-02  4795   0.135E-01    0.402E-02
RMM:   6    -0.413173812214E+03   -0.20223E-03   -0.29785E-03  5786   0.527E-02    0.197E-02
RMM:   7    -0.413173822860E+03   -0.10646E-04   -0.33193E-04  5892   0.154E-02    0.147E-02
RMM:   8    -0.413173819015E+03    0.38452E-05   -0.43407E-05  4607   0.577E-03    0.996E-03
RMM:   9    -0.413173811696E+03    0.73195E-05   -0.68295E-06  3020   0.293E-03    0.689E-03
RMM:  10    -0.413173803460E+03    0.82360E-05   -0.23803E-06  2566   0.238E-03    0.337E-03
RMM:  11    -0.413173796889E+03    0.65702E-05   -0.16961E-06  2527   0.201E-03    0.167E-03
RMM:  12    -0.413173792454E+03    0.44354E-05   -0.79840E-07  2454   0.148E-03    0.548E-04
RMM:  13    -0.413173790876E+03    0.15775E-05   -0.34777E-07  2142   0.100E-03    0.353E-04
RMM:  14    -0.413173788799E+03    0.20775E-05   -0.19563E-07  1677   0.788E-04    0.198E-04
RMM:  15    -0.413173785039E+03    0.37597E-05   -0.17278E-07  1609   0.754E-04    0.163E-04
RMM:  16    -0.413173784334E+03    0.70531E-06   -0.70884E-08  1051   0.608E-04
   23 T=    63. E= -.41286644E+03 F= -.41317378E+03 E0= -.41315189E+03  EK= 0.30734E+00 SP= 0.00E+00 SK= 0.00E+00
       N       E                     dE             d eps       ncg     rms          rms(c)
RMM:   1    -0.413165345138E+03    0.84399E-02   -0.11443E+01  4294   0.795E-01    0.893E-01
RMM:   2    -0.413176959657E+03   -0.11615E-01   -0.14240E-01  4274   0.105E-01    0.643E-01
RMM:   3    -0.413175635349E+03    0.13243E-02   -0.61912E-03  4790   0.401E-02    0.171E-01
RMM:   4    -0.413202676053E+03   -0.27041E-01   -0.27401E-02  5154   0.138E-01    0.685E-01
RMM:   5    -0.413175236741E+03    0.27439E-01   -0.13577E-02  4806   0.114E-01    0.325E-02
RMM:   6    -0.413175390053E+03   -0.15331E-03   -0.21577E-03  5798   0.443E-02    0.165E-02
RMM:   7    -0.413175400474E+03   -0.10421E-04   -0.22697E-04  5736   0.128E-02    0.118E-02
RMM:   8    -0.413175399630E+03    0.84360E-06   -0.31486E-05  4353   0.500E-03    0.865E-03
RMM:   9    -0.413175395403E+03    0.42270E-05   -0.55566E-06  2965   0.280E-03    0.597E-03
RMM:  10    -0.413175392413E+03    0.29901E-05   -0.18930E-06  2542   0.215E-03    0.305E-03
RMM:  11    -0.413175390054E+03    0.23595E-05   -0.15389E-06  2535   0.189E-03    0.153E-03
RMM:  12    -0.413175388317E+03    0.17363E-05   -0.66817E-07  2425   0.136E-03    0.552E-04
RMM:  13    -0.413175387725E+03    0.59226E-06   -0.28854E-07  2002   0.918E-04
   24 T=    63. E= -.41286677E+03 F= -.41317539E+03 E0= -.41315354E+03  EK= 0.30862E+00 SP= 0.00E+00 SK= 0.00E+00
       N       E                     dE             d eps       ncg     rms          rms(c)
RMM:   1    -0.413170047422E+03    0.53409E-02   -0.11592E+01  4294   0.822E-01    0.910E-01
RMM:   2    -0.413177973897E+03   -0.79265E-02   -0.14008E-01  4275   0.107E-01    0.648E-01
RMM:   3    -0.413176659410E+03    0.13145E-02   -0.64145E-03  4777   0.425E-02    0.169E-01
RMM:   4    -0.413204560043E+03   -0.27901E-01   -0.28122E-02  5145   0.140E-01    0.695E-01
RMM:   5    -0.413176272541E+03    0.28288E-01   -0.13920E-02  4807   0.116E-01    0.332E-02
RMM:   6    -0.413176424210E+03   -0.15167E-03   -0.21948E-03  5804   0.448E-02    0.171E-02
RMM:   7    -0.413176432448E+03   -0.82379E-05   -0.22740E-04  5745   0.130E-02    0.121E-02
RMM:   8    -0.413176430237E+03    0.22117E-05   -0.32268E-05  4371   0.508E-03    0.882E-03
RMM:   9    -0.413176424425E+03    0.58117E-05   -0.57538E-06  2992   0.286E-03    0.602E-03
RMM:  10    -0.413176419462E+03    0.49628E-05   -0.19351E-06  2547   0.221E-03    0.305E-03
RMM:  11    -0.413176415303E+03    0.41587E-05   -0.15302E-06  2527   0.190E-03    0.153E-03
RMM:  12    -0.413176412502E+03    0.28017E-05   -0.66180E-07  2426   0.136E-03    0.541E-04
RMM:  13    -0.413176411464E+03    0.10373E-05   -0.28601E-07  1995   0.916E-04    0.328E-04
RMM:  14    -0.413176409913E+03    0.15517E-05   -0.16680E-07  1539   0.753E-04    0.181E-04
RMM:  15    -0.413176407345E+03    0.25677E-05   -0.15201E-07  1565   0.734E-04    0.186E-04
RMM:  16    -0.413176406783E+03    0.56208E-06   -0.58658E-08   965   0.591E-04
   25 T=    63. E= -.41286671E+03 F= -.41317641E+03 E0= -.41315461E+03  EK= 0.30969E+00 SP= 0.00E+00 SK= 0.00E+00
       N       E                     dE             d eps       ncg     rms          rms(c)
RMM:   1    -0.413168010821E+03    0.83965E-02   -0.11586E+01  4294   0.812E-01    0.925E-01
RMM:   2    -0.413178276143E+03   -0.10265E-01   -0.14128E-01  4274   0.111E-01    0.640E-01
RMM:   3    -0.413177646358E+03    0.62978E-03   -0.66601E-03  4706   0.419E-02    0.175E-01
RMM:   4    -0.413201398494E+03   -0.23752E-01   -0.23891E-02  5150   0.129E-01    0.643E-01
RMM:   5    -0.413177313560E+03    0.24085E-01   -0.11977E-02  4808   0.107E-01    0.322E-02
RMM:   6    -0.413177438978E+03   -0.12542E-03   -0.18886E-03  5810   0.411E-02    0.173E-02
RMM:   7    -0.413177443267E+03   -0.42893E-05   -0.18525E-04  5578   0.117E-02    0.112E-02
RMM:   8    -0.413177437978E+03    0.52890E-05   -0.24801E-05  4027   0.451E-03    0.812E-03
RMM:   9    -0.413177430590E+03    0.73876E-05   -0.54553E-06  2993   0.279E-03    0.559E-03
RMM:  10    -0.413177423379E+03    0.72111E-05   -0.16768E-06  2528   0.213E-03    0.299E-03
RMM:  11    -0.413177415285E+03    0.80946E-05   -0.14505E-06  2525   0.188E-03    0.148E-03
RMM:  12    -0.413177410437E+03    0.48476E-05   -0.58624E-07  2394   0.132E-03    0.553E-04
RMM:  13    -0.413177408660E+03    0.17765E-05   -0.25457E-07  1984   0.892E-04    0.327E-04
RMM:  14    -0.413177406069E+03    0.25911E-05   -0.14485E-07  1500   0.731E-04    0.169E-04
RMM:  15    -0.413177401679E+03    0.43899E-05   -0.14732E-07  1679   0.738E-04    0.222E-04
RMM:  16    -0.413177400864E+03    0.81513E-06   -0.48532E-08   919   0.569E-04
   26 T=    63. E= -.41286643E+03 F= -.41317740E+03 E0= -.41315565E+03  EK= 0.31097E+00 SP= 0.00E+00 SK= 0.00E+00
       N       E                     dE             d eps       ncg     rms          rms(c)
RMM:   1    -0.413169301320E+03    0.81004E-02   -0.11559E+01  4291   0.814E-01    0.900E-01
RMM:   2    -0.413180553972E+03   -0.11253E-01   -0.14299E-01  4273   0.104E-01    0.643E-01
RMM:   3    -0.413179638346E+03    0.91563E-03   -0.62524E-03  4697   0.407E-02    0.173E-01
RMM:   4    -0.413202561621E+03   -0.22923E-01   -0.23057E-02  5154   0.127E-01    0.632E-01
RMM:   5    -0.413179348989E+03    0.23213E-01   -0.11600E-02  4813   0.105E-01    0.298E-02
RMM:   6    -0.413179465767E+03   -0.11678E-03   -0.17536E-03  5823   0.401E-02    0.159E-02
RMM:   7    -0.413179472180E+03   -0.64127E-05   -0.17363E-04  5578   0.115E-02    0.105E-02
RMM:   8    -0.413179469312E+03    0.28679E-05   -0.23520E-05  3999   0.440E-03    0.770E-03
RMM:   9    -0.413179464176E+03    0.51364E-05   -0.52238E-06  2977   0.277E-03    0.529E-03
RMM:  10    -0.413179459987E+03    0.41883E-05   -0.16581E-06  2529   0.211E-03    0.279E-03
RMM:  11    -0.413179455827E+03    0.41599E-05   -0.13791E-06  2516   0.182E-03    0.142E-03
RMM:  12    -0.413179453118E+03    0.27091E-05   -0.56426E-07  2387   0.128E-03    0.530E-04
RMM:  13    -0.413179452086E+03    0.10327E-05   -0.23889E-07  1910   0.864E-04    0.307E-04
RMM:  14    -0.413179450498E+03    0.15876E-05   -0.14308E-07  1484   0.728E-04    0.159E-04
RMM:  15    -0.413179448223E+03    0.22746E-05   -0.12232E-07  1482   0.698E-04    0.166E-04
RMM:  16    -0.413179447595E+03    0.62806E-06   -0.46450E-08   915   0.575E-04
   27 T=    64. E= -.41286676E+03 F= -.41317945E+03 E0= -.41315775E+03  EK= 0.31269E+00 SP= 0.00E+00 SK= 0.00E+00
       N       E                     dE             d eps       ncg     rms          rms(c)
RMM:   1    -0.413172800221E+03    0.66480E-02   -0.11720E+01  4292   0.840E-01    0.909E-01
RMM:   2    -0.413181658472E+03   -0.88583E-02   -0.14704E-01  4268   0.107E-01    0.654E-01
RMM:   3    -0.413180561922E+03    0.10965E-02   -0.63756E-03  4648   0.413E-02    0.171E-01
RMM:   4    -0.413199562972E+03   -0.19001E-01   -0.19317E-02  5160   0.117E-01    0.578E-01
RMM:   5    -0.413180189720E+03    0.19373E-01   -0.96146E-03  4811   0.955E-02    0.275E-02
RMM:   6    -0.413180286211E+03   -0.96491E-04   -0.15153E-03  5845   0.364E-02    0.149E-02
RMM:   7    -0.413180292085E+03   -0.58746E-05   -0.14328E-04  5419   0.104E-02    0.959E-03
RMM:   8    -0.413180287716E+03    0.43692E-05   -0.16366E-05  3511   0.376E-03    0.650E-03
RMM:   9    -0.413180283333E+03    0.43829E-05   -0.35989E-06  2665   0.252E-03    0.364E-03
RMM:  10    -0.413180280976E+03    0.23573E-05   -0.12268E-06  2516   0.173E-03    0.243E-03
RMM:  11    -0.413180277088E+03    0.38884E-05   -0.10202E-06  2503   0.163E-03    0.119E-03
RMM:  12    -0.413180274761E+03    0.23267E-05   -0.46122E-07  2305   0.114E-03    0.446E-04
RMM:  13    -0.413180273909E+03    0.85153E-06   -0.20035E-07  1658   0.797E-04
   28 T=    64. E= -.41286613E+03 F= -.41318027E+03 E0= -.41315863E+03  EK= 0.31414E+00 SP= 0.00E+00 SK= 0.00E+00
       N       E                     dE             d eps       ncg     rms          rms(c)
RMM:   1    -0.413173064629E+03    0.72101E-02   -0.11776E+01  4291   0.841E-01    0.933E-01
RMM:   2    -0.413183495836E+03   -0.10431E-01   -0.14425E-01  4275   0.111E-01    0.646E-01
RMM:   3    -0.413182640656E+03    0.85518E-03   -0.67375E-03  4403   0.405E-02    0.172E-01
RMM:   4    -0.413188484333E+03   -0.58437E-02   -0.62346E-03  5169   0.673E-02    0.321E-01
RMM:   5    -0.413182659068E+03    0.58253E-02   -0.28662E-03  4829   0.523E-02    0.219E-02
RMM:   6    -0.413182669062E+03   -0.99939E-05   -0.47847E-04  5813   0.206E-02    0.149E-02
RMM:   7    -0.413182663301E+03    0.57608E-05   -0.64824E-05  5169   0.777E-03    0.837E-03
RMM:   8    -0.413182654211E+03    0.90904E-05   -0.70735E-06  3017   0.325E-03    0.396E-03
RMM:   9    -0.413182647406E+03    0.68050E-05   -0.15545E-06  2546   0.195E-03    0.243E-03
RMM:  10    -0.413182639974E+03    0.74316E-05   -0.78883E-07  2478   0.144E-03    0.132E-03
RMM:  11    -0.413182633762E+03    0.62120E-05   -0.48855E-07  2288   0.112E-03    0.496E-04
RMM:  12    -0.413182629548E+03    0.42148E-05   -0.24909E-07  1779   0.857E-04    0.210E-04
RMM:  13    -0.413182626342E+03    0.32058E-05   -0.13928E-07  1326   0.710E-04    0.128E-04
RMM:  14    -0.413182622267E+03    0.40749E-05   -0.11558E-07  1413   0.697E-04    0.971E-05
RMM:  15    -0.413182618781E+03    0.34854E-05   -0.89546E-08  1320   0.644E-04    0.935E-05
RMM:  16    -0.413182616266E+03    0.25158E-05   -0.62695E-08  1108   0.585E-04    0.482E-05
RMM:  17    -0.413182613969E+03    0.22963E-05   -0.49619E-08  1024   0.571E-04    0.260E-05
RMM:  18    -0.413182613603E+03    0.36572E-06   -0.22246E-08   750   0.521E-04
   29 T=    64. E= -.41286662E+03 F= -.41318261E+03 E0= -.41316102E+03  EK= 0.31600E+00 SP= 0.00E+00 SK= 0.00E+00
       N       E                     dE             d eps       ncg     rms          rms(c)
RMM:   1    -0.413174412757E+03    0.82012E-02   -0.11735E+01  4290   0.847E-01    0.910E-01
RMM:   2    -0.413185514593E+03   -0.11102E-01   -0.14696E-01  4270   0.109E-01    0.646E-01
RMM:   3    -0.413184411556E+03    0.11030E-02   -0.63694E-03  4439   0.423E-02    0.172E-01
RMM:   4    -0.413191909046E+03   -0.74975E-02   -0.80162E-03  5140   0.782E-02    0.367E-01
RMM:   5    -0.413184253956E+03    0.76551E-02   -0.37759E-03  4821   0.598E-02    0.207E-02
RMM:   6    -0.413184270662E+03   -0.16706E-04   -0.58222E-04  5826   0.229E-02    0.137E-02
RMM:   7    -0.413184268048E+03    0.26144E-05   -0.71915E-05  5237   0.812E-03    0.875E-03
RMM:   8    -0.413184260837E+03    0.72104E-05   -0.84115E-06  3149   0.347E-03    0.447E-03
RMM:   9    -0.413184255713E+03    0.51240E-05   -0.18734E-06  2579   0.213E-03    0.266E-03
RMM:  10    -0.413184250421E+03    0.52922E-05   -0.85907E-07  2487   0.150E-03    0.144E-03
RMM:  11    -0.413184246023E+03    0.43978E-05   -0.51403E-07  2322   0.116E-03    0.601E-04
RMM:  12    -0.413184242780E+03    0.32428E-05   -0.27688E-07  1892   0.894E-04    0.214E-04
RMM:  13    -0.413184240752E+03    0.20282E-05   -0.14396E-07  1317   0.714E-04    0.134E-04
RMM:  14    -0.413184238078E+03    0.26743E-05   -0.11081E-07  1321   0.687E-04    0.915E-05
RMM:  15    -0.413184235510E+03    0.25675E-05   -0.85823E-08  1245   0.648E-04    0.671E-05
RMM:  16    -0.413184233997E+03    0.15131E-05   -0.53351E-08  1024   0.590E-04    0.450E-05
RMM:  17    -0.413184231734E+03    0.22629E-05   -0.56186E-08  1112   0.591E-04    0.206E-05
RMM:  18    -0.413184231181E+03    0.55305E-06   -0.23116E-08   757   0.525E-04
   30 T=    65. E= -.41286659E+03 F= -.41318423E+03 E0= -.41316268E+03  EK= 0.31765E+00 SP= 0.00E+00 SK= 0.00E+00
       N       E                     dE             d eps       ncg     rms          rms(c)
RMM:   1    -0.413176518098E+03    0.77136E-02   -0.11870E+01  4288   0.881E-01    0.911E-01
RMM:   2    -0.413188064871E+03   -0.11547E-01   -0.15207E-01  4272   0.123E-01    0.660E-01
RMM:   3    -0.413186080047E+03    0.19848E-02   -0.61882E-03  4376   0.403E-02    0.170E-01
RMM:   4    -0.413189945701E+03   -0.38657E-02   -0.45714E-03  5139   0.579E-02    0.262E-01
RMM:   5    -0.413186066924E+03    0.38788E-02   -0.19078E-03  4822   0.427E-02    0.176E-02
RMM:   6    -0.413186068100E+03   -0.11763E-05   -0.30620E-04  5756   0.171E-02    0.123E-02
RMM:   7    -0.413186065425E+03    0.26753E-05   -0.42832E-05  4837   0.667E-03    0.658E-03
RMM:   8    -0.413186060139E+03    0.52860E-05   -0.61001E-06  2995   0.316E-03    0.309E-03
RMM:   9    -0.413186057604E+03    0.25345E-05   -0.11756E-06  2517   0.180E-03    0.176E-03
RMM:  10    -0.413186054574E+03    0.30300E-05   -0.62248E-07  2360   0.122E-03    0.101E-03
RMM:  11    -0.413186051970E+03    0.26041E-05   -0.38596E-07  2029   0.970E-04    0.405E-04
RMM:  12    -0.413186049757E+03    0.22137E-05   -0.23037E-07  1608   0.804E-04    0.166E-04
RMM:  13    -0.413186048126E+03    0.16303E-05   -0.13426E-07  1222   0.693E-04    0.101E-04
RMM:  14    -0.413186046382E+03    0.17447E-05   -0.10290E-07  1211   0.662E-04    0.550E-05
RMM:  15    -0.413186044589E+03    0.17926E-05   -0.85062E-08  1212   0.637E-04    0.515E-05
RMM:  16    -0.413186043580E+03    0.10087E-05   -0.44013E-08   878   0.570E-04    0.247E-05
RMM:  17    -0.413186042537E+03    0.10437E-05   -0.34851E-08   852   0.560E-04    0.171E-05
RMM:  18    -0.413186042249E+03    0.28733E-06   -0.17319E-08   697   0.532E-04
   31 T=    65. E= -.41286664E+03 F= -.41318604E+03 E0= -.41316455E+03  EK= 0.31940E+00 SP= 0.00E+00 SK= 0.00E+00
       N       E                     dE             d eps       ncg     rms          rms(c)
RMM:   1    -0.413187422707E+03   -0.13802E-02   -0.12061E+01  4289   0.925E-01    0.939E-01
RMM:   2    -0.413189761723E+03   -0.23390E-02   -0.15380E-01  4272   0.119E-01    0.654E-01
RMM:   3    -0.413188772936E+03    0.98879E-03   -0.67708E-03  4242   0.482E-02    0.179E-01
RMM:   4    -0.413190481378E+03   -0.17084E-02   -0.24942E-03  5078   0.454E-02    0.172E-01
RMM:   5    -0.413188817584E+03    0.16638E-02   -0.78459E-04  4774   0.283E-02    0.195E-02
RMM:   6    -0.413188808916E+03    0.86683E-05   -0.15879E-04  5612   0.131E-02    0.140E-02
RMM:   7    -0.413188796498E+03    0.12418E-04   -0.28222E-05  4415   0.600E-03    0.498E-03
RMM:   8    -0.413188787511E+03    0.89867E-05   -0.42511E-06  2817   0.296E-03    0.259E-03
RMM:   9    -0.413188783121E+03    0.43900E-05   -0.78930E-07  2475   0.164E-03    0.146E-03
RMM:  10    -0.413188776338E+03    0.67834E-05   -0.50142E-07  2298   0.114E-03    0.733E-04
RMM:  11    -0.413188771578E+03    0.47593E-05   -0.26537E-07  1741   0.851E-04    0.305E-04
RMM:  12    -0.413188766947E+03    0.46313E-05   -0.17101E-07  1492   0.753E-04    0.147E-04
RMM:  13    -0.413188762808E+03    0.41387E-05   -0.11819E-07  1320   0.685E-04    0.863E-05
RMM:  14    -0.413188759140E+03    0.36686E-05   -0.86322E-08  1229   0.638E-04    0.658E-05
RMM:  15    -0.413188755336E+03    0.38038E-05   -0.72928E-08  1176   0.616E-04    0.436E-05
RMM:  16    -0.413188753188E+03    0.21481E-05   -0.48447E-08  1002   0.568E-04    0.325E-05
RMM:  17    -0.413188752382E+03    0.80545E-06   -0.27921E-08   768   0.521E-04
   32 T=    65. E= -.41286710E+03 F= -.41318875E+03 E0= -.41316730E+03  EK= 0.32165E+00 SP= 0.00E+00 SK= 0.00E+00
       N       E                     dE             d eps       ncg     rms          rms(c)
RMM:   1    -0.413191671780E+03   -0.29186E-02   -0.12061E+01  4291   0.943E-01    0.925E-01
RMM:   2    -0.413192048834E+03   -0.37705E-03   -0.15739E-01  4282   0.131E-01    0.651E-01
RMM:   3    -0.413190695164E+03    0.13537E-02   -0.62957E-03  4180   0.397E-02    0.183E-01
RMM:   4    -0.413190824423E+03   -0.12926E-03   -0.12211E-03  4882   0.281E-02    0.563E-02
RMM:   5    -0.413190661058E+03    0.16336E-03   -0.10052E-04  4691   0.108E-02    0.200E-02
RMM:   6    -0.413190646826E+03    0.14232E-04   -0.58282E-05  5150   0.823E-03    0.128E-02
RMM:   7    -0.413190634264E+03    0.12562E-04   -0.12864E-05  3478   0.471E-03    0.389E-03
RMM:   8    -0.413190626522E+03    0.77415E-05   -0.22412E-06  2507   0.242E-03    0.206E-03
RMM:   9    -0.413190622703E+03    0.38186E-05   -0.53436E-07  2245   0.134E-03    0.112E-03
RMM:  10    -0.413190617157E+03    0.55466E-05   -0.29115E-07  1768   0.903E-04    0.483E-04
RMM:  11    -0.413190611409E+03    0.57481E-05   -0.17648E-07  1464   0.736E-04    0.190E-04
RMM:  12    -0.413190608267E+03    0.31420E-05   -0.73540E-08  1081   0.614E-04    0.125E-04
RMM:  13    -0.413190602041E+03    0.62257E-05   -0.94599E-08  1295   0.659E-04    0.806E-05
RMM:  14    -0.413190598895E+03    0.31463E-05   -0.41808E-08   914   0.547E-04    0.661E-05
RMM:  15    -0.413190596311E+03    0.25839E-05   -0.31478E-08   848   0.523E-04    0.452E-05
RMM:  16    -0.413190594607E+03    0.17043E-05   -0.19924E-08   686   0.492E-04    0.235E-05
RMM:  17    -0.413190594124E+03    0.48259E-06   -0.79935E-09   524   0.465E-04
   33 T=    66. E= -.41286683E+03 F= -.41319059E+03 E0= -.41316919E+03  EK= 0.32376E+00 SP= 0.00E+00 SK= 0.00E+00
       N       E                     dE             d eps       ncg     rms          rms(c)
RMM:   1    -0.413184351401E+03    0.62432E-02   -0.12096E+01  4288   0.923E-01    0.916E-01
RMM:   2    -0.413194695185E+03   -0.10344E-01   -0.15721E-01  4266   0.126E-01    0.664E-01
RMM:   3    -0.413193175324E+03    0.15199E-02   -0.62316E-03  4423   0.441E-02    0.178E-01
RMM:   4    -0.413200526322E+03   -0.73510E-02   -0.78313E-03  5144   0.780E-02    0.361E-01
RMM:   5    -0.413193157482E+03    0.73688E-02   -0.35811E-03  4809   0.591E-02    0.211E-02
RMM:   6    -0.413193147183E+03    0.10299E-04   -0.56340E-04  5778   0.238E-02    0.131E-02
RMM:   7    -0.413193147707E+03   -0.52362E-06   -0.71912E-05  5185   0.831E-03    0.830E-03
RMM:   8    -0.413193142379E+03    0.53281E-05   -0.98190E-06  3311   0.363E-03    0.432E-03
RMM:   9    -0.413193138722E+03    0.36564E-05   -0.19946E-06  2584   0.222E-03    0.234E-03
RMM:  10    -0.413193134996E+03    0.37264E-05   -0.82716E-07  2481   0.146E-03    0.122E-03
RMM:  11    -0.413193131598E+03    0.33978E-05   -0.51240E-07  2301   0.113E-03    0.580E-04
RMM:  12    -0.413193128578E+03    0.30200E-05   -0.30904E-07  1918   0.907E-04    0.203E-04
RMM:  13    -0.413193127111E+03    0.14668E-05   -0.14805E-07  1283   0.709E-04    0.133E-04
RMM:  14    -0.413193125254E+03    0.18574E-05   -0.10829E-07  1150   0.674E-04    0.774E-05
RMM:  15    -0.413193123482E+03    0.17717E-05   -0.82074E-08  1136   0.649E-04    0.445E-05
RMM:  16    -0.413193122715E+03    0.76690E-06   -0.51454E-08   975   0.605E-04
   34 T=    66. E= -.41286693E+03 F= -.41319312E+03 E0= -.41317177E+03  EK= 0.32619E+00 SP= 0.00E+00 SK= 0.00E+00
       N       E                     dE             d eps       ncg     rms          rms(c)
RMM:   1    -0.413187158919E+03    0.59646E-02   -0.12226E+01  4299   0.956E-01    0.942E-01
RMM:   2    -0.413196968492E+03   -0.98096E-02   -0.15936E-01  4262   0.135E-01    0.664E-01
RMM:   3    -0.413195896598E+03    0.10719E-02   -0.65407E-03  4533   0.441E-02    0.186E-01
RMM:   4    -0.413205719441E+03   -0.98228E-02   -0.10329E-02  5163   0.874E-02    0.422E-01
RMM:   5    -0.413195670824E+03    0.10049E-01   -0.50896E-03  4816   0.695E-02    0.245E-02
RMM:   6    -0.413195663095E+03    0.77285E-05   -0.79935E-04  5788   0.275E-02    0.146E-02
RMM:   7    -0.413195661769E+03    0.13258E-05   -0.10281E-04  5366   0.915E-03    0.941E-03
RMM:   8    -0.413195654121E+03    0.76484E-05   -0.12294E-05  3500   0.378E-03    0.515E-03
RMM:   9    -0.413195647272E+03    0.68492E-05   -0.23453E-06  2604   0.230E-03    0.283E-03
RMM:  10    -0.413195639791E+03    0.74804E-05   -0.97736E-07  2497   0.159E-03    0.142E-03
RMM:  11    -0.413195633361E+03    0.64301E-05   -0.58735E-07  2396   0.123E-03    0.668E-04
RMM:  12    -0.413195627907E+03    0.54540E-05   -0.32207E-07  2086   0.956E-04    0.235E-04
RMM:  13    -0.413195625292E+03    0.26151E-05   -0.15426E-07  1379   0.734E-04    0.159E-04
RMM:  14    -0.413195621250E+03    0.40419E-05   -0.10638E-07  1213   0.679E-04    0.106E-04
RMM:  15    -0.413195617473E+03    0.37778E-05   -0.83734E-08  1233   0.656E-04    0.647E-05
RMM:  16    -0.413195615305E+03    0.21681E-05   -0.54918E-08  1058   0.608E-04    0.529E-05
RMM:  17    -0.413195611802E+03    0.35030E-05   -0.58951E-08  1254   0.621E-04    0.364E-05
RMM:  18    -0.413195610584E+03    0.12176E-05   -0.27004E-08   846   0.539E-04    0.166E-05
RMM:  19    -0.413195610393E+03    0.19113E-06   -0.14660E-08   684   0.513E-04
   35 T=    67. E= -.41286679E+03 F= -.41319561E+03 E0= -.41317430E+03  EK= 0.32882E+00 SP= 0.00E+00 SK= 0.00E+00
       N       E                     dE             d eps       ncg     rms          rms(c)
RMM:   1    -0.413189160812E+03    0.64498E-02   -0.12263E+01  4298   0.965E-01    0.942E-01
RMM:   2    -0.413198974006E+03   -0.98132E-02   -0.15756E-01  4260   0.119E-01    0.657E-01
RMM:   3    -0.413198184144E+03    0.78986E-03   -0.67894E-03  4841   0.444E-02    0.197E-01
RMM:   4    -0.413230297191E+03   -0.32113E-01   -0.32406E-02  5156   0.151E-01    0.747E-01
RMM:   5    -0.413197801915E+03    0.32495E-01   -0.16350E-02  4800   0.124E-01    0.374E-02
RMM:   6    -0.413197866844E+03   -0.64929E-04   -0.25780E-03  5862   0.473E-02    0.184E-02
RMM:   7    -0.413197879342E+03   -0.12498E-04   -0.26219E-04  5749   0.137E-02    0.130E-02
RMM:   8    -0.413197872944E+03    0.63975E-05   -0.33158E-05  4367   0.515E-03    0.906E-03
RMM:   9    -0.413197866901E+03    0.60431E-05   -0.78660E-06  3258   0.329E-03    0.608E-03
RMM:  10    -0.413197856453E+03    0.10448E-04   -0.23170E-06  2561   0.256E-03    0.270E-03
RMM:  11    -0.413197848900E+03    0.75533E-05   -0.14580E-06  2510   0.192E-03    0.150E-03
RMM:  12    -0.413197841763E+03    0.71371E-05   -0.68773E-07  2445   0.147E-03    0.558E-04
RMM:  13    -0.413197839165E+03    0.25982E-05   -0.29261E-07  2126   0.968E-04    0.376E-04
RMM:  14    -0.413197836781E+03    0.23832E-05   -0.13907E-07  1513   0.733E-04    0.216E-04
RMM:  15    -0.413197830572E+03    0.62095E-05   -0.12534E-07  1675   0.733E-04    0.221E-04
RMM:  16    -0.413197829723E+03    0.84895E-06   -0.43867E-08   919   0.572E-04
   36 T=    67. E= -.41286665E+03 F= -.41319783E+03 E0= -.41317657E+03  EK= 0.33118E+00 SP= 0.00E+00 SK= 0.00E+00
       N       E                     dE             d eps       ncg     rms          rms(c)
RMM:   1    -0.413190520556E+03    0.73100E-02   -0.12321E+01  4299   0.989E-01    0.924E-01
RMM:   2    -0.413202420515E+03   -0.11900E-01   -0.16434E-01  4259   0.135E-01    0.669E-01
RMM:   3    -0.413201249106E+03    0.11714E-02   -0.65743E-03  4831   0.516E-02    0.206E-01
RMM:   4    -0.413243940105E+03   -0.42691E-01   -0.43613E-02  5152   0.175E-01    0.857E-01
RMM:   5    -0.413200549231E+03    0.43391E-01   -0.21883E-02  4800   0.144E-01    0.406E-02
RMM:   6    -0.413200658870E+03   -0.10964E-03   -0.33043E-03  5858   0.542E-02    0.189E-02
RMM:   7    -0.413200676214E+03   -0.17344E-04   -0.32955E-04  5722   0.152E-02    0.130E-02
RMM:   8    -0.413200672278E+03    0.39368E-05   -0.36568E-05  3963   0.494E-03    0.878E-03
RMM:   9    -0.413200664937E+03    0.73409E-05   -0.71527E-06  3005   0.326E-03    0.414E-03
RMM:  10    -0.413200660820E+03    0.41164E-05   -0.25461E-06  2591   0.231E-03    0.264E-03
RMM:  11    -0.413200655153E+03    0.56676E-05   -0.13587E-06  2500   0.194E-03    0.127E-03
RMM:  12    -0.413200651298E+03    0.38550E-05   -0.59974E-07  2415   0.133E-03    0.501E-04
RMM:  13    -0.413200649896E+03    0.14021E-05   -0.28033E-07  2008   0.917E-04    0.330E-04
RMM:  14    -0.413200647359E+03    0.25371E-05   -0.16441E-07  1540   0.757E-04    0.199E-04
RMM:  15    -0.413200643903E+03    0.34556E-05   -0.11936E-07  1376   0.702E-04    0.132E-04
RMM:  16    -0.413200642528E+03    0.13746E-05   -0.63371E-08  1047   0.618E-04    0.666E-05
RMM:  17    -0.413200639741E+03    0.27869E-05   -0.63129E-08  1191   0.631E-04    0.457E-05
RMM:  18    -0.413200637928E+03    0.18137E-05   -0.44938E-08  1051   0.592E-04    0.215E-05
RMM:  19    -0.413200637515E+03    0.41226E-06   -0.21132E-08   804   0.546E-04
   37 T=    68. E= -.41286679E+03 F= -.41320064E+03 E0= -.41317942E+03  EK= 0.33384E+00 SP= 0.00E+00 SK= 0.00E+00
       N       E                     dE             d eps       ncg     rms          rms(c)
RMM:   1    -0.413198648996E+03    0.19889E-02   -0.12540E+01  4304   0.106E+00    0.946E-01
RMM:   2    -0.413205368240E+03   -0.67192E-02   -0.16313E-01  4257   0.131E-01    0.673E-01
RMM:   3    -0.413203966220E+03    0.14020E-02   -0.67822E-03  4753   0.507E-02    0.201E-01
RMM:   4    -0.413237936370E+03   -0.33970E-01   -0.34198E-02  5155   0.155E-01    0.767E-01
RMM:   5    -0.413203501911E+03    0.34434E-01   -0.17493E-02  4808   0.128E-01    0.368E-02
RMM:   6    -0.413203570921E+03   -0.69010E-04   -0.26136E-03  5846   0.482E-02    0.181E-02
RMM:   7    -0.413203585577E+03   -0.14656E-04   -0.27376E-04  5784   0.140E-02    0.130E-02
RMM:   8    -0.413203580106E+03    0.54711E-05   -0.34580E-05  4378   0.518E-03    0.901E-03
RMM:   9    -0.413203575592E+03    0.45143E-05   -0.79034E-06  3255   0.321E-03    0.606E-03
RMM:  10    -0.413203567061E+03    0.85307E-05   -0.22909E-06  2548   0.247E-03    0.268E-03
RMM:  11    -0.413203560978E+03    0.60831E-05   -0.14635E-06  2508   0.191E-03    0.146E-03
RMM:  12    -0.413203555573E+03    0.54048E-05   -0.67639E-07  2442   0.143E-03    0.558E-04
RMM:  13    -0.413203553540E+03    0.20330E-05   -0.29626E-07  2130   0.965E-04    0.373E-04
RMM:  14    -0.413203551402E+03    0.21376E-05   -0.14466E-07  1529   0.737E-04    0.205E-04
RMM:  15    -0.413203546428E+03    0.49747E-05   -0.12380E-07  1582   0.723E-04    0.189E-04
RMM:  16    -0.413203545541E+03    0.88704E-06   -0.46674E-08   930   0.585E-04
   38 T=    68. E= -.41286713E+03 F= -.41320355E+03 E0= -.41318237E+03  EK= 0.33642E+00 SP= 0.00E+00 SK= 0.00E+00
       N       E                     dE             d eps       ncg     rms          rms(c)
RMM:   1    -0.413201156712E+03    0.23897E-02   -0.12599E+01  4303   0.108E+00    0.958E-01
RMM:   2    -0.413206814977E+03   -0.56583E-02   -0.16742E-01  4263   0.127E-01    0.667E-01
RMM:   3    -0.413206197720E+03    0.61726E-03   -0.72589E-03  4946   0.536E-02    0.226E-01
RMM:   4    -0.413256076224E+03   -0.49879E-01   -0.52448E-02  5139   0.190E-01    0.927E-01
RMM:   5    -0.413205184670E+03    0.50892E-01   -0.25403E-02  4793   0.156E-01    0.463E-02
RMM:   6    -0.413205336505E+03   -0.15184E-03   -0.39509E-03  5839   0.587E-02    0.212E-02
RMM:   7    -0.413205355785E+03   -0.19280E-04   -0.39351E-04  5788   0.166E-02    0.145E-02
RMM:   8    -0.413205352473E+03    0.33120E-05   -0.50449E-05  4477   0.576E-03    0.106E-02
RMM:   9    -0.413205343405E+03    0.90678E-05   -0.11061E-05  3587   0.357E-03    0.692E-03
RMM:  10    -0.413205333268E+03    0.10138E-04   -0.35185E-06  2667   0.287E-03    0.320E-03
RMM:  11    -0.413205324973E+03    0.82950E-05   -0.17211E-06  2519   0.212E-03    0.181E-03
RMM:  12    -0.413205316625E+03    0.83476E-05   -0.84701E-07  2465   0.162E-03    0.615E-04
RMM:  13    -0.413205312746E+03    0.38785E-05   -0.35399E-07  2268   0.107E-03    0.421E-04
RMM:  14    -0.413205309553E+03    0.31936E-05   -0.16915E-07  1698   0.785E-04    0.289E-04
RMM:  15    -0.413205301520E+03    0.80325E-05   -0.14515E-07  1785   0.763E-04    0.251E-04
RMM:  16    -0.413205300759E+03    0.76170E-06   -0.50830E-08   992   0.577E-04
   39 T=    69. E= -.41286658E+03 F= -.41320530E+03 E0= -.41318416E+03  EK= 0.33872E+00 SP= 0.00E+00 SK= 0.00E+00
       N       E                     dE             d eps       ncg     rms          rms(c)
RMM:   1    -0.413201433766E+03    0.38678E-02   -0.12598E+01  4307   0.113E+00    0.935E-01
RMM:   2    -0.413210390016E+03   -0.89563E-02   -0.16904E-01  4261   0.135E-01    0.673E-01
RMM:   3    -0.413209603848E+03    0.78617E-03   -0.69742E-03  4988   0.534E-02    0.235E-01
RMM:   4    -0.413263719240E+03   -0.54115E-01   -0.58156E-02  5137   0.200E-01    0.964E-01
RMM:   5    -0.413208378556E+03    0.55341E-01   -0.27379E-02  4787   0.162E-01    0.484E-02
RMM:   6    -0.413208555915E+03   -0.17736E-03   -0.43354E-03  5829   0.611E-02    0.207E-02
RMM:   7    -0.413208579698E+03   -0.23783E-04   -0.43445E-04  5849   0.174E-02    0.148E-02
RMM:   8    -0.413208579503E+03    0.19485E-06   -0.58593E-05  4767   0.624E-03    0.112E-02
RMM:   9    -0.413208571908E+03    0.75948E-05   -0.11198E-05  3564   0.360E-03    0.711E-03
RMM:  10    -0.413208564242E+03    0.76665E-05   -0.36636E-06  2659   0.292E-03    0.320E-03
RMM:  11    -0.413208558780E+03    0.54616E-05   -0.17631E-06  2513   0.214E-03    0.181E-03
RMM:  12    -0.413208553160E+03    0.56209E-05   -0.90794E-07  2469   0.164E-03    0.633E-04
RMM:  13    -0.413208550634E+03    0.25256E-05   -0.38134E-07  2281   0.109E-03    0.438E-04
RMM:  14    -0.413208548391E+03    0.22426E-05   -0.19486E-07  1778   0.803E-04    0.294E-04
RMM:  15    -0.413208542813E+03    0.55787E-05   -0.16319E-07  1704   0.761E-04    0.235E-04
RMM:  16    -0.413208542425E+03    0.38731E-06   -0.62301E-08  1039   0.591E-04
   40 T=    69. E= -.41286720E+03 F= -.41320854E+03 E0= -.41318744E+03  EK= 0.34135E+00 SP= 0.00E+00 SK= 0.00E+00
       N       E                     dE             d eps       ncg     rms          rms(c)
RMM:   1    -0.413204593299E+03    0.39495E-02   -0.12779E+01  4306   0.118E+00    0.948E-01
RMM:   2    -0.413211530539E+03   -0.69372E-02   -0.17467E-01  4266   0.139E-01    0.683E-01
RMM:   3    -0.413211253488E+03    0.27705E-03   -0.74573E-03  5046   0.561E-02    0.257E-01
RMM:   4    -0.413267403401E+03   -0.56150E-01   -0.62903E-02  5132   0.208E-01    0.985E-01
RMM:   5    -0.413209557833E+03    0.57846E-01   -0.28100E-02  4771   0.166E-01    0.517E-02
RMM:   6    -0.413209749838E+03   -0.19200E-03   -0.45735E-03  5821   0.625E-02    0.206E-02
RMM:   7    -0.413209775456E+03   -0.25618E-04   -0.46769E-04  5926   0.181E-02    0.155E-02
RMM:   8    -0.413209775712E+03   -0.25558E-06   -0.66416E-05  4928   0.673E-03    0.117E-02
RMM:   9    -0.413209767332E+03    0.83797E-05   -0.10166E-05  3399   0.362E-03    0.680E-03
RMM:  10    -0.413209759515E+03    0.78173E-05   -0.39494E-06  2703   0.299E-03    0.299E-03
RMM:  11    -0.413209753902E+03    0.56128E-05   -0.17320E-06  2519   0.212E-03    0.154E-03
RMM:  12    -0.413209748626E+03    0.52761E-05   -0.86504E-07  2468   0.159E-03    0.601E-04
RMM:  13    -0.413209746224E+03    0.24019E-05   -0.36719E-07  2234   0.107E-03    0.421E-04
RMM:  14    -0.413209743192E+03    0.30316E-05   -0.20243E-07  1765   0.812E-04    0.290E-04
RMM:  15    -0.413209738717E+03    0.44753E-05   -0.14175E-07  1480   0.723E-04    0.165E-04
RMM:  16    -0.413209737609E+03    0.11081E-05   -0.67538E-08  1045   0.610E-04    0.832E-05
RMM:  17    -0.413209735525E+03    0.20840E-05   -0.54963E-08  1038   0.607E-04    0.472E-05
RMM:  18    -0.413209731755E+03    0.37704E-05   -0.64090E-08  1205   0.635E-04    0.451E-05
RMM:  19    -0.413209731169E+03    0.58561E-06   -0.25306E-08   829   0.563E-04
   41 T=    70. E= -.41286656E+03 F= -.41320973E+03 E0= -.41318867E+03  EK= 0.34317E+00 SP= 0.00E+00 SK= 0.00E+00
       N       E                     dE             d eps       ncg     rms          rms(c)
RMM:   1    -0.413213327524E+03   -0.35958E-02   -0.12910E+01  4308   0.126E+00    0.972E-01
RMM:   2    -0.413213194566E+03    0.13296E-03   -0.17805E-01  4286   0.146E-01    0.675E-01
RMM:   3    -0.413216007585E+03   -0.28130E-02   -0.99173E-03  5125   0.730E-02    0.334E-01
RMM:   4    -0.413249826242E+03   -0.33819E-01   -0.49804E-02  5094   0.187E-01    0.810E-01
RMM:   5    -0.413212183713E+03    0.37643E-01   -0.16907E-02  4727   0.135E-01    0.494E-02
RMM:   6    -0.413212234378E+03   -0.50665E-04   -0.27878E-03  5755   0.498E-02    0.182E-02
RMM:   7    -0.413212247998E+03   -0.13619E-04   -0.32802E-04  5900   0.155E-02    0.142E-02
RMM:   8    -0.413212245372E+03    0.26255E-05   -0.49112E-05  4795   0.605E-03    0.944E-03
RMM:   9    -0.413212233362E+03    0.12011E-04   -0.76133E-06  3145   0.372E-03    0.451E-03
RMM:  10    -0.413212223623E+03    0.97391E-05   -0.26925E-06  2569   0.253E-03    0.229E-03
RMM:  11    -0.413212215891E+03    0.77312E-05   -0.10344E-06  2511   0.164E-03    0.976E-04
RMM:  12    -0.413212210593E+03    0.52986E-05   -0.41384E-07  2321   0.112E-03    0.506E-04
RMM:  13    -0.413212205422E+03    0.51704E-05   -0.24880E-07  1673   0.852E-04    0.245E-04
RMM:  14    -0.413212201654E+03    0.37683E-05   -0.15597E-07  1358   0.737E-04    0.146E-04
RMM:  15    -0.413212196604E+03    0.50501E-05   -0.12604E-07  1394   0.713E-04    0.960E-05
RMM:  16    -0.413212192314E+03    0.42899E-05   -0.95067E-08  1356   0.663E-04    0.561E-05
RMM:  17    -0.413212188251E+03    0.40634E-05   -0.74540E-08  1273   0.626E-04    0.471E-05
RMM:  18    -0.413212186659E+03    0.15921E-05   -0.44925E-08   974   0.557E-04    0.328E-05
RMM:  19    -0.413212185895E+03    0.76338E-06   -0.31329E-08   861   0.536E-04
   42 T=    70. E= -.41286709E+03 F= -.41321219E+03 E0= -.41319115E+03  EK= 0.34510E+00 SP= 0.00E+00 SK= 0.00E+00
       N       E                     dE             d eps       ncg     rms          rms(c)
RMM:   1    -0.413213771098E+03   -0.15844E-02   -0.12865E+01  4310   0.134E+00    0.947E-01
RMM:   2    -0.413215057101E+03   -0.12860E-02   -0.17669E-01  4293   0.155E-01    0.676E-01
RMM:   3    -0.413218977747E+03   -0.39206E-02   -0.10731E-02  5108   0.818E-02    0.368E-01
RMM:   4    -0.413247207352E+03   -0.28230E-01   -0.47621E-02  5062   0.184E-01    0.764E-01
RMM:   5    -0.413213974404E+03    0.33233E-01   -0.14496E-02  4704   0.128E-01    0.479E-02
RMM:   6    -0.413213997507E+03   -0.23103E-04   -0.24221E-03  5739   0.466E-02    0.172E-02
RMM:   7    -0.413214006727E+03   -0.92195E-05   -0.27505E-04  5887   0.147E-02    0.136E-02
RMM:   8    -0.413214004353E+03    0.23736E-05   -0.42570E-05  4731   0.579E-03    0.870E-03
RMM:   9    -0.413213994470E+03    0.98836E-05   -0.73300E-06  3148   0.382E-03    0.422E-03
RMM:  10    -0.413213987207E+03    0.72623E-05   -0.24878E-06  2565   0.249E-03    0.232E-03
RMM:  11    -0.413213981668E+03    0.55391E-05   -0.10237E-06  2513   0.161E-03    0.101E-03
RMM:  12    -0.413213978114E+03    0.35546E-05   -0.42876E-07  2311   0.111E-03    0.518E-04
RMM:  13    -0.413213973775E+03    0.43389E-05   -0.29934E-07  1764   0.894E-04    0.269E-04
RMM:  14    -0.413213971522E+03    0.22525E-05   -0.17216E-07  1341   0.739E-04    0.148E-04
RMM:  15    -0.413213968040E+03    0.34823E-05   -0.13377E-07  1264   0.702E-04    0.854E-05
RMM:  16    -0.413213964562E+03    0.34776E-05   -0.10370E-07  1231   0.675E-04    0.478E-05
RMM:  17    -0.413213961633E+03    0.29290E-05   -0.84190E-08  1285   0.647E-04    0.401E-05
RMM:  18    -0.413213959854E+03    0.17790E-05   -0.54138E-08  1048   0.585E-04    0.332E-05
RMM:  19    -0.413213958983E+03    0.87141E-06   -0.34686E-08   851   0.544E-04
   43 T=    71. E= -.41286719E+03 F= -.41321396E+03 E0= -.41319296E+03  EK= 0.34677E+00 SP= 0.00E+00 SK= 0.00E+00
       N       E                     dE             d eps       ncg     rms          rms(c)
RMM:   1    -0.413240451042E+03   -0.26491E-01   -0.13251E+01  4312   0.152E+00    0.949E-01
RMM:   2    -0.413215977779E+03    0.24473E-01   -0.20065E-01  4293   0.176E-01    0.692E-01
RMM:   3    -0.413221369764E+03   -0.53920E-02   -0.12024E-02  5101   0.917E-02    0.418E-01
RMM:   4    -0.413245932731E+03   -0.24563E-01   -0.48336E-02  5055   0.187E-01    0.746E-01
RMM:   5    -0.413214700183E+03    0.31233E-01   -0.13484E-02  4681   0.127E-01    0.502E-02
RMM:   6    -0.413214703278E+03   -0.30952E-05   -0.22970E-03  5676   0.456E-02    0.176E-02
RMM:   7    -0.413214712740E+03   -0.94622E-05   -0.27091E-04  5917   0.148E-02    0.140E-02
RMM:   8    -0.413214710424E+03    0.23169E-05   -0.40798E-05  4718   0.577E-03    0.884E-03
RMM:   9    -0.413214701489E+03    0.89342E-05   -0.85812E-06  3332   0.423E-03    0.445E-03
RMM:  10    -0.413214695530E+03    0.59594E-05   -0.27409E-06  2600   0.263E-03    0.266E-03
RMM:  11    -0.413214691240E+03    0.42896E-05   -0.12484E-06  2517   0.176E-03    0.113E-03
RMM:  12    -0.413214688631E+03    0.26094E-05   -0.52396E-07  2434   0.122E-03    0.616E-04
RMM:  13    -0.413214684902E+03    0.37286E-05   -0.39652E-07  1946   0.993E-04    0.381E-04
RMM:  14    -0.413214683280E+03    0.16221E-05   -0.20277E-07  1430   0.779E-04    0.199E-04
RMM:  15    -0.413214680816E+03    0.24641E-05   -0.15061E-07  1270   0.720E-04    0.120E-04
RMM:  16    -0.413214677772E+03    0.30443E-05   -0.12422E-07  1263   0.693E-04    0.580E-05
RMM:  17    -0.413214676202E+03    0.15698E-05   -0.79146E-08  1098   0.637E-04    0.438E-05
RMM:  18    -0.413214674109E+03    0.20936E-05   -0.67892E-08  1118   0.618E-04    0.393E-05
RMM:  19    -0.413214673095E+03    0.10131E-05   -0.42491E-08   908   0.569E-04    0.294E-05
RMM:  20    -0.413214672679E+03    0.41605E-06   -0.25571E-08   758   0.543E-04
   44 T=    71. E= -.41286685E+03 F= -.41321467E+03 E0= -.41319370E+03  EK= 0.34782E+00 SP= 0.00E+00 SK= 0.00E+00
       N       E                     dE             d eps       ncg     rms          rms(c)
RMM:   1    -0.413244124641E+03   -0.29452E-01   -0.13341E+01  4307   0.159E+00    0.978E-01
RMM:   2    -0.413216511557E+03    0.27613E-01   -0.19040E-01  4349   0.181E-01    0.683E-01
RMM:   3    -0.413229087878E+03   -0.12576E-01   -0.18472E-02  5143   0.117E-01    0.534E-01
RMM:   4    -0.413231456071E+03   -0.23682E-02   -0.37406E-02  5019   0.169E-01    0.543E-01
RMM:   5    -0.413216219160E+03    0.15237E-01   -0.59123E-03  4561   0.950E-02    0.425E-02
RMM:   6    -0.413216171917E+03    0.47244E-04   -0.10342E-03  5338   0.317E-02    0.161E-02
RMM:   7    -0.413216171599E+03    0.31730E-06   -0.11377E-04  5659   0.103E-02    0.121E-02
RMM:   8    -0.413216167332E+03    0.42674E-05   -0.25624E-05  4670   0.501E-03    0.785E-03
RMM:   9    -0.413216151438E+03    0.15894E-04   -0.72135E-06  3222   0.416E-03    0.404E-03
RMM:  10    -0.413216144964E+03    0.64734E-05   -0.14461E-06  2533   0.211E-03    0.179E-03
RMM:  11    -0.413216138858E+03    0.61061E-05   -0.88021E-07  2491   0.148E-03    0.852E-04
RMM:  12    -0.413216133597E+03    0.52616E-05   -0.41639E-07  2374   0.110E-03    0.469E-04
RMM:  13    -0.413216128516E+03    0.50805E-05   -0.23953E-07  1601   0.819E-04    0.256E-04
RMM:  14    -0.413216125652E+03    0.28643E-05   -0.12942E-07  1166   0.689E-04    0.166E-04
RMM:  15    -0.413216120684E+03    0.49681E-05   -0.10933E-07  1225   0.683E-04    0.800E-05
RMM:  16    -0.413216116499E+03    0.41848E-05   -0.87174E-08  1247   0.654E-04    0.928E-05
RMM:  17    -0.413216114264E+03    0.22350E-05   -0.51693E-08   991   0.581E-04    0.654E-05
RMM:  18    -0.413216111017E+03    0.32474E-05   -0.54316E-08  1105   0.587E-04    0.390E-05
RMM:  19    -0.413216110629E+03    0.38723E-06   -0.21380E-08   693   0.514E-04
   45 T=    71. E= -.41286726E+03 F= -.41321611E+03 E0= -.41319516E+03  EK= 0.34885E+00 SP= 0.00E+00 SK= 0.00E+00
       N       E                     dE             d eps       ncg     rms          rms(c)
RMM:   1    -0.413237301414E+03   -0.21190E-01   -0.13182E+01  4308   0.166E+00    0.958E-01
RMM:   2    -0.413216340797E+03    0.20961E-01   -0.18632E-01  4358   0.192E-01    0.679E-01
RMM:   3    -0.413231179062E+03   -0.14838E-01   -0.20352E-02  5135   0.126E-01    0.570E-01
RMM:   4    -0.413229236120E+03    0.19429E-02   -0.36908E-02  4994   0.169E-01    0.510E-01
RMM:   5    -0.413216004272E+03    0.13232E-01   -0.51867E-03  4548   0.920E-02    0.427E-02
RMM:   6    -0.413215939041E+03    0.65231E-04   -0.81828E-04  5123   0.292E-02    0.157E-02
RMM:   7    -0.413215939591E+03   -0.54950E-06   -0.98719E-05  5619   0.936E-03    0.106E-02
RMM:   8    -0.413215936090E+03    0.35006E-05   -0.26477E-05  4801   0.524E-03    0.745E-03
RMM:   9    -0.413215922824E+03    0.13266E-04   -0.11741E-05  3898   0.447E-03    0.441E-03
RMM:  10    -0.413215917653E+03    0.51714E-05   -0.17072E-06  2507   0.221E-03    0.190E-03
RMM:  11    -0.413215912417E+03    0.52363E-05   -0.12582E-06  2488   0.175E-03    0.101E-03
RMM:  12    -0.413215907757E+03    0.46593E-05   -0.46511E-07  2365   0.124E-03    0.598E-04
RMM:  13    -0.413215903970E+03    0.37867E-05   -0.21862E-07  1637   0.829E-04    0.312E-04
RMM:  14    -0.413215900375E+03    0.35955E-05   -0.12397E-07  1199   0.691E-04    0.171E-04
RMM:  15    -0.413215894741E+03    0.56337E-05   -0.12518E-07  1395   0.697E-04    0.116E-04
RMM:  16    -0.413215892277E+03    0.24645E-05   -0.61240E-08   965   0.577E-04    0.996E-05
RMM:  17    -0.413215888212E+03    0.40644E-05   -0.63487E-08  1054   0.585E-04    0.418E-05
RMM:  18    -0.413215886675E+03    0.15373E-05   -0.33277E-08   792   0.527E-04    0.353E-05
RMM:  19    -0.413215885940E+03    0.73473E-06   -0.18789E-08   648   0.507E-04
   46 T=    71. E= -.41286703E+03 F= -.41321589E+03 E0= -.41319495E+03  EK= 0.34886E+00 SP= 0.00E+00 SK= 0.00E+00
       N       E                     dE             d eps       ncg     rms          rms(c)
RMM:   1    -0.413260163429E+03   -0.44277E-01   -0.13470E+01  4310   0.182E+00    0.945E-01
RMM:   2    -0.413215915618E+03    0.44248E-01   -0.22365E-01  4377   0.214E-01    0.696E-01
RMM:   3    -0.413229794708E+03   -0.13879E-01   -0.19686E-02  5140   0.125E-01    0.589E-01
RMM:   4    -0.413230024159E+03   -0.22945E-03   -0.39200E-02  5008   0.174E-01    0.556E-01
RMM:   5    -0.413214912011E+03    0.15112E-01   -0.65897E-03  4551   0.100E-01    0.481E-02
RMM:   6    -0.413214836267E+03    0.75744E-04   -0.10170E-03  5188   0.327E-02    0.177E-02
RMM:   7    -0.413214836716E+03   -0.44805E-06   -0.13155E-04  5807   0.108E-02    0.129E-02
RMM:   8    -0.413214833779E+03    0.29362E-05   -0.30012E-05  4844   0.526E-03    0.877E-03
RMM:   9    -0.413214821514E+03    0.12266E-04   -0.10943E-05  3757   0.466E-03    0.490E-03
RMM:  10    -0.413214816682E+03    0.48322E-05   -0.20083E-06  2537   0.231E-03    0.233E-03
RMM:  11    -0.413214812886E+03    0.37957E-05   -0.16062E-06  2535   0.193E-03    0.125E-03
RMM:  12    -0.413214810178E+03    0.27078E-05   -0.52854E-07  2424   0.133E-03    0.721E-04
RMM:  13    -0.413214807428E+03    0.27505E-05   -0.28556E-07  1928   0.906E-04    0.373E-04
RMM:  14    -0.413214804997E+03    0.24302E-05   -0.16282E-07  1263   0.718E-04    0.211E-04
RMM:  15    -0.413214802320E+03    0.26772E-05   -0.12718E-07  1213   0.676E-04    0.929E-05
RMM:  16    -0.413214800019E+03    0.23009E-05   -0.97186E-08  1168   0.641E-04    0.895E-05
RMM:  17    -0.413214798328E+03    0.16916E-05   -0.63004E-08   984   0.586E-04    0.743E-05
RMM:  18    -0.413214797009E+03    0.13184E-05   -0.43224E-08   848   0.552E-04    0.377E-05
RMM:  19    -0.413214796611E+03    0.39856E-06   -0.23647E-08   689   0.523E-04
   47 T=    71. E= -.41286701E+03 F= -.41321480E+03 E0= -.41319388E+03  EK= 0.34779E+00 SP= 0.00E+00 SK= 0.00E+00
       N       E                     dE             d eps       ncg     rms          rms(c)
RMM:   1    -0.413260076989E+03   -0.45280E-01   -0.13457E+01  4304   0.195E+00    0.972E-01
RMM:   2    -0.413212848661E+03    0.47228E-01   -0.20906E-01  4474   0.211E-01    0.688E-01
RMM:   3    -0.413237487347E+03   -0.24639E-01   -0.29393E-02  5160   0.154E-01    0.714E-01
RMM:   4    -0.413220669238E+03    0.16818E-01   -0.37335E-02  4963   0.174E-01    0.430E-01
RMM:   5    -0.413212592062E+03    0.80772E-02   -0.45068E-03  4575   0.897E-02    0.545E-02
RMM:   6    -0.413212418374E+03    0.17369E-03   -0.45325E-04  4685   0.280E-02    0.207E-02
RMM:   7    -0.413212419611E+03   -0.12364E-05   -0.11241E-04  5845   0.105E-02    0.138E-02
RMM:   8    -0.413212411447E+03    0.81637E-05   -0.21423E-05  4466   0.492E-03    0.993E-03
RMM:   9    -0.413212396225E+03    0.15222E-04   -0.81852E-06  3274   0.417E-03    0.514E-03
RMM:  10    -0.413212388440E+03    0.77844E-05   -0.27197E-06  2645   0.271E-03    0.226E-03
RMM:  11    -0.413212382350E+03    0.60900E-05   -0.19497E-06  2542   0.217E-03    0.138E-03
RMM:  12    -0.413212376799E+03    0.55509E-05   -0.76758E-07  2439   0.153E-03    0.744E-04
RMM:  13    -0.413212372565E+03    0.42340E-05   -0.36342E-07  2238   0.101E-03    0.413E-04
RMM:  14    -0.413212368659E+03    0.39066E-05   -0.19446E-07  1508   0.747E-04    0.226E-04
RMM:  15    -0.413212363163E+03    0.54962E-05   -0.15631E-07  1410   0.715E-04    0.121E-04
RMM:  16    -0.413212360205E+03    0.29572E-05   -0.93875E-08  1204   0.632E-04    0.108E-04
RMM:  17    -0.413212357492E+03    0.27131E-05   -0.65915E-08  1069   0.594E-04    0.667E-05
RMM:  18    -0.413212355406E+03    0.20867E-05   -0.47023E-08   993   0.576E-04    0.389E-05
RMM:  19    -0.413212354623E+03    0.78279E-06   -0.24747E-08   774   0.541E-04
   48 T=    70. E= -.41286704E+03 F= -.41321235E+03 E0= -.41319145E+03  EK= 0.34532E+00 SP= 0.00E+00 SK= 0.00E+00
       N       E                     dE             d eps       ncg     rms          rms(c)
RMM:   1    -0.413259862566E+03   -0.47507E-01   -0.13297E+01  4304   0.207E+00    0.960E-01
RMM:   2    -0.413207760460E+03    0.52102E-01   -0.20752E-01  4501   0.223E-01    0.677E-01
RMM:   3    -0.413237930632E+03   -0.30170E-01   -0.34405E-02  5165   0.167E-01    0.780E-01
RMM:   4    -0.413213278402E+03    0.24652E-01   -0.37081E-02  4927   0.176E-01    0.385E-01
RMM:   5    -0.413207781513E+03    0.54969E-02   -0.49261E-03  4817   0.921E-02    0.680E-02
RMM:   6    -0.413207489051E+03    0.29246E-03   -0.53304E-04  4670   0.320E-02    0.249E-02
RMM:   7    -0.413207485362E+03    0.36890E-05   -0.12577E-04  5710   0.119E-02    0.155E-02
RMM:   8    -0.413207476388E+03    0.89740E-05   -0.17694E-05  4112   0.462E-03    0.106E-02
RMM:   9    -0.413207460721E+03    0.15667E-04   -0.93014E-06  3467   0.423E-03    0.486E-03
RMM:  10    -0.413207451281E+03    0.94394E-05   -0.39156E-06  2821   0.307E-03    0.248E-03
[...]
RMM:  14    -0.413165278809E+03   -0.27290E-05   -0.22456E-07  1504   0.787E-04    0.186E-04
RMM:  15    -0.413165281939E+03   -0.31292E-05   -0.22291E-07  1607   0.772E-04    0.800E-05
RMM:  16    -0.413165283138E+03   -0.11992E-05   -0.11249E-07  1281   0.647E-04    0.517E-05
RMM:  17    -0.413165284851E+03   -0.17134E-05   -0.10330E-07  1288   0.634E-04    0.292E-05
RMM:  18    -0.413165285581E+03   -0.73003E-06   -0.54986E-08   997   0.563E-04
  139 T=    61. E= -.41286745E+03 F= -.41316529E+03 E0= -.41314461E+03  EK= 0.29783E+00 SP= 0.00E+00 SK= 0.00E+00
       N       E                     dE             d eps       ncg     rms          rms(c)
RMM:   1    -0.413156892973E+03    0.83919E-02   -0.10421E+01  4266   0.931E-01    0.845E-01
RMM:   2    -0.413166622956E+03   -0.97300E-02   -0.12635E-01  4352   0.107E-01    0.612E-01
RMM:   3    -0.413165791991E+03    0.83096E-03   -0.62826E-03  5066   0.494E-02    0.188E-01
RMM:   4    -0.413206994242E+03   -0.41202E-01   -0.45414E-02  5144   0.177E-01    0.845E-01
RMM:   5    -0.413164838889E+03    0.42155E-01   -0.20592E-02  4805   0.143E-01    0.513E-02
RMM:   6    -0.413164874670E+03   -0.35781E-04   -0.32783E-03  5740   0.548E-02    0.142E-02
RMM:   7    -0.413164914506E+03   -0.39836E-04   -0.40104E-04  6028   0.163E-02    0.126E-02
RMM:   8    -0.413164923877E+03   -0.93706E-05   -0.50626E-05  4679   0.598E-03    0.839E-03
RMM:   9    -0.413164934983E+03   -0.11106E-04   -0.68617E-06  2976   0.312E-03    0.396E-03
RMM:  10    -0.413164945555E+03   -0.10572E-04   -0.24170E-06  2566   0.222E-03    0.214E-03
RMM:  11    -0.413164955841E+03   -0.10285E-04   -0.11573E-06  2525   0.162E-03    0.941E-04
RMM:  12    -0.413164962067E+03   -0.62263E-05   -0.59428E-07  2324   0.115E-03    0.384E-04
RMM:  13    -0.413164966556E+03   -0.44893E-05   -0.34254E-07  1878   0.910E-04    0.286E-04
RMM:  14    -0.413164971314E+03   -0.47581E-05   -0.26624E-07  1579   0.814E-04    0.171E-04
RMM:  15    -0.413164975445E+03   -0.41301E-05   -0.21981E-07  1586   0.765E-04    0.832E-05
RMM:  16    -0.413164977329E+03   -0.18840E-05   -0.12444E-07  1320   0.657E-04    0.490E-05
RMM:  17    -0.413164979472E+03   -0.21430E-05   -0.10169E-07  1266   0.627E-04    0.266E-05
RMM:  18    -0.413164980160E+03   -0.68815E-06   -0.50941E-08   960   0.559E-04
  140 T=    61. E= -.41286754E+03 F= -.41316498E+03 E0= -.41314432E+03  EK= 0.29744E+00 SP= 0.00E+00 SK= 0.00E+00
       N       E                     dE             d eps       ncg     rms          rms(c)
RMM:   1    -0.413156513290E+03    0.84662E-02   -0.10370E+01  4265   0.909E-01    0.864E-01
RMM:   2    -0.413165822105E+03   -0.93088E-02   -0.12272E-01  4352   0.104E-01    0.610E-01
RMM:   3    -0.413165405356E+03    0.41675E-03   -0.65723E-03  5088   0.456E-02    0.180E-01
RMM:   4    -0.413203902555E+03   -0.38497E-01   -0.41825E-02  5149   0.170E-01    0.817E-01
RMM:   5    -0.413164620486E+03    0.39282E-01   -0.19340E-02  4811   0.137E-01    0.505E-02
RMM:   6    -0.413164653428E+03   -0.32942E-04   -0.30558E-03  5751   0.528E-02    0.169E-02
RMM:   7    -0.413164688194E+03   -0.34766E-04   -0.37573E-04  6021   0.159E-02    0.134E-02
RMM:   8    -0.413164695940E+03   -0.77459E-05   -0.49481E-05  4803   0.622E-03    0.831E-03
RMM:   9    -0.413164703105E+03   -0.71650E-05   -0.74801E-06  3034   0.320E-03    0.373E-03
RMM:  10    -0.413164709456E+03   -0.63518E-05   -0.23272E-06  2577   0.210E-03    0.210E-03
RMM:  11    -0.413164716075E+03   -0.66186E-05   -0.10128E-06  2501   0.154E-03    0.102E-03
RMM:  12    -0.413164720653E+03   -0.45774E-05   -0.55182E-07  2253   0.114E-03    0.371E-04
RMM:  13    -0.413164723536E+03   -0.28838E-05   -0.31168E-07  1847   0.901E-04    0.236E-04
RMM:  14    -0.413164726394E+03   -0.28573E-05   -0.22395E-07  1531   0.797E-04    0.149E-04
RMM:  15    -0.413164729491E+03   -0.30972E-05   -0.20345E-07  1597   0.768E-04    0.878E-05
RMM:  16    -0.413164730438E+03   -0.94689E-06   -0.10285E-07  1198   0.640E-04
  141 T=    60. E= -.41286782E+03 F= -.41316473E+03 E0= -.41314408E+03  EK= 0.29691E+00 SP= 0.00E+00 SK= 0.00E+00
       N       E                     dE             d eps       ncg     rms          rms(c)
RMM:   1    -0.413155765859E+03    0.89636E-02   -0.10211E+01  4264   0.897E-01    0.863E-01
RMM:   2    -0.413164519128E+03   -0.87533E-02   -0.12039E-01  4365   0.101E-01    0.602E-01
RMM:   3    -0.413164040490E+03    0.47864E-03   -0.67058E-03  5046   0.444E-02    0.170E-01
RMM:   4    -0.413199094932E+03   -0.35054E-01   -0.37211E-02  5150   0.161E-01    0.779E-01
RMM:   5    -0.413163490823E+03    0.35604E-01   -0.17652E-02  4812   0.131E-01    0.488E-02
RMM:   6    -0.413163520707E+03   -0.29884E-04   -0.27876E-03  5758   0.504E-02    0.193E-02
RMM:   7    -0.413163550636E+03   -0.29929E-04   -0.34451E-04  5997   0.154E-02    0.140E-02
RMM:   8    -0.413163557965E+03   -0.73293E-05   -0.49165E-05  4975   0.655E-03    0.794E-03
RMM:   9    -0.413163562807E+03   -0.48418E-05   -0.80205E-06  3105   0.323E-03    0.359E-03
RMM:  10    -0.413163567431E+03   -0.46245E-05   -0.22092E-06  2569   0.203E-03    0.218E-03
RMM:  11    -0.413163572467E+03   -0.50359E-05   -0.10012E-06  2483   0.153E-03    0.111E-03
RMM:  12    -0.413163576305E+03   -0.38375E-05   -0.58074E-07  2285   0.118E-03    0.359E-04
RMM:  13    -0.413163578334E+03   -0.20293E-05   -0.30585E-07  1856   0.902E-04    0.229E-04
RMM:  14    -0.413163580366E+03   -0.20318E-05   -0.21140E-07  1532   0.789E-04    0.148E-04
RMM:  15    -0.413163582811E+03   -0.24452E-05   -0.19047E-07  1565   0.760E-04    0.957E-05
RMM:  16    -0.413163583424E+03   -0.61259E-06   -0.94823E-08  1179   0.633E-04
  142 T=    60. E= -.41286750E+03 F= -.41316358E+03 E0= -.41314295E+03  EK= 0.29608E+00 SP= 0.00E+00 SK= 0.00E+00
       N       E                     dE             d eps       ncg     rms          rms(c)
RMM:   1    -0.413155846788E+03    0.77360E-02   -0.10052E+01  4264   0.901E-01    0.840E-01
RMM:   2    -0.413165400600E+03   -0.95538E-02   -0.12166E-01  4356   0.103E-01    0.610E-01
RMM:   3    -0.413163955333E+03    0.14453E-02   -0.65816E-03  5048   0.409E-02    0.147E-01
RMM:   4    -0.413193128191E+03   -0.29173E-01   -0.30465E-02  5150   0.145E-01    0.712E-01
RMM:   5    -0.413163596538E+03    0.29532E-01   -0.14755E-02  4817   0.119E-01    0.440E-02
RMM:   6    -0.413163620345E+03   -0.23808E-04   -0.23363E-03  5759   0.461E-02    0.187E-02
RMM:   7    -0.413163649707E+03   -0.29361E-04   -0.29227E-04  5920   0.142E-02    0.131E-02
RMM:   8    -0.413163662048E+03   -0.12342E-04   -0.44818E-05  4970   0.651E-03    0.711E-03
RMM:   9    -0.413163670386E+03   -0.83374E-05   -0.76031E-06  3108   0.316E-03    0.332E-03
RMM:  10    -0.413163678265E+03   -0.78792E-05   -0.20510E-06  2566   0.198E-03    0.215E-03
RMM:  11    -0.413163686875E+03   -0.86105E-05   -0.10059E-06  2481   0.152E-03    0.113E-03
RMM:  12    -0.413163693997E+03   -0.71219E-05   -0.62209E-07  2308   0.119E-03    0.360E-04
RMM:  13    -0.413163697270E+03   -0.32726E-05   -0.30890E-07  1850   0.891E-04    0.240E-04
RMM:  14    -0.413163700893E+03   -0.36232E-05   -0.22082E-07  1507   0.790E-04    0.143E-04
RMM:  15    -0.413163704468E+03   -0.35746E-05   -0.19283E-07  1584   0.756E-04    0.986E-05
RMM:  16    -0.413163705578E+03   -0.11101E-05   -0.10117E-07  1245   0.635E-04    0.679E-05
RMM:  17    -0.413163707623E+03   -0.20452E-05   -0.91904E-08  1265   0.628E-04    0.340E-05
RMM:  18    -0.413163708129E+03   -0.50597E-06   -0.46896E-08   952   0.552E-04
  143 T=    60. E= -.41286781E+03 F= -.41316371E+03 E0= -.41314308E+03  EK= 0.29590E+00 SP= 0.00E+00 SK= 0.00E+00
       N       E                     dE             d eps       ncg     rms          rms(c)
RMM:   1    -0.413158047008E+03    0.56606E-02   -0.99598E+00  4264   0.923E-01    0.854E-01
RMM:   2    -0.413164851047E+03   -0.68040E-02   -0.12118E-01  4367   0.102E-01    0.614E-01
RMM:   3    -0.413163299956E+03    0.15511E-02   -0.71087E-03  5039   0.398E-02    0.140E-01
RMM:   4    -0.413187519692E+03   -0.24220E-01   -0.25114E-02  5156   0.132E-01    0.650E-01
RMM:   5    -0.413163044564E+03    0.24475E-01   -0.12328E-02  4823   0.108E-01    0.427E-02
RMM:   6    -0.413163054158E+03   -0.95942E-05   -0.19450E-03  5761   0.424E-02    0.213E-02
RMM:   7    -0.413163076313E+03   -0.22155E-04   -0.25467E-04  5871   0.135E-02    0.132E-02
RMM:   8    -0.413163086725E+03   -0.10412E-04   -0.44581E-05  4988   0.671E-03    0.678E-03
RMM:   9    -0.413163091582E+03   -0.48571E-05   -0.71297E-06  3143   0.313E-03    0.326E-03
RMM:  10    -0.413163097631E+03   -0.60489E-05   -0.19184E-06  2567   0.197E-03    0.220E-03
RMM:  11    -0.413163104516E+03   -0.68859E-05   -0.98570E-07  2479   0.153E-03    0.114E-03
RMM:  12    -0.413163110483E+03   -0.59668E-05   -0.62239E-07  2359   0.121E-03    0.379E-04
RMM:  13    -0.413163113043E+03   -0.25597E-05   -0.29417E-07  1827   0.880E-04    0.253E-04
RMM:  14    -0.413163115581E+03   -0.25381E-05   -0.19460E-07  1434   0.765E-04    0.146E-04
RMM:  15    -0.413163118162E+03   -0.25809E-05   -0.15941E-07  1458   0.732E-04    0.782E-05
RMM:  16    -0.413163119641E+03   -0.14787E-05   -0.10710E-07  1356   0.658E-04    0.664E-05
RMM:  17    -0.413163120941E+03   -0.13006E-05   -0.73967E-08  1134   0.603E-04    0.345E-05
RMM:  18    -0.413163121765E+03   -0.82365E-06   -0.50410E-08  1038   0.568E-04
  144 T=    60. E= -.41286774E+03 F= -.41316312E+03 E0= -.41314251E+03  EK= 0.29538E+00 SP= 0.00E+00 SK= 0.00E+00
       N       E                     dE             d eps       ncg     rms          rms(c)
RMM:   1    -0.413156109747E+03    0.70112E-02   -0.97319E+00  4265   0.879E-01    0.864E-01
RMM:   2    -0.413163828642E+03   -0.77189E-02   -0.11581E-01  4371   0.982E-02    0.606E-01
RMM:   3    -0.413162341432E+03    0.14872E-02   -0.77666E-03  4977   0.388E-02    0.132E-01
RMM:   4    -0.413179035728E+03   -0.16694E-01   -0.17291E-02  5163   0.110E-01    0.542E-01
RMM:   5    -0.413162210309E+03    0.16825E-01   -0.85565E-03  4834   0.904E-02    0.411E-02
RMM:   6    -0.413162202926E+03    0.73831E-05   -0.13897E-03  5737   0.364E-02    0.243E-02
RMM:   7    -0.413162214407E+03   -0.11481E-04   -0.21066E-04  5788   0.130E-02    0.127E-02
RMM:   8    -0.413162219946E+03   -0.55396E-05   -0.41525E-05  4957   0.686E-03    0.637E-03
RMM:   9    -0.413162221546E+03   -0.15995E-05   -0.55326E-06  3012   0.285E-03    0.338E-03
RMM:  10    -0.413162225059E+03   -0.35136E-05   -0.14471E-06  2540   0.184E-03    0.220E-03
RMM:  11    -0.413162229012E+03   -0.39524E-05   -0.93579E-07  2477   0.149E-03    0.110E-03
RMM:  12    -0.413162232215E+03   -0.32030E-05   -0.59728E-07  2349   0.119E-03    0.417E-04
RMM:  13    -0.413162233617E+03   -0.14023E-05   -0.27442E-07  1809   0.861E-04    0.267E-04
RMM:  14    -0.413162234982E+03   -0.13649E-05   -0.17510E-07  1400   0.742E-04    0.161E-04
RMM:  15    -0.413162236307E+03   -0.13248E-05   -0.13394E-07  1386   0.706E-04    0.784E-05
RMM:  16    -0.413162237457E+03   -0.11507E-05   -0.10009E-07  1312   0.664E-04    0.663E-05
RMM:  17    -0.413162238099E+03   -0.64109E-06   -0.60029E-08  1050   0.590E-04
  145 T=    60. E= -.41286750E+03 F= -.41316224E+03 E0= -.41314163E+03  EK= 0.29474E+00 SP= 0.00E+00 SK= 0.00E+00
       N       E                     dE             d eps       ncg     rms          rms(c)
RMM:   1    -0.413156671471E+03    0.55660E-02   -0.94716E+00  4264   0.878E-01    0.838E-01
RMM:   2    -0.413164711377E+03   -0.80399E-02   -0.11506E-01  4356   0.100E-01    0.609E-01
RMM:   3    -0.413162496766E+03    0.22146E-02   -0.81156E-03  4844   0.380E-02    0.106E-01
RMM:   4    -0.413167555710E+03   -0.50589E-02   -0.56206E-03  5173   0.630E-02    0.300E-01
RMM:   5    -0.413162502918E+03    0.50528E-02   -0.26228E-03  4845   0.506E-02    0.343E-02
RMM:   6    -0.413162495888E+03    0.70304E-05   -0.49075E-04  5633   0.227E-02    0.233E-02
RMM:   7    -0.413162514266E+03   -0.18378E-04   -0.13150E-04  5464   0.105E-02    0.106E-02
RMM:   8    -0.413162520607E+03   -0.63413E-05   -0.26242E-05  4693   0.574E-03    0.563E-03
RMM:   9    -0.413162522998E+03   -0.23907E-05   -0.24986E-06  2674   0.209E-03    0.296E-03
RMM:  10    -0.413162528452E+03   -0.54541E-05   -0.81332E-07  2489   0.140E-03    0.170E-03
RMM:  11    -0.413162537346E+03   -0.88934E-05   -0.87919E-07  2454   0.134E-03    0.842E-04
RMM:  12    -0.413162541317E+03   -0.39715E-05   -0.37626E-07  2007   0.943E-04    0.408E-04
RMM:  13    -0.413162544378E+03   -0.30613E-05   -0.22339E-07  1454   0.778E-04    0.188E-04
RMM:  14    -0.413162547724E+03   -0.33458E-05   -0.19521E-07  1458   0.750E-04    0.170E-04
RMM:  15    -0.413162550081E+03   -0.23562E-05   -0.13664E-07  1425   0.684E-04    0.125E-04
RMM:  16    -0.413162552165E+03   -0.20848E-05   -0.10834E-07  1277   0.628E-04    0.574E-05
RMM:  17    -0.413162552892E+03   -0.72626E-06   -0.54645E-08   987   0.541E-04
  146 T=    60. E= -.41286784E+03 F= -.41316255E+03 E0= -.41314195E+03  EK= 0.29471E+00 SP= 0.00E+00 SK= 0.00E+00
       N       E                     dE             d eps       ncg     rms          rms(c)
RMM:   1    -0.413156708185E+03    0.58440E-02   -0.93165E+00  4264   0.867E-01    0.846E-01
RMM:   2    -0.413164341490E+03   -0.76333E-02   -0.11331E-01  4366   0.975E-02    0.618E-01
RMM:   3    -0.413161787378E+03    0.25541E-02   -0.93183E-03  4792   0.380E-02    0.884E-02
RMM:   4    -0.413163262441E+03   -0.14751E-02   -0.20654E-03  5210   0.376E-02    0.163E-01
RMM:   5    -0.413161825773E+03    0.14367E-02   -0.79612E-04  4853   0.284E-02    0.346E-02
RMM:   6    -0.413161819530E+03    0.62429E-05   -0.24230E-04  5457   0.162E-02    0.244E-02
RMM:   7    -0.413161841985E+03   -0.22455E-04   -0.13791E-04  5241   0.962E-03    0.131E-02
RMM:   8    -0.413161842503E+03   -0.51815E-06   -0.15828E-05  4276   0.491E-03    0.661E-03
RMM:   9    -0.413161844245E+03   -0.17417E-05   -0.31567E-06  2566   0.205E-03    0.290E-03
RMM:  10    -0.413161849928E+03   -0.56830E-05   -0.10239E-06  2483   0.150E-03    0.155E-03
RMM:  11    -0.413161860085E+03   -0.10157E-04   -0.94587E-07  2444   0.135E-03    0.726E-04
RMM:  12    -0.413161864079E+03   -0.39942E-05   -0.36679E-07  2001   0.921E-04    0.308E-04
RMM:  13    -0.413161867373E+03   -0.32937E-05   -0.21456E-07  1455   0.757E-04    0.203E-04
RMM:  14    -0.413161871476E+03   -0.41034E-05   -0.21363E-07  1536   0.753E-04    0.136E-04
RMM:  15    -0.413161873326E+03   -0.18504E-05   -0.10786E-07  1256   0.629E-04    0.948E-05
RMM:  16    -0.413161875290E+03   -0.19641E-05   -0.93900E-08  1217   0.602E-04    0.402E-05
RMM:  17    -0.413161876372E+03   -0.10812E-05   -0.51727E-08   949   0.538E-04    0.249E-05
RMM:  18    -0.413161876607E+03   -0.23556E-06   -0.23842E-08   738   0.498E-04
  147 T=    60. E= -.41286753E+03 F= -.41316188E+03 E0= -.41314128E+03  EK= 0.29435E+00 SP= 0.00E+00 SK= 0.00E+00
       N       E                     dE             d eps       ncg     rms          rms(c)
RMM:   1    -0.413157905517E+03    0.39709E-02   -0.90610E+00  4264   0.856E-01    0.863E-01
RMM:   2    -0.413163998708E+03   -0.60932E-02   -0.10907E-01  4381   0.943E-02    0.612E-01
RMM:   3    -0.413161606017E+03    0.23927E-02   -0.10216E-02  4781   0.368E-02    0.930E-02
RMM:   4    -0.413161674881E+03   -0.68864E-04   -0.74053E-04  5255   0.191E-02    0.388E-02
RMM:   5    -0.413161690330E+03   -0.15448E-04   -0.20771E-04  5052   0.153E-02    0.375E-02
RMM:   6    -0.413161729503E+03   -0.39174E-04   -0.15570E-04  5419   0.118E-02    0.422E-02
RMM:   7    -0.413161657991E+03    0.71513E-04   -0.16077E-04  4907   0.117E-02    0.126E-02
RMM:   8    -0.413161656644E+03    0.13471E-05   -0.16713E-05  4381   0.502E-03    0.562E-03
RMM:   9    -0.413161658235E+03   -0.15918E-05   -0.37355E-06  2604   0.226E-03    0.212E-03
RMM:  10    -0.413161662533E+03   -0.42975E-05   -0.13617E-06  2491   0.167E-03    0.980E-04
RMM:  11    -0.413161666775E+03   -0.42421E-05   -0.83448E-07  2459   0.128E-03    0.380E-04
RMM:  12    -0.413161668239E+03   -0.14636E-05   -0.30523E-07  1837   0.855E-04    0.266E-04
RMM:  13    -0.413161670499E+03   -0.22599E-05   -0.29447E-07  1666   0.819E-04    0.138E-04
RMM:  14    -0.413161671493E+03   -0.99428E-06   -0.13856E-07  1413   0.672E-04
  148 T=    60. E= -.41286778E+03 F= -.41316167E+03 E0= -.41314108E+03  EK= 0.29390E+00 SP= 0.00E+00 SK= 0.00E+00
       N       E                     dE             d eps       ncg     rms          rms(c)
RMM:   1    -0.413157939885E+03    0.37306E-02   -0.87336E+00  4264   0.844E-01    0.839E-01
RMM:   2    -0.413164233666E+03   -0.62938E-02   -0.10666E-01  4387   0.937E-02    0.610E-01
RMM:   3    -0.413161287279E+03    0.29464E-02   -0.11258E-02  4856   0.397E-02    0.778E-02
RMM:   4    -0.413166410173E+03   -0.51229E-02   -0.55162E-03  5171   0.629E-02    0.302E-01
RMM:   5    -0.413161288449E+03    0.51217E-02   -0.26364E-03  4853   0.506E-02    0.393E-02
RMM:   6    -0.413161287160E+03    0.12895E-05   -0.57416E-04  5614   0.239E-02    0.279E-02
RMM:   7    -0.413161296546E+03   -0.93864E-05   -0.18761E-04  5385   0.118E-02    0.138E-02
RMM:   8    -0.413161297207E+03   -0.66059E-06   -0.22385E-05  4610   0.536E-03    0.635E-03
RMM:   9    -0.413161299270E+03   -0.20635E-05   -0.34301E-06  2665   0.220E-03    0.319E-03
RMM:  10    -0.413161304394E+03   -0.51242E-05   -0.10366E-06  2510   0.162E-03    0.182E-03
RMM:  11    -0.413161310284E+03   -0.58893E-05   -0.85782E-07  2461   0.138E-03    0.965E-04
RMM:  12    -0.413161314108E+03   -0.38238E-05   -0.47178E-07  2154   0.104E-03    0.426E-04
RMM:  13    -0.413161316754E+03   -0.26461E-05   -0.29136E-07  1779   0.854E-04    0.214E-04
RMM:  14    -0.413161319291E+03   -0.25378E-05   -0.21382E-07  1544   0.762E-04    0.186E-04
RMM:  15    -0.413161321268E+03   -0.19763E-05   -0.14757E-07  1380   0.690E-04    0.815E-05
RMM:  16    -0.413161322564E+03   -0.12959E-05   -0.99401E-08  1247   0.627E-04    0.485E-05
RMM:  17    -0.413161323220E+03   -0.65592E-06   -0.53601E-08   987   0.558E-04
  149 T=    60. E= -.41286758E+03 F= -.41316132E+03 E0= -.41314073E+03  EK= 0.29374E+00 SP= 0.00E+00 SK= 0.00E+00
       N       E                     dE             d eps       ncg     rms          rms(c)
RMM:   1    -0.413158859512E+03    0.24631E-02   -0.85488E+00  4264   0.837E-01    0.841E-01
RMM:   2    -0.413164448368E+03   -0.55889E-02   -0.10522E-01  4356   0.959E-02    0.621E-01
RMM:   3    -0.413161155668E+03    0.32927E-02   -0.13650E-02  4859   0.440E-02    0.673E-02
RMM:   4    -0.413170034645E+03   -0.88790E-02   -0.92195E-03  5168   0.812E-02    0.397E-01
RMM:   5    -0.413161087100E+03    0.89475E-02   -0.45338E-03  4844   0.657E-02    0.417E-02
RMM:   6    -0.413161090801E+03   -0.37015E-05   -0.85371E-04  5686   0.285E-02    0.285E-02
RMM:   7    -0.413161103604E+03   -0.12803E-04   -0.21215E-04  5529   0.127E-02    0.138E-02
RMM:   8    -0.413161107554E+03   -0.39501E-05   -0.25917E-05  4710   0.562E-03    0.622E-03
RMM:   9    -0.413161110801E+03   -0.32466E-05   -0.33826E-06  2726   0.233E-03    0.345E-03
RMM:  10    -0.413161118057E+03   -0.72568E-05   -0.12581E-06  2526   0.176E-03    0.199E-03
RMM:  11    -0.413161124963E+03   -0.69060E-05   -0.85833E-07  2475   0.142E-03    0.105E-03
RMM:  12    -0.413161130702E+03   -0.57389E-05   -0.58362E-07  2283   0.113E-03    0.494E-04
RMM:  13    -0.413161134177E+03   -0.34746E-05   -0.33355E-07  1924   0.899E-04    0.265E-04
RMM:  14    -0.413161136775E+03   -0.25981E-05   -0.20334E-07  1437   0.755E-04    0.194E-04
RMM:  15    -0.413161139703E+03   -0.29285E-05   -0.18135E-07  1371   0.716E-04    0.120E-04
RMM:  16    -0.413161141756E+03   -0.20526E-05   -0.13228E-07  1331   0.665E-04    0.665E-05
RMM:  17    -0.413161142430E+03   -0.67423E-06   -0.65750E-08  1007   0.575E-04
  150 T=    60. E= -.41286741E+03 F= -.41316114E+03 E0= -.41314054E+03  EK= 0.29373E+00 SP= 0.00E+00 SK= 0.00E+00
