       N       E                     dE             d eps       ncg     rms          rms(c)
RMM:   1     0.220133304486E+04    0.22013E+04   -0.52444E+04  2132   0.654E+02
RMM:   2     0.705765046328E+03   -0.14956E+04   -0.16262E+04  2132   0.177E+02
RMM:   3     0.137671496644E+03   -0.56809E+03   -0.65724E+03  2132   0.117E+02
RMM:   4    -0.159454781794E+03   -0.29713E+03   -0.27855E+03  2132   0.936E+01
RMM:   5    -0.287505495886E+03   -0.12805E+03   -0.11437E+03  2132   0.595E+01
RMM:   6    -0.349743458862E+03   -0.62238E+02   -0.55117E+02  2132   0.423E+01
RMM:   7    -0.382683321976E+03   -0.32940E+02   -0.30439E+02  2132   0.293E+01
RMM:   8    -0.404208635460E+03   -0.21525E+02   -0.18452E+02  2132   0.233E+01
RMM:   9    -0.435973822392E+03   -0.31765E+02   -0.30649E+02  6099   0.173E+01
RMM:  10    -0.441269491238E+03   -0.52957E+01   -0.63121E+01  6395   0.540E+00
RMM:  11    -0.442511999594E+03   -0.12425E+01   -0.11311E+01  6214   0.174E+00
RMM:  12    -0.442889847122E+03   -0.37785E+00   -0.27554E+00  6369   0.604E-01    0.134E+02
RMM:  13    -0.425595692046E+03    0.17294E+02   -0.80861E+01  4673   0.119E+01    0.712E+01
RMM:  14    -0.499436178248E+03   -0.73840E+02   -0.53930E+02  5418   0.232E+01    0.307E+01
RMM:  15    -0.417547522362E+03    0.81889E+02   -0.20381E+02  5104   0.164E+01    0.816E+00
RMM:  16    -0.414032246675E+03    0.35153E+01   -0.40494E+01  6093   0.620E+00    0.433E+00
RMM:  17    -0.413204668137E+03    0.82758E+00   -0.27425E+00  5417   0.195E+00    0.242E+00
RMM:  18    -0.413181204442E+03    0.23464E-01   -0.72771E-01  6020   0.873E-01    0.172E+00
RMM:  19    -0.413176816883E+03    0.43876E-02   -0.24592E-01  5655   0.546E-01    0.943E-01
RMM:  20    -0.413196486957E+03   -0.19670E-01   -0.34935E-01  5601   0.602E-01    0.692E-01
RMM:  21    -0.413171255460E+03    0.25231E-01   -0.37055E-02  4980   0.256E-01    0.333E-01
RMM:  22    -0.413166229913E+03    0.50255E-02   -0.30028E-02  5781   0.172E-01    0.141E-01
RMM:  23    -0.413165341440E+03    0.88847E-03   -0.55275E-03  5929   0.669E-02    0.855E-02
RMM:  24    -0.413163952055E+03    0.13894E-02   -0.18063E-03  5343   0.421E-02    0.543E-02
RMM:  25    -0.413163045529E+03    0.90653E-03   -0.91762E-04  4948   0.296E-02    0.409E-02
RMM:  26    -0.413163054531E+03   -0.90015E-05   -0.12055E-03  5795   0.350E-02    0.355E-02
RMM:  27    -0.413163431284E+03   -0.37675E-03   -0.22511E-04  4555   0.207E-02    0.204E-02
RMM:  28    -0.413163825993E+03   -0.39471E-03   -0.17032E-04  5099   0.176E-02    0.912E-03
RMM:  29    -0.413164195970E+03   -0.36998E-03   -0.11185E-04  4635   0.154E-02    0.478E-03
RMM:  30    -0.413164460018E+03   -0.26405E-03   -0.92157E-05  4407   0.119E-02    0.486E-03
RMM:  31    -0.413164600933E+03   -0.14091E-03   -0.65660E-05  3340   0.779E-03    0.372E-03
RMM:  32    -0.413164625161E+03   -0.24229E-04   -0.24822E-05  3020   0.329E-03    0.234E-03
RMM:  33    -0.413164635374E+03   -0.10213E-04   -0.10016E-05  2823   0.237E-03    0.778E-04
RMM:  34    -0.413164635968E+03   -0.59394E-06   -0.52940E-06  2610   0.156E-03
    1 T=    61. E= -.41286685E+03 F= -.41316464E+03 E0= -.41314214E+03  EK= 0.29778E+00 SP= 0.00E+00 SK= 0.00E+00
       N       E                     dE             d eps       ncg     rms          rms(c)
RMM:   1    -0.413172477612E+03   -0.78422E-02   -0.66109E+00  3995   0.508E-01    0.903E-01
RMM:   2    -0.413171229608E+03    0.12480E-02   -0.84574E-02  3863   0.753E-02    0.662E-01
RMM:   3    -0.413166740519E+03    0.44891E-02   -0.45034E-02  5011   0.718E-02    0.266E-01
RMM:   4    -0.413188548148E+03   -0.21808E-01   -0.29640E-02  5177   0.145E-01    0.649E-01
RMM:   5    -0.413164169343E+03    0.24379E-01   -0.11940E-02  4803   0.111E-01    0.482E-02
RMM:   6    -0.413164342555E+03   -0.17321E-03   -0.21393E-03  5712   0.452E-02    0.321E-02
RMM:   7    -0.413164353435E+03   -0.10880E-04   -0.38611E-04  5751   0.177E-02    0.208E-02
RMM:   8    -0.413164350986E+03    0.24481E-05   -0.46504E-05  5045   0.766E-03    0.788E-03
RMM:   9    -0.413164353615E+03   -0.26281E-05   -0.10199E-05  3400   0.332E-03    0.538E-03
RMM:  10    -0.413164358747E+03   -0.51329E-05   -0.20545E-06  2584   0.210E-03    0.322E-03
RMM:  11    -0.413164362740E+03   -0.39927E-05   -0.11788E-06  2510   0.154E-03    0.164E-03
RMM:  12    -0.413164368476E+03   -0.57357E-05   -0.12495E-06  2520   0.153E-03    0.775E-04
RMM:  13    -0.413164371340E+03   -0.28639E-05   -0.61950E-07  2249   0.111E-03    0.525E-04
RMM:  14    -0.413164371469E+03   -0.12914E-06   -0.33318E-07  1679   0.781E-04
    2 T=    61. E= -.41286669E+03 F= -.41316437E+03 E0= -.41314187E+03  EK= 0.29768E+00 SP= 0.00E+00 SK= 0.00E+00
       N       E                     dE             d eps       ncg     rms          rms(c)
RMM:   1    -0.413173550143E+03   -0.91788E-02   -0.65652E+00  4192   0.507E-01    0.918E-01
RMM:   2    -0.413171367717E+03    0.21824E-02   -0.84818E-02  3854   0.731E-02    0.661E-01
RMM:   3    -0.413167703965E+03    0.36638E-02   -0.41859E-02  5086   0.711E-02    0.256E-01
RMM:   4    -0.413190933355E+03   -0.23229E-01   -0.32477E-02  5142   0.153E-01    0.672E-01
RMM:   5    -0.413164755880E+03    0.26177E-01   -0.12055E-02  4764   0.112E-01    0.487E-02
RMM:   6    -0.413164931599E+03   -0.17572E-03   -0.22105E-03  5693   0.463E-02    0.340E-02
RMM:   7    -0.413164926288E+03    0.53112E-05   -0.39278E-04  5668   0.184E-02    0.225E-02
RMM:   8    -0.413164919112E+03    0.71756E-05   -0.53026E-05  5224   0.826E-03    0.934E-03
RMM:   9    -0.413164917220E+03    0.18926E-05   -0.10110E-05  3546   0.361E-03    0.592E-03
RMM:  10    -0.413164917255E+03   -0.35412E-07   -0.18773E-06  2555   0.220E-03
    3 T=    61. E= -.41286705E+03 F= -.41316492E+03 E0= -.41314242E+03  EK= 0.29787E+00 SP= 0.00E+00 SK= 0.00E+00
       N       E                     dE             d eps       ncg     rms          rms(c)
RMM:   1    -0.413172907459E+03   -0.79902E-02   -0.65219E+00  4216   0.513E-01    0.904E-01
RMM:   2    -0.413171084013E+03    0.18234E-02   -0.84324E-02  4202   0.727E-02    0.655E-01
RMM:   3    -0.413173441487E+03   -0.23575E-02   -0.45860E-02  5168   0.101E-01    0.413E-01
RMM:   4    -0.413180206954E+03   -0.67655E-02   -0.31142E-02  5076   0.154E-01    0.530E-01
RMM:   5    -0.413164649651E+03    0.15557E-01   -0.67426E-03  4602   0.882E-02    0.490E-02
RMM:   6    -0.413164682775E+03   -0.33124E-04   -0.12106E-03  5383   0.344E-02    0.303E-02
RMM:   7    -0.413164695193E+03   -0.12419E-04   -0.23612E-04  5638   0.146E-02    0.183E-02
RMM:   8    -0.413164694174E+03    0.10195E-05   -0.35435E-05  4924   0.708E-03    0.657E-03
RMM:   9    -0.413164694140E+03    0.33404E-07   -0.44310E-06  2838   0.268E-03
    4 T=    61. E= -.41286685E+03 F= -.41316469E+03 E0= -.41314221E+03  EK= 0.29784E+00 SP= 0.00E+00 SK= 0.00E+00
       N       E                     dE             d eps       ncg     rms          rms(c)
RMM:   1    -0.413172880565E+03   -0.81864E-02   -0.66062E+00  4238   0.521E-01    0.901E-01
RMM:   2    -0.413171548095E+03    0.13325E-02   -0.84780E-02  4077   0.727E-02    0.661E-01
RMM:   3    -0.413171401596E+03    0.14650E-03   -0.47453E-02  5145   0.914E-02    0.378E-01
RMM:   4    -0.413183959234E+03   -0.12558E-01   -0.31854E-02  5091   0.154E-01    0.589E-01
RMM:   5    -0.413164763395E+03    0.19196E-01   -0.89250E-03  4671   0.981E-02    0.484E-02
RMM:   6    -0.413164845284E+03   -0.81889E-04   -0.14943E-03  5558   0.384E-02    0.301E-02
RMM:   7    -0.413164859672E+03   -0.14388E-04   -0.28185E-04  5681   0.157E-02    0.189E-02
RMM:   8    -0.413164862885E+03   -0.32136E-05   -0.38367E-05  4926   0.737E-03    0.676E-03
RMM:   9    -0.413164865678E+03   -0.27929E-05   -0.57920E-06  2988   0.288E-03    0.397E-03
RMM:  10    -0.413164870430E+03   -0.47515E-05   -0.14292E-06  2536   0.190E-03    0.242E-03
RMM:  11    -0.413164873943E+03   -0.35135E-05   -0.83357E-07  2451   0.140E-03    0.119E-03
RMM:  12    -0.413164878400E+03   -0.44565E-05   -0.90757E-07  2493   0.131E-03    0.595E-04
RMM:  13    -0.413164880739E+03   -0.23395E-05   -0.49470E-07  2000   0.988E-04    0.350E-04
RMM:  14    -0.413164881288E+03   -0.54843E-06   -0.22734E-07  1471   0.757E-04
    5 T=    61. E= -.41286688E+03 F= -.41316488E+03 E0= -.41314240E+03  EK= 0.29800E+00 SP= 0.00E+00 SK= 0.00E+00
       N       E                     dE             d eps       ncg     rms          rms(c)
RMM:   1    -0.413173834687E+03   -0.89539E-02   -0.65801E+00  4246   0.521E-01    0.916E-01
RMM:   2    -0.413171842299E+03    0.19924E-02   -0.84715E-02  4036   0.733E-02    0.662E-01
RMM:   3    -0.413168707605E+03    0.31347E-02   -0.42842E-02  5091   0.733E-02    0.280E-01
RMM:   4    -0.413190448091E+03   -0.21740E-01   -0.32747E-02  5120   0.154E-01    0.662E-01
RMM:   5    -0.413165185046E+03    0.25263E-01   -0.11595E-02  4731   0.111E-01    0.490E-02
RMM:   6    -0.413165342774E+03   -0.15773E-03   -0.20648E-03  5645   0.450E-02    0.331E-02
RMM:   7    -0.413165344165E+03   -0.13902E-05   -0.36576E-04  5659   0.178E-02    0.218E-02
RMM:   8    -0.413165339700E+03    0.44643E-05   -0.50331E-05  5150   0.814E-03    0.868E-03
RMM:   9    -0.413165338477E+03    0.12236E-05   -0.89167E-06  3401   0.347E-03    0.530E-03
RMM:  10    -0.413165339108E+03   -0.63081E-06   -0.17461E-06  2545   0.213E-03
    6 T=    61. E= -.41286703E+03 F= -.41316534E+03 E0= -.41314288E+03  EK= 0.29831E+00 SP= 0.00E+00 SK= 0.00E+00
       N       E                     dE             d eps       ncg     rms          rms(c)
RMM:   1    -0.413173453301E+03   -0.81148E-02   -0.65375E+00  4260   0.526E-01    0.910E-01
RMM:   2    -0.413171500678E+03    0.19526E-02   -0.84451E-02  4170   0.739E-02    0.657E-01
RMM:   3    -0.413172180143E+03   -0.67946E-03   -0.44194E-02  5143   0.930E-02    0.374E-01
RMM:   4    -0.413183026092E+03   -0.10846E-01   -0.31757E-02  5083   0.154E-01    0.565E-01
RMM:   5    -0.413165067108E+03    0.17959E-01   -0.77307E-03  4642   0.935E-02    0.493E-02
RMM:   6    -0.413165123833E+03   -0.56725E-04   -0.14074E-03  5472   0.371E-02    0.312E-02
RMM:   7    -0.413165128654E+03   -0.48212E-05   -0.26711E-04  5692   0.154E-02    0.193E-02
RMM:   8    -0.413165121655E+03    0.69988E-05   -0.39220E-05  4975   0.736E-03    0.709E-03
RMM:   9    -0.413165119479E+03    0.21762E-05   -0.53296E-06  2936   0.287E-03    0.383E-03
RMM:  10    -0.413165118893E+03    0.58585E-06   -0.14159E-06  2525   0.190E-03
    7 T=    61. E= -.41286676E+03 F= -.41316512E+03 E0= -.41314267E+03  EK= 0.29836E+00 SP= 0.00E+00 SK= 0.00E+00
       N       E                     dE             d eps       ncg     rms          rms(c)
RMM:   1    -0.413173681041E+03   -0.85616E-02   -0.65945E+00  4266   0.534E-01    0.899E-01
RMM:   2    -0.413172455384E+03    0.12257E-02   -0.84534E-02  4102   0.756E-02    0.659E-01
RMM:   3    -0.413170321219E+03    0.21342E-02   -0.45822E-02  5071   0.842E-02    0.328E-01
RMM:   4    -0.413188476364E+03   -0.18155E-01   -0.32318E-02  5097   0.154E-01    0.636E-01
RMM:   5    -0.413165545744E+03    0.22931E-01   -0.10688E-02  4704   0.106E-01    0.481E-02
RMM:   6    -0.413165686631E+03   -0.14089E-03   -0.18842E-03  5634   0.425E-02    0.316E-02
RMM:   7    -0.413165690828E+03   -0.41969E-05   -0.33594E-04  5641   0.172E-02    0.207E-02
RMM:   8    -0.413165687699E+03    0.31292E-05   -0.44579E-05  5024   0.796E-03    0.795E-03
RMM:   9    -0.413165688143E+03   -0.44442E-06   -0.79917E-06  3219   0.331E-03
    8 T=    61. E= -.41286703E+03 F= -.41316569E+03 E0= -.41314326E+03  EK= 0.29866E+00 SP= 0.00E+00 SK= 0.00E+00
       N       E                     dE             d eps       ncg     rms          rms(c)
RMM:   1    -0.413174115588E+03   -0.84279E-02   -0.66006E+00  4288   0.535E-01    0.912E-01
RMM:   2    -0.413172581571E+03    0.15340E-02   -0.84789E-02  4270   0.778E-02    0.663E-01
RMM:   3    -0.413175778701E+03   -0.31971E-02   -0.47939E-02  5131   0.108E-01    0.440E-01
RMM:   4    -0.413180438709E+03   -0.46600E-02   -0.31087E-02  5054   0.154E-01    0.517E-01
RMM:   5    -0.413165834745E+03    0.14604E-01   -0.65189E-03  4587   0.863E-02    0.484E-02
RMM:   6    -0.413165857400E+03   -0.22655E-04   -0.11165E-03  5381   0.328E-02    0.300E-02
RMM:   7    -0.413165873169E+03   -0.15769E-04   -0.22014E-04  5579   0.142E-02    0.176E-02
RMM:   8    -0.413165873468E+03   -0.29980E-06   -0.33308E-05  4835   0.708E-03    0.614E-03
RMM:   9    -0.413165873363E+03    0.10572E-06   -0.40616E-06  2783   0.264E-03
    9 T=    61. E= -.41286700E+03 F= -.41316587E+03 E0= -.41314347E+03  EK= 0.29887E+00 SP= 0.00E+00 SK= 0.00E+00
       N       E                     dE             d eps       ncg     rms          rms(c)
RMM:   1    -0.413174454336E+03   -0.85809E-02   -0.65597E+00  4291   0.539E-01    0.916E-01
RMM:   2    -0.413172469338E+03    0.19850E-02   -0.85038E-02  4223   0.763E-02    0.659E-01
RMM:   3    -0.413171700453E+03    0.76889E-03   -0.43193E-02  5107   0.894E-02    0.340E-01
RMM:   4    -0.413186230658E+03   -0.14530E-01   -0.32253E-02  5078   0.155E-01    0.598E-01
RMM:   5    -0.413165886331E+03    0.20344E-01   -0.87826E-03  4687   0.986E-02    0.494E-02
RMM:   6    -0.413165975568E+03   -0.89237E-04   -0.16223E-03  5580   0.396E-02    0.321E-02
RMM:   7    -0.413165974142E+03    0.14264E-05   -0.30047E-04  5673   0.162E-02    0.203E-02
RMM:   8    -0.413165967762E+03    0.63800E-05   -0.41162E-05  5003   0.753E-03    0.751E-03
RMM:   9    -0.413165964916E+03    0.28460E-05   -0.63499E-06  3059   0.302E-03    0.425E-03
RMM:  10    -0.413165962830E+03    0.20858E-05   -0.15668E-06  2534   0.200E-03    0.256E-03
RMM:  11    -0.413165961067E+03    0.17633E-05   -0.83507E-07  2470   0.145E-03    0.129E-03
RMM:  12    -0.413165958027E+03    0.30401E-05   -0.90268E-07  2480   0.137E-03    0.658E-04
RMM:  13    -0.413165955525E+03    0.25021E-05   -0.48521E-07  2104   0.103E-03    0.412E-04
RMM:  14    -0.413165954553E+03    0.97186E-06   -0.20778E-07  1528   0.763E-04
   10 T=    61. E= -.41286685E+03 F= -.41316595E+03 E0= -.41314357E+03  EK= 0.29910E+00 SP= 0.00E+00 SK= 0.00E+00
       N       E                     dE             d eps       ncg     rms          rms(c)
RMM:   1    -0.413174786068E+03   -0.88305E-02   -0.65790E+00  4288   0.546E-01    0.899E-01
RMM:   2    -0.413173408201E+03    0.13779E-02   -0.84513E-02  4199   0.742E-02    0.658E-01
RMM:   3    -0.413170433939E+03    0.29743E-02   -0.44588E-02  5052   0.780E-02    0.300E-01
RMM:   4    -0.413191157478E+03   -0.20724E-01   -0.32294E-02  5098   0.153E-01    0.656E-01
RMM:   5    -0.413166594477E+03    0.24563E-01   -0.11510E-02  4724   0.109E-01    0.480E-02
RMM:   6    -0.413166747077E+03   -0.15260E-03   -0.19970E-03  5637   0.439E-02    0.324E-02
RMM:   7    -0.413166746280E+03    0.79661E-06   -0.35338E-04  5605   0.176E-02    0.212E-02
RMM:   8    -0.413166745353E+03    0.92716E-06   -0.48487E-05  5116   0.793E-03    0.835E-03
RMM:   9    -0.413166745120E+03    0.23346E-06   -0.85829E-06  3354   0.341E-03
   11 T=    61. E= -.41286714E+03 F= -.41316675E+03 E0= -.41314439E+03  EK= 0.29960E+00 SP= 0.00E+00 SK= 0.00E+00
       N       E                     dE             d eps       ncg     rms          rms(c)
RMM:   1    -0.413174974737E+03   -0.82294E-02   -0.66293E+00  4295   0.549E-01    0.910E-01
RMM:   2    -0.413173296480E+03    0.16783E-02   -0.85126E-02  4354   0.738E-02    0.665E-01
RMM:   3    -0.413178173062E+03   -0.48766E-02   -0.49886E-02  5152   0.112E-01    0.472E-01
RMM:   4    -0.413180025214E+03   -0.18522E-02   -0.31438E-02  5043   0.156E-01    0.499E-01
RMM:   5    -0.413166692821E+03    0.13332E-01   -0.61633E-03  4558   0.836E-02    0.478E-02
RMM:   6    -0.413166703388E+03   -0.10567E-04   -0.10009E-03  5322   0.310E-02    0.295E-02
RMM:   7    -0.413166713570E+03   -0.10182E-04   -0.20218E-04  5464   0.140E-02    0.170E-02
RMM:   8    -0.413166713745E+03   -0.17539E-06   -0.30949E-05  4792   0.678E-03    0.573E-03
RMM:   9    -0.413166713826E+03   -0.81389E-07   -0.36493E-06  2762   0.251E-03
   12 T=    61. E= -.41286684E+03 F= -.41316671E+03 E0= -.41314438E+03  EK= 0.29988E+00 SP= 0.00E+00 SK= 0.00E+00
       N       E                     dE             d eps       ncg     rms          rms(c)
RMM:   1    -0.413175911278E+03   -0.91975E-02   -0.65898E+00  4297   0.551E-01    0.920E-01
RMM:   2    -0.413173622732E+03    0.22885E-02   -0.85365E-02  4253   0.747E-02    0.661E-01
RMM:   3    -0.413173101058E+03    0.52167E-03   -0.43303E-02  5128   0.868E-02    0.341E-01
RMM:   4    -0.413187583428E+03   -0.14482E-01   -0.32669E-02  5081   0.155E-01    0.598E-01
RMM:   5    -0.413167205109E+03    0.20378E-01   -0.87912E-03  4682   0.988E-02    0.493E-02
RMM:   6    -0.413167291193E+03   -0.86084E-04   -0.16285E-03  5580   0.396E-02    0.322E-02
RMM:   7    -0.413167286799E+03    0.43942E-05   -0.29972E-04  5661   0.164E-02    0.205E-02
RMM:   8    -0.413167278889E+03    0.79104E-05   -0.40940E-05  4996   0.759E-03    0.762E-03
RMM:   9    -0.413167275113E+03    0.37754E-05   -0.65344E-06  3081   0.308E-03    0.431E-03
RMM:  10    -0.413167272292E+03    0.28209E-05   -0.15551E-06  2530   0.201E-03    0.259E-03
RMM:  11    -0.413167269853E+03    0.24395E-05   -0.81484E-07  2464   0.145E-03    0.132E-03
RMM:  12    -0.413167265629E+03    0.42240E-05   -0.88931E-07  2484   0.137E-03    0.673E-04
RMM:  13    -0.413167262355E+03    0.32738E-05   -0.44512E-07  2082   0.103E-03    0.425E-04
RMM:  14    -0.413167261129E+03    0.12257E-05   -0.19751E-07  1543   0.761E-04    0.268E-04
RMM:  15    -0.413167256551E+03    0.45789E-05   -0.28688E-07  1821   0.830E-04    0.380E-04
RMM:  16    -0.413167251762E+03    0.47882E-05   -0.25041E-07  1411   0.718E-04    0.323E-04
RMM:  17    -0.413167250794E+03    0.96867E-06   -0.76638E-08   927   0.560E-04
   13 T=    61. E= -.41286690E+03 F= -.41316725E+03 E0= -.41314495E+03  EK= 0.30036E+00 SP= 0.00E+00 SK= 0.00E+00
       N       E                     dE             d eps       ncg     rms          rms(c)
RMM:   1    -0.413175979221E+03   -0.87275E-02   -0.65756E+00  4293   0.557E-01    0.901E-01
RMM:   2    -0.413174505632E+03    0.14736E-02   -0.84643E-02  4236   0.765E-02    0.657E-01
RMM:   3    -0.413171547916E+03    0.29577E-02   -0.43743E-02  5057   0.758E-02    0.292E-01
RMM:   4    -0.413192765862E+03   -0.21218E-01   -0.32813E-02  5096   0.154E-01    0.659E-01
RMM:   5    -0.413167778016E+03    0.24988E-01   -0.11611E-02  4724   0.110E-01    0.480E-02
RMM:   6    -0.413167938054E+03   -0.16004E-03   -0.20294E-03  5639   0.442E-02    0.329E-02
RMM:   7    -0.413167942210E+03   -0.41559E-05   -0.35940E-04  5577   0.179E-02    0.215E-02
RMM:   8    -0.413167939539E+03    0.26709E-05   -0.49157E-05  5112   0.809E-03    0.861E-03
RMM:   9    -0.413167938121E+03    0.14178E-05   -0.89294E-06  3378   0.350E-03    0.532E-03
RMM:  10    -0.413167938728E+03   -0.60664E-06   -0.16609E-06  2526   0.212E-03
   14 T=    61. E= -.41286706E+03 F= -.41316794E+03 E0= -.41314567E+03  EK= 0.30087E+00 SP= 0.00E+00 SK= 0.00E+00
       N       E                     dE             d eps       ncg     rms          rms(c)
RMM:   1    -0.413176197042E+03   -0.82589E-02   -0.66615E+00  4301   0.562E-01    0.908E-01
RMM:   2    -0.413174916671E+03    0.12804E-02   -0.85369E-02  4290   0.781E-02    0.666E-01
RMM:   3    -0.413176716107E+03   -0.17994E-02   -0.48886E-02  5115   0.103E-01    0.421E-01
RMM:   4    -0.413184460261E+03   -0.77442E-02   -0.31749E-02  5052   0.155E-01    0.549E-01
RMM:   5    -0.413167954077E+03    0.16506E-01   -0.76111E-03  4596   0.918E-02    0.479E-02
RMM:   6    -0.413168021615E+03   -0.67539E-04   -0.13224E-03  5436   0.349E-02    0.300E-02
RMM:   7    -0.413168029980E+03   -0.83641E-05   -0.24730E-04  5541   0.150E-02    0.183E-02
RMM:   8    -0.413168027444E+03    0.25354E-05   -0.35467E-05  4844   0.738E-03    0.643E-03
RMM:   9    -0.413168027252E+03    0.19259E-06   -0.50899E-06  2874   0.285E-03
   15 T=    61. E= -.41286679E+03 F= -.41316803E+03 E0= -.41314579E+03  EK= 0.30124E+00 SP= 0.00E+00 SK= 0.00E+00
       N       E                     dE             d eps       ncg     rms          rms(c)
RMM:   1    -0.413177703613E+03   -0.96762E-02   -0.66194E+00  4302   0.562E-01    0.923E-01
RMM:   2    -0.413175688232E+03    0.20154E-02   -0.85595E-02  4273   0.779E-02    0.664E-01
RMM:   3    -0.413175999418E+03   -0.31119E-03   -0.44413E-02  5107   0.951E-02    0.369E-01
RMM:   4    -0.413187622006E+03   -0.11623E-01   -0.32283E-02  5059   0.155E-01    0.573E-01
RMM:   5    -0.413169036295E+03    0.18586E-01   -0.79455E-03  4646   0.953E-02    0.491E-02
RMM:   6    -0.413169105294E+03   -0.68999E-04   -0.14641E-03  5525   0.374E-02    0.318E-02
RMM:   7    -0.413169100005E+03    0.52889E-05   -0.27549E-04  5612   0.160E-02    0.197E-02
RMM:   8    -0.413169091305E+03    0.87003E-05   -0.39348E-05  4944   0.765E-03    0.716E-03
RMM:   9    -0.413169087575E+03    0.37303E-05   -0.60145E-06  2979   0.299E-03    0.396E-03
RMM:  10    -0.413169084436E+03    0.31389E-05   -0.14657E-06  2521   0.197E-03    0.239E-03
RMM:  11    -0.413169081563E+03    0.28733E-05   -0.78839E-07  2456   0.142E-03    0.119E-03
RMM:  12    -0.413169076928E+03    0.46345E-05   -0.79234E-07  2466   0.131E-03    0.607E-04
RMM:  13    -0.413169073209E+03    0.37188E-05   -0.39261E-07  1981   0.974E-04    0.371E-04
RMM:  14    -0.413169071458E+03    0.17515E-05   -0.18378E-07  1444   0.742E-04    0.227E-04
RMM:  15    -0.413169065039E+03    0.64193E-05   -0.32569E-07  1953   0.866E-04    0.444E-04
RMM:  16    -0.413169060673E+03    0.43653E-05   -0.16577E-07  1208   0.646E-04    0.286E-04
RMM:  17    -0.413169059535E+03    0.11384E-05   -0.70773E-08   915   0.559E-04    0.201E-04
RMM:  18    -0.413169057451E+03    0.20835E-05   -0.62050E-08   962   0.583E-04    0.686E-05
RMM:  19    -0.413169056057E+03    0.13946E-05   -0.50829E-08  1016   0.590E-04    0.967E-05
RMM:  20    -0.413169056074E+03   -0.17590E-07   -0.15639E-08   675   0.535E-04
   16 T=    61. E= -.41286708E+03 F= -.41316906E+03 E0= -.41314686E+03  EK= 0.30197E+00 SP= 0.00E+00 SK= 0.00E+00
       N       E                     dE             d eps       ncg     rms          rms(c)
RMM:   1    -0.413177813103E+03   -0.87570E-02   -0.65888E+00  4298   0.568E-01    0.906E-01
RMM:   2    -0.413176167286E+03    0.16458E-02   -0.85215E-02  4256   0.765E-02    0.658E-01
RMM:   3    -0.413173073702E+03    0.30936E-02   -0.43125E-02  5028   0.782E-02    0.285E-01
RMM:   4    -0.413194764217E+03   -0.21691E-01   -0.33067E-02  5090   0.155E-01    0.664E-01
RMM:   5    -0.413169382354E+03    0.25382E-01   -0.11717E-02  4730   0.110E-01    0.480E-02
RMM:   6    -0.413169534478E+03   -0.15212E-03   -0.20823E-03  5657   0.446E-02    0.335E-02
RMM:   7    -0.413169526847E+03    0.76305E-05   -0.36864E-04  5554   0.182E-02    0.220E-02
RMM:   8    -0.413169520256E+03    0.65908E-05   -0.50391E-05  5128   0.823E-03    0.890E-03
RMM:   9    -0.413169517631E+03    0.26257E-05   -0.92797E-06  3437   0.356E-03    0.552E-03
RMM:  10    -0.413169516931E+03    0.69923E-06   -0.17041E-06  2530   0.215E-03
   17 T=    62. E= -.41286698E+03 F= -.41316952E+03 E0= -.41314736E+03  EK= 0.30254E+00 SP= 0.00E+00 SK= 0.00E+00
       N       E                     dE             d eps       ncg     rms          rms(c)
RMM:   1    -0.413178235347E+03   -0.87177E-02   -0.66884E+00  4299   0.576E-01    0.907E-01
RMM:   2    -0.413176870738E+03    0.13646E-02   -0.86019E-02  4307   0.769E-02    0.666E-01
RMM:   3    -0.413179235184E+03   -0.23644E-02   -0.49649E-02  5120   0.105E-01    0.433E-01
RMM:   4    -0.413186029505E+03   -0.67943E-02   -0.31876E-02  5042   0.155E-01    0.544E-01
RMM:   5    -0.413169950933E+03    0.16079E-01   -0.74321E-03  4590   0.897E-02    0.476E-02
RMM:   6    -0.413170005441E+03   -0.54509E-04   -0.12736E-03  5421   0.339E-02    0.298E-02
RMM:   7    -0.413170008532E+03   -0.30906E-05   -0.23818E-04  5494   0.146E-02    0.180E-02
RMM:   8    -0.413170008163E+03    0.36904E-06   -0.34072E-05  4830   0.698E-03    0.627E-03
RMM:   9    -0.413170007776E+03    0.38682E-06   -0.44943E-06  2817   0.270E-03
   18 T=    62. E= -.41286688E+03 F= -.41317001E+03 E0= -.41314789E+03  EK= 0.30313E+00 SP= 0.00E+00 SK= 0.00E+00
       N       E                     dE             d eps       ncg     rms          rms(c)
RMM:   1    -0.413179884472E+03   -0.98763E-02   -0.66578E+00  4295   0.576E-01    0.923E-01
RMM:   2    -0.413177824538E+03    0.20599E-02   -0.86246E-02  4287   0.771E-02    0.666E-01
RMM:   3    -0.413178103691E+03   -0.27915E-03   -0.45039E-02  5120   0.936E-02    0.370E-01
RMM:   4    -0.413190136120E+03   -0.12032E-01   -0.32598E-02  5061   0.156E-01    0.579E-01
RMM:   5    -0.413171186054E+03    0.18950E-01   -0.81781E-03  4648   0.960E-02    0.489E-02
RMM:   6    -0.413171252690E+03   -0.66636E-04   -0.14886E-03  5547   0.375E-02    0.317E-02
RMM:   7    -0.413171247652E+03    0.50386E-05   -0.28031E-04  5596   0.163E-02    0.199E-02
RMM:   8    -0.413171243157E+03    0.44951E-05   -0.40022E-05  4945   0.765E-03    0.723E-03
RMM:   9    -0.413171239626E+03    0.35301E-05   -0.60828E-06  2988   0.302E-03    0.402E-03
RMM:  10    -0.413171236523E+03    0.31033E-05   -0.14731E-06  2523   0.197E-03    0.240E-03
RMM:  11    -0.413171233733E+03    0.27905E-05   -0.78248E-07  2455   0.141E-03    0.121E-03
RMM:  12    -0.413171228946E+03    0.47872E-05   -0.79856E-07  2468   0.132E-03    0.624E-04
RMM:  13    -0.413171225101E+03    0.38449E-05   -0.38500E-07  1992   0.975E-04    0.383E-04
RMM:  14    -0.413171223464E+03    0.16366E-05   -0.17806E-07  1443   0.735E-04    0.236E-04
RMM:  15    -0.413171216786E+03    0.66783E-05   -0.28048E-07  1791   0.820E-04    0.406E-04
RMM:  16    -0.413171212080E+03    0.47061E-05   -0.15076E-07  1190   0.647E-04    0.282E-04
RMM:  17    -0.413171210680E+03    0.14000E-05   -0.68351E-08   926   0.563E-04    0.197E-04
RMM:  18    -0.413171208356E+03    0.23233E-05   -0.57728E-08   946   0.576E-04    0.810E-05
RMM:  19    -0.413171206659E+03    0.16975E-05   -0.50035E-08  1042   0.587E-04    0.826E-05
RMM:  20    -0.413171206615E+03    0.43790E-07   -0.14847E-08   672   0.529E-04
   19 T=    62. E= -.41286719E+03 F= -.41317121E+03 E0= -.41314913E+03  EK= 0.30402E+00 SP= 0.00E+00 SK= 0.00E+00
       N       E                     dE             d eps       ncg     rms          rms(c)
RMM:   1    -0.413180064062E+03   -0.88574E-02   -0.66236E+00  4295   0.579E-01    0.914E-01
RMM:   2    -0.413178173350E+03    0.18907E-02   -0.85769E-02  4256   0.785E-02    0.661E-01
RMM:   3    -0.413175114314E+03    0.30590E-02   -0.42576E-02  5057   0.754E-02    0.279E-01
RMM:   4    -0.413197261122E+03   -0.22147E-01   -0.33577E-02  5090   0.155E-01    0.667E-01
RMM:   5    -0.413171501203E+03    0.25760E-01   -0.11838E-02  4730   0.111E-01    0.484E-02
RMM:   6    -0.413171654628E+03   -0.15342E-03   -0.21209E-03  5668   0.451E-02    0.340E-02
RMM:   7    -0.413171646093E+03    0.85346E-05   -0.37403E-04  5546   0.185E-02    0.224E-02
RMM:   8    -0.413171640888E+03    0.52052E-05   -0.52317E-05  5103   0.868E-03    0.919E-03
RMM:   9    -0.413171637620E+03    0.32682E-05   -0.10253E-05  3503   0.373E-03    0.564E-03
RMM:  10    -0.413171635583E+03    0.20366E-05   -0.18013E-06  2535   0.221E-03    0.333E-03
RMM:  11    -0.413171633929E+03    0.16546E-05   -0.89109E-07  2496   0.153E-03    0.181E-03
RMM:  12    -0.413171630517E+03    0.34116E-05   -0.11759E-06  2509   0.163E-03    0.925E-04
RMM:  13    -0.413171627496E+03    0.30214E-05   -0.51688E-07  2283   0.116E-03    0.709E-04
RMM:  14    -0.413171627288E+03    0.20809E-06   -0.21146E-07  1736   0.800E-04
   20 T=    62. E= -.41286692E+03 F= -.41317163E+03 E0= -.41314959E+03  EK= 0.30471E+00 SP= 0.00E+00 SK= 0.00E+00
       N       E                     dE             d eps       ncg     rms          rms(c)
RMM:   1    -0.413180980750E+03   -0.93533E-02   -0.67101E+00  4296   0.587E-01    0.908E-01
RMM:   2    -0.413179500843E+03    0.14799E-02   -0.86118E-02  4260   0.778E-02    0.667E-01
RMM:   3    -0.413176122266E+03    0.33786E-02   -0.45768E-02  5046   0.741E-02    0.293E-01
RMM:   4    -0.413198444893E+03   -0.22323E-01   -0.32586E-02  5096   0.153E-01    0.670E-01
RMM:   5    -0.413172606644E+03    0.25838E-01   -0.12280E-02  4739   0.112E-01    0.473E-02
RMM:   6    -0.413172783750E+03   -0.17711E-03   -0.21728E-03  5689   0.453E-02    0.327E-02
RMM:   7    -0.413172784158E+03   -0.40816E-06   -0.37368E-04  5568   0.185E-02    0.219E-02
RMM:   8    -0.413172778339E+03    0.58191E-05   -0.52367E-05  5063   0.845E-03    0.917E-03
RMM:   9    -0.413172776404E+03    0.19346E-05   -0.10192E-05  3509   0.371E-03    0.584E-03
RMM:  10    -0.413172777035E+03   -0.63071E-06   -0.17498E-06  2537   0.216E-03
   21 T=    62. E= -.41286712E+03 F= -.41317278E+03 E0= -.41315079E+03  EK= 0.30566E+00 SP= 0.00E+00 SK= 0.00E+00
       N       E                     dE             d eps       ncg     rms          rms(c)
RMM:   1    -0.413182519684E+03   -0.97433E-02   -0.67110E+00  4298   0.588E-01    0.923E-01
RMM:   2    -0.413180574275E+03    0.19454E-02   -0.86639E-02  4314   0.794E-02    0.670E-01
RMM:   3    -0.413182725256E+03   -0.21510E-02   -0.47279E-02  5120   0.103E-01    0.414E-01
RMM:   4    -0.413190565683E+03   -0.78404E-02   -0.32391E-02  5050   0.156E-01    0.547E-01
RMM:   5    -0.413173811697E+03    0.16754E-01   -0.72005E-03  4598   0.914E-02    0.485E-02
RMM:   6    -0.413173872403E+03   -0.60706E-04   -0.13366E-03  5426   0.352E-02    0.310E-02
RMM:   7    -0.413173897858E+03   -0.25455E-04   -0.25333E-04  5449   0.163E-02    0.190E-02
RMM:   8    -0.413173891177E+03    0.66813E-05   -0.38056E-05  4875   0.761E-03    0.678E-03
RMM:   9    -0.413173887843E+03    0.33344E-05   -0.56799E-06  2947   0.293E-03    0.376E-03
RMM:  10    -0.413173885508E+03    0.23347E-05   -0.12964E-06  2515   0.190E-03    0.224E-03
RMM:  11    -0.413173883267E+03    0.22407E-05   -0.70490E-07  2436   0.135E-03    0.112E-03
RMM:  12    -0.413173879348E+03    0.39194E-05   -0.67565E-07  2412   0.122E-03    0.556E-04
RMM:  13    -0.413173876221E+03    0.31265E-05   -0.32162E-07  1864   0.907E-04    0.332E-04
RMM:  14    -0.413173874341E+03    0.18803E-05   -0.16101E-07  1364   0.707E-04    0.199E-04
RMM:  15    -0.413173868840E+03    0.55011E-05   -0.20669E-07  1511   0.751E-04    0.290E-04
RMM:  16    -0.413173864333E+03    0.45073E-05   -0.12979E-07  1111   0.641E-04    0.202E-04
RMM:  17    -0.413173862492E+03    0.18410E-05   -0.64376E-08   931   0.579E-04    0.129E-04
RMM:  18    -0.413173860026E+03    0.24660E-05   -0.53360E-08   963   0.583E-04    0.550E-05
RMM:  19    -0.413173858627E+03    0.13986E-05   -0.35608E-08   902   0.565E-04    0.317E-05
RMM:  20    -0.413173858238E+03    0.38851E-06   -0.16241E-08   720   0.534E-04
   22 T=    62. E= -.41286722E+03 F= -.41317386E+03 E0= -.41315192E+03  EK= 0.30664E+00 SP= 0.00E+00 SK= 0.00E+00
       N       E                     dE             d eps       ncg     rms          rms(c)
RMM:   1    -0.413183345642E+03   -0.94870E-02   -0.66811E+00  4294   0.594E-01    0.922E-01
RMM:   2    -0.413181283626E+03    0.20620E-02   -0.86804E-02  4279   0.793E-02    0.665E-01
RMM:   3    -0.413177808866E+03    0.34748E-02   -0.42322E-02  5002   0.790E-02    0.267E-01
RMM:   4    -0.413201201560E+03   -0.23393E-01   -0.33718E-02  5095   0.156E-01    0.679E-01
RMM:   5    -0.413174474090E+03    0.26727E-01   -0.12302E-02  4741   0.114E-01    0.485E-02
RMM:   6    -0.413174629368E+03   -0.15528E-03   -0.22552E-03  5689   0.464E-02    0.346E-02
RMM:   7    -0.413174619707E+03    0.96605E-05   -0.38882E-04  5546   0.189E-02    0.229E-02
RMM:   8    -0.413174611699E+03    0.80081E-05   -0.54725E-05  5135   0.868E-03    0.967E-03
RMM:   9    -0.413174607294E+03    0.44051E-05   -0.10665E-05  3575   0.381E-03    0.602E-03
RMM:  10    -0.413174604306E+03    0.29880E-05   -0.19101E-06  2549   0.226E-03    0.359E-03
RMM:  11    -0.413174601932E+03    0.23746E-05   -0.94408E-07  2498   0.157E-03    0.197E-03
RMM:  12    -0.413174597291E+03    0.46409E-05   -0.13053E-06  2526   0.171E-03    0.971E-04
RMM:  13    -0.413174593457E+03    0.38338E-05   -0.57072E-07  2323   0.121E-03    0.778E-04
RMM:  14    -0.413174593318E+03    0.13891E-06   -0.22542E-07  1787   0.820E-04
   23 T=    63. E= -.41286699E+03 F= -.41317459E+03 E0= -.41315270E+03  EK= 0.30761E+00 SP= 0.00E+00 SK= 0.00E+00
       N       E                     dE             d eps       ncg     rms          rms(c)
RMM:   1    -0.413184508885E+03   -0.99154E-02   -0.67376E+00  4296   0.600E-01    0.910E-01
RMM:   2    -0.413183289801E+03    0.12191E-02   -0.87040E-02  4282   0.818E-02    0.667E-01
RMM:   3    -0.413179174907E+03    0.41149E-02   -0.45300E-02  4960   0.790E-02    0.276E-01
RMM:   4    -0.413202465048E+03   -0.23290E-01   -0.31803E-02  5099   0.151E-01    0.676E-01
RMM:   5    -0.413176056345E+03    0.26409E-01   -0.12625E-02  4756   0.114E-01    0.470E-02
RMM:   6    -0.413176227845E+03   -0.17150E-03   -0.22855E-03  5742   0.460E-02    0.329E-02
RMM:   7    -0.413176225793E+03    0.20521E-05   -0.37823E-04  5562   0.187E-02    0.222E-02
RMM:   8    -0.413176219398E+03    0.63949E-05   -0.55779E-05  5014   0.864E-03    0.979E-03
RMM:   9    -0.413176216969E+03    0.24290E-05   -0.10898E-05  3593   0.388E-03    0.639E-03
RMM:  10    -0.413176216559E+03    0.40963E-06   -0.18750E-06  2545   0.225E-03
   24 T=    63. E= -.41286726E+03 F= -.41317622E+03 E0= -.41315437E+03  EK= 0.30896E+00 SP= 0.00E+00 SK= 0.00E+00
       N       E                     dE             d eps       ncg     rms          rms(c)
RMM:   1    -0.413185890744E+03   -0.96738E-02   -0.67850E+00  4300   0.604E-01    0.923E-01
RMM:   2    -0.413184263405E+03    0.16273E-02   -0.87603E-02  4331   0.814E-02    0.674E-01
RMM:   3    -0.413186627639E+03   -0.23642E-02   -0.48841E-02  5095   0.109E-01    0.430E-01
RMM:   4    -0.413193602035E+03   -0.69744E-02   -0.32234E-02  5040   0.157E-01    0.545E-01
RMM:   5    -0.413177183272E+03    0.16419E-01   -0.71411E-03  4588   0.907E-02    0.478E-02
RMM:   6    -0.413177244075E+03   -0.60803E-04   -0.13158E-03  5475   0.348E-02    0.308E-02
RMM:   7    -0.413177246586E+03   -0.25112E-05   -0.24795E-04  5462   0.153E-02    0.189E-02
RMM:   8    -0.413177243261E+03    0.33254E-05   -0.35225E-05  4832   0.727E-03    0.659E-03
RMM:   9    -0.413177240857E+03    0.24040E-05   -0.51422E-06  2882   0.282E-03    0.366E-03
RMM:  10    -0.413177239034E+03    0.18228E-05   -0.12221E-06  2499   0.183E-03    0.220E-03
RMM:  11    -0.413177237075E+03    0.19594E-05   -0.68428E-07  2405   0.132E-03    0.110E-03
RMM:  12    -0.413177233482E+03    0.35923E-05   -0.65098E-07  2394   0.120E-03    0.551E-04
RMM:  13    -0.413177230884E+03    0.25985E-05   -0.29345E-07  1820   0.880E-04    0.353E-04
RMM:  14    -0.413177228835E+03    0.20492E-05   -0.15382E-07  1341   0.700E-04    0.208E-04
RMM:  15    -0.413177223783E+03    0.50521E-05   -0.17762E-07  1455   0.727E-04    0.268E-04
RMM:  16    -0.413177218626E+03    0.51569E-05   -0.13164E-07  1132   0.646E-04    0.185E-04
RMM:  17    -0.413177216667E+03    0.19587E-05   -0.59902E-08   937   0.581E-04    0.119E-04
RMM:  18    -0.413177213804E+03    0.28634E-05   -0.51695E-08   997   0.586E-04    0.445E-05
RMM:  19    -0.413177212818E+03    0.98594E-06   -0.25086E-08   794   0.550E-04
   25 T=    63. E= -.41286705E+03 F= -.41317721E+03 E0= -.41315542E+03  EK= 0.31016E+00 SP= 0.00E+00 SK= 0.00E+00
       N       E                     dE             d eps       ncg     rms          rms(c)
RMM:   1    -0.413187870747E+03   -0.10657E-01   -0.67631E+00  4286   0.616E-01    0.932E-01
RMM:   2    -0.413185213063E+03    0.26577E-02   -0.88263E-02  4284   0.824E-02    0.671E-01
RMM:   3    -0.413181109363E+03    0.41037E-02   -0.42059E-02  4963   0.753E-02    0.243E-01
RMM:   4    -0.413206378988E+03   -0.25270E-01   -0.33128E-02  5106   0.154E-01    0.692E-01
RMM:   5    -0.413178424734E+03    0.27954E-01   -0.13041E-02  4753   0.116E-01    0.482E-02
RMM:   6    -0.413178604098E+03   -0.17936E-03   -0.23836E-03  5747   0.473E-02    0.347E-02
RMM:   7    -0.413178601029E+03    0.30691E-05   -0.39047E-04  5562   0.194E-02    0.232E-02
RMM:   8    -0.413178593394E+03    0.76346E-05   -0.58220E-05  5040   0.914E-03    0.104E-02
RMM:   9    -0.413178588657E+03    0.47368E-05   -0.11989E-05  3702   0.410E-03    0.668E-03
RMM:  10    -0.413178584996E+03    0.36609E-05   -0.21061E-06  2574   0.239E-03    0.395E-03
RMM:  11    -0.413178581978E+03    0.30186E-05   -0.11037E-06  2500   0.170E-03    0.214E-03
RMM:  12    -0.413178576475E+03    0.55022E-05   -0.15859E-06  2557   0.186E-03    0.106E-03
RMM:  13    -0.413178572845E+03    0.36308E-05   -0.55494E-07  2349   0.125E-03    0.783E-04
RMM:  14    -0.413178572625E+03    0.21927E-06   -0.23346E-07  1825   0.831E-04
   26 T=    63. E= -.41286707E+03 F= -.41317857E+03 E0= -.41315682E+03  EK= 0.31150E+00 SP= 0.00E+00 SK= 0.00E+00
       N       E                     dE             d eps       ncg     rms          rms(c)
RMM:   1    -0.413188891931E+03   -0.10319E-01   -0.67834E+00  4292   0.617E-01    0.914E-01
RMM:   2    -0.413187233230E+03    0.16587E-02   -0.88171E-02  4284   0.851E-02    0.669E-01
RMM:   3    -0.413182578415E+03    0.46548E-02   -0.44172E-02  4939   0.717E-02    0.246E-01
RMM:   4    -0.413205850063E+03   -0.23272E-01   -0.29188E-02  5114   0.145E-01    0.665E-01
RMM:   5    -0.413180194630E+03    0.25655E-01   -0.12300E-02  4761   0.112E-01    0.460E-02
RMM:   6    -0.413180358503E+03   -0.16387E-03   -0.21965E-03  5798   0.449E-02    0.318E-02
RMM:   7    -0.413180366862E+03   -0.83587E-05   -0.33358E-04  5584   0.184E-02    0.212E-02
RMM:   8    -0.413180360331E+03    0.65303E-05   -0.58594E-05  4927   0.895E-03    0.103E-02
RMM:   9    -0.413180356421E+03    0.39108E-05   -0.11876E-05  3744   0.413E-03    0.684E-03
RMM:  10    -0.413180354719E+03    0.17019E-05   -0.19922E-06  2554   0.236E-03    0.402E-03
RMM:  11    -0.413180352800E+03    0.19184E-05   -0.12881E-06  2513   0.181E-03    0.206E-03
RMM:  12    -0.413180349674E+03    0.31267E-05   -0.14180E-06  2526   0.180E-03    0.108E-03
RMM:  13    -0.413180347730E+03    0.19434E-05   -0.45058E-07  2288   0.117E-03    0.658E-04
RMM:  14    -0.413180347101E+03    0.62953E-06   -0.20430E-07  1715   0.792E-04
   27 T=    64. E= -.41286727E+03 F= -.41318035E+03 E0= -.41315865E+03  EK= 0.31308E+00 SP= 0.00E+00 SK= 0.00E+00
       N       E                     dE             d eps       ncg     rms          rms(c)
RMM:   1    -0.413190193361E+03   -0.98456E-02   -0.68758E+00  4294   0.622E-01    0.925E-01
RMM:   2    -0.413188516817E+03    0.16765E-02   -0.89333E-02  4281   0.880E-02    0.678E-01
RMM:   3    -0.413183786312E+03    0.47305E-02   -0.45623E-02  4953   0.712E-02    0.256E-01
RMM:   4    -0.413207145547E+03   -0.23359E-01   -0.29526E-02  5115   0.146E-01    0.667E-01
RMM:   5    -0.413181359039E+03    0.25787E-01   -0.12385E-02  4760   0.112E-01    0.462E-02
RMM:   6    -0.413181531329E+03   -0.17229E-03   -0.22135E-03  5801   0.450E-02    0.324E-02
RMM:   7    -0.413181540338E+03   -0.90085E-05   -0.34935E-04  5553   0.186E-02    0.217E-02
RMM:   8    -0.413181535267E+03    0.50711E-05   -0.55653E-05  4983   0.870E-03    0.101E-02
RMM:   9    -0.413181532330E+03    0.29373E-05   -0.11109E-05  3653   0.395E-03    0.667E-03
RMM:  10    -0.413181531339E+03    0.99100E-06   -0.19210E-06  2555   0.230E-03
   28 T=    64. E= -.41286698E+03 F= -.41318153E+03 E0= -.41315988E+03  EK= 0.31455E+00 SP= 0.00E+00 SK= 0.00E+00
       N       E                     dE             d eps       ncg     rms          rms(c)
RMM:   1    -0.413192876771E+03   -0.11344E-01   -0.68553E+00  4294   0.629E-01    0.940E-01
RMM:   2    -0.413190604110E+03    0.22727E-02   -0.89842E-02  4325   0.896E-02    0.677E-01
RMM:   3    -0.413191255875E+03   -0.65177E-03   -0.45879E-02  5096   0.102E-01    0.384E-01
RMM:   4    -0.413202620761E+03   -0.11365E-01   -0.33580E-02  5047   0.159E-01    0.579E-01
RMM:   5    -0.413183570891E+03    0.19050E-01   -0.80104E-03  4648   0.971E-02    0.490E-02
RMM:   6    -0.413183635235E+03   -0.64344E-04   -0.15552E-03  5589   0.379E-02    0.327E-02
RMM:   7    -0.413183631832E+03    0.34037E-05   -0.28827E-04  5452   0.170E-02    0.205E-02
RMM:   8    -0.413183623609E+03    0.82229E-05   -0.42711E-05  4968   0.806E-03    0.762E-03
RMM:   9    -0.413183618516E+03    0.50927E-05   -0.71210E-06  3105   0.321E-03    0.418E-03
RMM:  10    -0.413183613747E+03    0.47692E-05   -0.15201E-06  2529   0.202E-03    0.254E-03
RMM:  11    -0.413183609319E+03    0.44282E-05   -0.82728E-07  2469   0.145E-03    0.132E-03
RMM:  12    -0.413183602246E+03    0.70722E-05   -0.82934E-07  2475   0.135E-03    0.631E-04
RMM:  13    -0.413183598279E+03    0.39679E-05   -0.37920E-07  2027   0.979E-04    0.431E-04
RMM:  14    -0.413183595442E+03    0.28369E-05   -0.19296E-07  1526   0.752E-04    0.271E-04
RMM:  15    -0.413183588870E+03    0.65717E-05   -0.17790E-07  1530   0.739E-04    0.269E-04
RMM:  16    -0.413183581808E+03    0.70616E-05   -0.14131E-07  1231   0.659E-04    0.222E-04
RMM:  17    -0.413183578704E+03    0.31044E-05   -0.70103E-08   992   0.585E-04    0.138E-04
RMM:  18    -0.413183574973E+03    0.37307E-05   -0.61532E-08  1091   0.600E-04    0.468E-05
RMM:  19    -0.413183573852E+03    0.11209E-05   -0.32572E-08   892   0.553E-04    0.404E-05
RMM:  20    -0.413183573473E+03    0.37890E-06   -0.15350E-08   717   0.526E-04
   29 T=    64. E= -.41286720E+03 F= -.41318357E+03 E0= -.41316198E+03  EK= 0.31637E+00 SP= 0.00E+00 SK= 0.00E+00
       N       E                     dE             d eps       ncg     rms          rms(c)
RMM:   1    -0.413194755488E+03   -0.11182E-01   -0.68569E+00  4295   0.657E-01    0.922E-01
RMM:   2    -0.413192689563E+03    0.20659E-02   -0.91373E-02  4273   0.968E-02    0.673E-01
RMM:   3    -0.413188050328E+03    0.46392E-02   -0.43590E-02  4962   0.778E-02    0.251E-01
RMM:   4    -0.413213775577E+03   -0.25725E-01   -0.33244E-02  5112   0.155E-01    0.699E-01
RMM:   5    -0.413185349108E+03    0.28426E-01   -0.13473E-02  4755   0.117E-01    0.478E-02
RMM:   6    -0.413185520017E+03   -0.17091E-03   -0.24413E-03  5796   0.468E-02    0.338E-02
RMM:   7    -0.413185526629E+03   -0.66125E-05   -0.38466E-04  5566   0.192E-02    0.228E-02
RMM:   8    -0.413185521516E+03    0.51130E-05   -0.61124E-05  5026   0.904E-03    0.107E-02
RMM:   9    -0.413185517426E+03    0.40908E-05   -0.12090E-05  3740   0.411E-03    0.681E-03
RMM:  10    -0.413185515465E+03    0.19610E-05   -0.21164E-06  2572   0.236E-03    0.399E-03
RMM:  11    -0.413185513649E+03    0.18155E-05   -0.11265E-06  2497   0.173E-03    0.214E-03
RMM:  12    -0.413185510302E+03    0.33472E-05   -0.15390E-06  2534   0.186E-03    0.109E-03
RMM:  13    -0.413185508107E+03    0.21945E-05   -0.51390E-07  2337   0.124E-03    0.751E-04
RMM:  14    -0.413185507576E+03    0.53089E-06   -0.22389E-07  1816   0.828E-04
   30 T=    65. E= -.41286727E+03 F= -.41318551E+03 E0= -.41316396E+03  EK= 0.31824E+00 SP= 0.00E+00 SK= 0.00E+00
       N       E                     dE             d eps       ncg     rms          rms(c)
RMM:   1    -0.413196058371E+03   -0.10550E-01   -0.69770E+00  4300   0.646E-01    0.928E-01
RMM:   2    -0.413194678589E+03    0.13798E-02   -0.92089E-02  4271   0.969E-02    0.683E-01
RMM:   3    -0.413189378413E+03    0.53002E-02   -0.46548E-02  4883   0.781E-02    0.255E-01
RMM:   4    -0.413212692319E+03   -0.23314E-01   -0.28890E-02  5117   0.145E-01    0.666E-01
RMM:   5    -0.413186954601E+03    0.25738E-01   -0.12485E-02  4781   0.112E-01    0.457E-02
RMM:   6    -0.413187112467E+03   -0.15787E-03   -0.21841E-03  5839   0.440E-02    0.313E-02
RMM:   7    -0.413187127819E+03   -0.15352E-04   -0.31264E-04  5584   0.178E-02    0.202E-02
RMM:   8    -0.413187124671E+03    0.31478E-05   -0.59673E-05  4962   0.871E-03    0.103E-02
RMM:   9    -0.413187121081E+03    0.35906E-05   -0.11821E-05  3795   0.413E-03    0.679E-03
RMM:  10    -0.413187120251E+03    0.82936E-06   -0.19696E-06  2555   0.233E-03
   31 T=    65. E= -.41286702E+03 F= -.41318712E+03 E0= -.41316562E+03  EK= 0.32010E+00 SP= 0.00E+00 SK= 0.00E+00
       N       E                     dE             d eps       ncg     rms          rms(c)
RMM:   1    -0.413199005024E+03   -0.11884E-01   -0.69634E+00  4302   0.654E-01    0.947E-01
RMM:   2    -0.413196858332E+03    0.21467E-02   -0.92057E-02  4314   0.987E-02    0.684E-01
RMM:   3    -0.413196554823E+03    0.30351E-03   -0.46360E-02  5060   0.104E-01    0.366E-01
RMM:   4    -0.413210949978E+03   -0.14395E-01   -0.34557E-02  5053   0.161E-01    0.611E-01
RMM:   5    -0.413189560079E+03    0.21390E-01   -0.91216E-03  4669   0.101E-01    0.492E-02
RMM:   6    -0.413189661952E+03   -0.10187E-03   -0.17964E-03  5668   0.399E-02    0.336E-02
RMM:   7    -0.413189668261E+03   -0.63091E-05   -0.31821E-04  5463   0.175E-02    0.216E-02
RMM:   8    -0.413189664646E+03    0.36147E-05   -0.46115E-05  5013   0.832E-03    0.835E-03
RMM:   9    -0.413189659615E+03    0.50317E-05   -0.83504E-06  3198   0.346E-03    0.459E-03
RMM:  10    -0.413189654903E+03    0.47121E-05   -0.16683E-06  2541   0.213E-03    0.277E-03
RMM:  11    -0.413189650630E+03    0.42726E-05   -0.85245E-07  2477   0.150E-03    0.145E-03
RMM:  12    -0.413189643305E+03    0.73249E-05   -0.87328E-07  2476   0.142E-03    0.688E-04
RMM:  13    -0.413189639289E+03    0.40165E-05   -0.39808E-07  2132   0.103E-03    0.488E-04
RMM:  14    -0.413189636704E+03    0.25843E-05   -0.19464E-07  1608   0.769E-04    0.314E-04
RMM:  15    -0.413189630322E+03    0.63819E-05   -0.16207E-07  1520   0.735E-04    0.256E-04
RMM:  16    -0.413189622910E+03    0.74121E-05   -0.12495E-07  1268   0.664E-04    0.259E-04
RMM:  17    -0.413189618955E+03    0.39549E-05   -0.68811E-08   994   0.587E-04    0.169E-04
RMM:  18    -0.413189614823E+03    0.41329E-05   -0.62545E-08  1138   0.603E-04    0.566E-05
RMM:  19    -0.413189613509E+03    0.13139E-05   -0.32871E-08   919   0.557E-04    0.422E-05
RMM:  20    -0.413189612961E+03    0.54730E-06   -0.18272E-08   772   0.529E-04
   32 T=    66. E= -.41286730E+03 F= -.41318961E+03 E0= -.41316816E+03  EK= 0.32231E+00 SP= 0.00E+00 SK= 0.00E+00
       N       E                     dE             d eps       ncg     rms          rms(c)
RMM:   1    -0.413200504678E+03   -0.10891E-01   -0.69536E+00  4301   0.669E-01    0.936E-01
RMM:   2    -0.413198670110E+03    0.18346E-02   -0.92390E-02  4261   0.100E-01    0.679E-01
RMM:   3    -0.413193182712E+03    0.54874E-02   -0.43655E-02  4786   0.818E-02    0.217E-01
RMM:   4    -0.413216040759E+03   -0.22858E-01   -0.26643E-02  5119   0.139E-01    0.652E-01
RMM:   5    -0.413191264457E+03    0.24776E-01   -0.12101E-02  4783   0.109E-01    0.456E-02
RMM:   6    -0.413191425080E+03   -0.16062E-03   -0.21317E-03  5820   0.433E-02    0.319E-02
RMM:   7    -0.413191440569E+03   -0.15489E-04   -0.27443E-04  5576   0.173E-02    0.189E-02
RMM:   8    -0.413191439880E+03    0.68884E-06   -0.58222E-05  4962   0.836E-03    0.108E-02
RMM:   9    -0.413191434740E+03    0.51401E-05   -0.12197E-05  3877   0.416E-03    0.707E-03
RMM:  10    -0.413191432340E+03    0.23994E-05   -0.21926E-06  2585   0.248E-03    0.403E-03
RMM:  11    -0.413191429555E+03    0.27851E-05   -0.14778E-06  2524   0.193E-03    0.207E-03
RMM:  12    -0.413191425128E+03    0.44276E-05   -0.14565E-06  2519   0.188E-03    0.114E-03
RMM:  13    -0.413191423051E+03    0.20771E-05   -0.46971E-07  2311   0.121E-03    0.709E-04
RMM:  14    -0.413191422192E+03    0.85832E-06   -0.21266E-07  1749   0.812E-04
   33 T=    66. E= -.41286710E+03 F= -.41319142E+03 E0= -.41317002E+03  EK= 0.32432E+00 SP= 0.00E+00 SK= 0.00E+00
       N       E                     dE             d eps       ncg     rms          rms(c)
RMM:   1    -0.413202817595E+03   -0.11395E-01   -0.70799E+00  4307   0.685E-01    0.934E-01
RMM:   2    -0.413201244281E+03    0.15733E-02   -0.94987E-02  4263   0.107E-01    0.688E-01
RMM:   3    -0.413195126080E+03    0.61182E-02   -0.46881E-02  4572   0.846E-02    0.223E-01
RMM:   4    -0.413205731810E+03   -0.10606E-01   -0.13149E-02  5125   0.994E-02    0.460E-01
RMM:   5    -0.413193644207E+03    0.12088E-01   -0.59271E-03  4796   0.761E-02    0.401E-02
RMM:   6    -0.413193735359E+03   -0.91152E-04   -0.11651E-03  5812   0.314E-02    0.275E-02
RMM:   7    -0.413193755628E+03   -0.20270E-04   -0.18602E-04  5397   0.149E-02    0.168E-02
RMM:   8    -0.413193744762E+03    0.10866E-04   -0.31045E-05  4677   0.651E-03    0.816E-03
RMM:   9    -0.413193744791E+03   -0.29151E-07   -0.64713E-06  3120   0.324E-03
   34 T=    66. E= -.41286714E+03 F= -.41319374E+03 E0= -.41317239E+03  EK= 0.32660E+00 SP= 0.00E+00 SK= 0.00E+00
       N       E                     dE             d eps       ncg     rms          rms(c)
RMM:   1    -0.413206097537E+03   -0.12353E-01   -0.70911E+00  4306   0.706E-01    0.953E-01
RMM:   2    -0.413203339293E+03    0.27582E-02   -0.95435E-02  4296   0.115E-01    0.691E-01
RMM:   3    -0.413200697070E+03    0.26422E-02   -0.45665E-02  4952   0.105E-01    0.300E-01
RMM:   4    -0.413224307243E+03   -0.23610E-01   -0.36538E-02  5069   0.164E-01    0.694E-01
RMM:   5    -0.413196291482E+03    0.28016E-01   -0.12678E-02  4729   0.115E-01    0.494E-02
RMM:   6    -0.413196448305E+03   -0.15682E-03   -0.24018E-03  5770   0.458E-02    0.345E-02
RMM:   7    -0.413196454027E+03   -0.57216E-05   -0.36932E-04  5542   0.189E-02    0.231E-02
RMM:   8    -0.413196450034E+03    0.39932E-05   -0.69256E-05  5079   0.962E-03    0.111E-02
RMM:   9    -0.413196443199E+03    0.68351E-05   -0.11761E-05  3702   0.435E-03    0.609E-03
RMM:  10    -0.413196438413E+03    0.47853E-05   -0.24454E-06  2631   0.253E-03    0.357E-03
RMM:  11    -0.413196434372E+03    0.40409E-05   -0.10698E-06  2496   0.171E-03    0.195E-03
RMM:  12    -0.413196426482E+03    0.78908E-05   -0.13471E-06  2500   0.184E-03    0.100E-03
RMM:  13    -0.413196422030E+03    0.44518E-05   -0.53230E-07  2330   0.125E-03    0.724E-04
RMM:  14    -0.413196420552E+03    0.14777E-05   -0.23687E-07  1869   0.850E-04    0.462E-04
RMM:  15    -0.413196415561E+03    0.49907E-05   -0.16311E-07  1617   0.751E-04    0.248E-04
RMM:  16    -0.413196407563E+03    0.79981E-05   -0.16897E-07  1705   0.741E-04    0.480E-04
RMM:  17    -0.413196403759E+03    0.38045E-05   -0.72276E-08  1037   0.580E-04    0.401E-04
RMM:  18    -0.413196397734E+03    0.60252E-05   -0.71397E-08  1044   0.592E-04    0.172E-04
RMM:  19    -0.413196396076E+03    0.16572E-05   -0.48565E-08  1057   0.586E-04    0.994E-05
RMM:  20    -0.413196395091E+03    0.98509E-06   -0.24143E-08   827   0.548E-04
   35 T=    67. E= -.41286730E+03 F= -.41319640E+03 E0= -.41317509E+03  EK= 0.32910E+00 SP= 0.00E+00 SK= 0.00E+00
       N       E                     dE             d eps       ncg     rms          rms(c)
RMM:   1    -0.413208790850E+03   -0.12395E-01   -0.70914E+00  4304   0.733E-01    0.951E-01
RMM:   2    -0.413205300074E+03    0.34908E-02   -0.96251E-02  4253   0.120E-01    0.688E-01
RMM:   3    -0.413199306961E+03    0.59931E-02   -0.43415E-02  4358   0.869E-02    0.169E-01
RMM:   4    -0.413199495713E+03   -0.18875E-03   -0.19724E-03  5027   0.393E-02    0.140E-01
RMM:   5    -0.413198467270E+03    0.10284E-02   -0.57185E-04  4754   0.240E-02    0.390E-02
RMM:   6    -0.413198522203E+03   -0.54933E-04   -0.45138E-04  5335   0.208E-02    0.331E-02
RMM:   7    -0.413198499542E+03    0.22661E-04   -0.17806E-04  4841   0.153E-02    0.197E-02
RMM:   8    -0.413198491950E+03    0.75926E-05   -0.34647E-05  4650   0.580E-03    0.562E-03
RMM:   9    -0.413198490915E+03    0.10345E-05   -0.48215E-06  2573   0.238E-03    0.253E-03
RMM:  10    -0.413198486721E+03    0.41946E-05   -0.99478E-07  2442   0.165E-03    0.121E-03
RMM:  11    -0.413198483232E+03    0.34885E-05   -0.36466E-07  1990   0.982E-04    0.611E-04
RMM:  12    -0.413198479644E+03    0.35884E-05   -0.19905E-07  1500   0.759E-04    0.293E-04
RMM:  13    -0.413198475374E+03    0.42692E-05   -0.12375E-07  1227   0.678E-04    0.162E-04
RMM:  14    -0.413198470610E+03    0.47648E-05   -0.88279E-08  1087   0.634E-04    0.114E-04
RMM:  15    -0.413198464811E+03    0.57990E-05   -0.67618E-08  1037   0.609E-04    0.890E-05
RMM:  16    -0.413198459167E+03    0.56436E-05   -0.59795E-08  1074   0.606E-04    0.663E-05
RMM:  17    -0.413198457692E+03    0.14747E-05   -0.23274E-08   777   0.540E-04    0.487E-05
RMM:  18    -0.413198456247E+03    0.14450E-05   -0.18627E-08   750   0.535E-04    0.258E-05
RMM:  19    -0.413198455651E+03    0.59667E-06   -0.11364E-08   655   0.520E-04
   36 T=    67. E= -.41286693E+03 F= -.41319846E+03 E0= -.41317719E+03  EK= 0.33152E+00 SP= 0.00E+00 SK= 0.00E+00
       N       E                     dE             d eps       ncg     rms          rms(c)
RMM:   1    -0.413211154950E+03   -0.12699E-01   -0.71946E+00  4310   0.745E-01    0.942E-01
RMM:   2    -0.413208805212E+03    0.23497E-02   -0.98119E-02  4253   0.124E-01    0.693E-01
RMM:   3    -0.413202635252E+03    0.61700E-02   -0.46835E-02  4334   0.921E-02    0.203E-01
RMM:   4    -0.413201968736E+03    0.66652E-03   -0.19945E-03  4916   0.333E-02    0.909E-02
RMM:   5    -0.413201606414E+03    0.36232E-03   -0.27741E-04  4723   0.167E-02    0.396E-02
RMM:   6    -0.413201645410E+03   -0.38996E-04   -0.39317E-04  5244   0.190E-02    0.318E-02
RMM:   7    -0.413201642074E+03    0.33363E-05   -0.17077E-04  4776   0.147E-02    0.205E-02
RMM:   8    -0.413201634321E+03    0.77530E-05   -0.31362E-05  4551   0.556E-03    0.601E-03
RMM:   9    -0.413201634942E+03   -0.62156E-06   -0.70984E-06  2474   0.236E-03
   37 T=    68. E= -.41286725E+03 F= -.41320163E+03 E0= -.41318042E+03  EK= 0.33438E+00 SP= 0.00E+00 SK= 0.00E+00
       N       E                     dE             d eps       ncg     rms          rms(c)
RMM:   1    -0.413216357225E+03   -0.14723E-01   -0.72750E+00  4309   0.777E-01    0.959E-01
RMM:   2    -0.413211824953E+03    0.45323E-02   -0.10007E-01  4257   0.118E-01    0.699E-01
RMM:   3    -0.413205196144E+03    0.66288E-02   -0.45337E-02  4364   0.842E-02    0.184E-01
RMM:   4    -0.413204330034E+03    0.86611E-03   -0.13820E-03  4657   0.259E-02    0.454E-02
RMM:   5    -0.413204456129E+03   -0.12609E-03   -0.28839E-04  5002   0.151E-02    0.615E-02
RMM:   6    -0.413204348690E+03    0.10744E-03   -0.31174E-04  5156   0.169E-02    0.353E-02
RMM:   7    -0.413204335239E+03    0.13451E-04   -0.19398E-04  4849   0.153E-02    0.223E-02
RMM:   8    -0.413204323992E+03    0.11247E-04   -0.28699E-05  4458   0.560E-03    0.781E-03
RMM:   9    -0.413204323241E+03    0.75076E-06   -0.11953E-05  2423   0.241E-03    0.348E-03
RMM:  10    -0.413204317460E+03    0.57809E-05   -0.15279E-06  2332   0.152E-03    0.134E-03
RMM:  11    -0.413204313684E+03    0.37765E-05   -0.46246E-07  1576   0.846E-04    0.523E-04
RMM:  12    -0.413204309286E+03    0.43975E-05   -0.17294E-07  1142   0.693E-04    0.380E-04
RMM:  13    -0.413204303198E+03    0.60884E-05   -0.16427E-07  1239   0.697E-04    0.249E-04
RMM:  14    -0.413204295360E+03    0.78382E-05   -0.16129E-07  1167   0.675E-04    0.223E-04
RMM:  15    -0.413204290333E+03    0.50268E-05   -0.60937E-08   854   0.580E-04    0.151E-04
RMM:  16    -0.413204284566E+03    0.57664E-05   -0.65125E-08  1069   0.613E-04    0.783E-05
RMM:  17    -0.413204283745E+03    0.82130E-06   -0.19826E-08   594   0.502E-04
   38 T=    69. E= -.41286715E+03 F= -.41320428E+03 E0= -.41318311E+03  EK= 0.33713E+00 SP= 0.00E+00 SK= 0.00E+00
       N       E                     dE             d eps       ncg     rms          rms(c)
RMM:   1    -0.413220024445E+03   -0.15740E-01   -0.72777E+00  4309   0.828E-01    0.968E-01
RMM:   2    -0.413214468127E+03    0.55563E-02   -0.10092E-01  4250   0.115E-01    0.698E-01
RMM:   3    -0.413208031864E+03    0.64363E-02   -0.43499E-02  4628   0.801E-02    0.172E-01
RMM:   4    -0.413221387325E+03   -0.13355E-01   -0.15165E-02  5132   0.105E-01    0.504E-01
RMM:   5    -0.413206987924E+03    0.14399E-01   -0.71418E-03  4803   0.833E-02    0.435E-02
RMM:   6    -0.413207025352E+03   -0.37428E-04   -0.13190E-03  5741   0.355E-02    0.325E-02
RMM:   7    -0.413207041242E+03   -0.15890E-04   -0.30525E-04  5403   0.177E-02    0.211E-02
RMM:   8    -0.413207027365E+03    0.13877E-04   -0.42686E-05  5032   0.765E-03    0.949E-03
RMM:   9    -0.413207025573E+03    0.17922E-05   -0.80254E-06  3181   0.341E-03    0.525E-03
RMM:  10    -0.413207022084E+03    0.34889E-05   -0.16863E-06  2534   0.216E-03    0.278E-03
RMM:  11    -0.413207018007E+03    0.40771E-05   -0.10871E-06  2492   0.167E-03    0.141E-03
RMM:  12    -0.413207013210E+03    0.47975E-05   -0.71046E-07  2414   0.136E-03    0.830E-04
RMM:  13    -0.413207010545E+03    0.26649E-05   -0.29713E-07  2040   0.943E-04    0.426E-04
RMM:  14    -0.413207008123E+03    0.24219E-05   -0.15089E-07  1396   0.722E-04    0.245E-04
RMM:  15    -0.413207002613E+03    0.55101E-05   -0.11707E-07  1335   0.695E-04    0.155E-04
RMM:  16    -0.413206998282E+03    0.43303E-05   -0.73617E-08  1080   0.633E-04    0.133E-04
RMM:  17    -0.413206994032E+03    0.42508E-05   -0.56179E-08  1034   0.613E-04    0.928E-05
RMM:  18    -0.413206989285E+03    0.47467E-05   -0.54929E-08  1173   0.619E-04    0.426E-05
RMM:  19    -0.413206988227E+03    0.10575E-05   -0.24399E-08   812   0.544E-04    0.212E-05
RMM:  20    -0.413206987615E+03    0.61204E-06   -0.17121E-08   745   0.530E-04
   39 T=    69. E= -.41286706E+03 F= -.41320699E+03 E0= -.41318585E+03  EK= 0.33992E+00 SP= 0.00E+00 SK= 0.00E+00
       N       E                     dE             d eps       ncg     rms          rms(c)
RMM:   1    -0.413222384297E+03   -0.15396E-01   -0.73413E+00  4311   0.843E-01    0.953E-01
RMM:   2    -0.413217936062E+03    0.44482E-02   -0.10276E-01  4254   0.117E-01    0.699E-01
RMM:   3    -0.413211887340E+03    0.60487E-02   -0.46221E-02  4766   0.875E-02    0.217E-01
RMM:   4    -0.413235182940E+03   -0.23296E-01   -0.27110E-02  5114   0.140E-01    0.659E-01
RMM:   5    -0.413210104611E+03    0.25078E-01   -0.12197E-02  4793   0.110E-01    0.468E-02
RMM:   6    -0.413210165149E+03   -0.60539E-04   -0.20893E-03  5799   0.434E-02    0.314E-02
RMM:   7    -0.413210194302E+03   -0.29152E-04   -0.32500E-04  5579   0.175E-02    0.202E-02
RMM:   8    -0.413210183856E+03    0.10446E-04   -0.59404E-05  5071   0.827E-03    0.105E-02
RMM:   9    -0.413210183990E+03   -0.13383E-06   -0.13208E-05  3969   0.436E-03    0.634E-03
RMM:  10    -0.413210182613E+03    0.13765E-05   -0.22824E-06  2623   0.241E-03    0.352E-03
RMM:  11    -0.413210181305E+03    0.13083E-05   -0.10781E-06  2500   0.167E-03    0.198E-03
RMM:  12    -0.413210178093E+03    0.32115E-05   -0.13345E-06  2503   0.177E-03    0.115E-03
RMM:  13    -0.413210175775E+03    0.23182E-05   -0.47976E-07  2305   0.119E-03    0.694E-04
RMM:  14    -0.413210174873E+03    0.90206E-06   -0.21250E-07  1766   0.810E-04
   40 T=    70. E= -.41286734E+03 F= -.41321017E+03 E0= -.41318907E+03  EK= 0.34283E+00 SP= 0.00E+00 SK= 0.00E+00
       N       E                     dE             d eps       ncg     rms          rms(c)
RMM:   1    -0.413224143772E+03   -0.13968E-01   -0.74354E+00  4315   0.870E-01    0.965E-01
RMM:   2    -0.413220424070E+03    0.37197E-02   -0.10722E-01  4274   0.120E-01    0.709E-01
RMM:   3    -0.413214426088E+03    0.59980E-02   -0.46467E-02  4838   0.871E-02    0.225E-01
RMM:   4    -0.413242149977E+03   -0.27724E-01   -0.32795E-02  5120   0.154E-01    0.716E-01
RMM:   5    -0.413212356082E+03    0.29794E-01   -0.14353E-02  4792   0.119E-01    0.492E-02
RMM:   6    -0.413212430368E+03   -0.74286E-04   -0.24321E-03  5803   0.466E-02    0.318E-02
RMM:   7    -0.413212459763E+03   -0.29395E-04   -0.33954E-04  5665   0.177E-02    0.201E-02
RMM:   8    -0.413212452479E+03    0.72838E-05   -0.66817E-05  5097   0.857E-03    0.110E-02
RMM:   9    -0.413212452170E+03    0.30920E-06   -0.16142E-05  4236   0.474E-03    0.643E-03
RMM:  10    -0.413212449686E+03    0.24844E-05   -0.26272E-06  2646   0.255E-03    0.365E-03
RMM:  11    -0.413212447833E+03    0.18523E-05   -0.11205E-06  2501   0.172E-03    0.215E-03
RMM:  12    -0.413212442992E+03    0.48418E-05   -0.14782E-06  2524   0.187E-03    0.123E-03
RMM:  13    -0.413212439471E+03    0.35204E-05   -0.56943E-07  2361   0.128E-03    0.816E-04
RMM:  14    -0.413212438423E+03    0.10487E-05   -0.23387E-07  1853   0.848E-04    0.443E-04
RMM:  15    -0.413212434864E+03    0.35584E-05   -0.14606E-07  1437   0.728E-04    0.238E-04
RMM:  16    -0.413212429925E+03    0.49396E-05   -0.13618E-07  1614   0.719E-04    0.397E-04
RMM:  17    -0.413212427726E+03    0.21988E-05   -0.60576E-08  1014   0.583E-04    0.332E-04
RMM:  18    -0.413212422153E+03    0.55732E-05   -0.77664E-08  1283   0.626E-04    0.245E-04
RMM:  19    -0.413212420487E+03    0.16658E-05   -0.31996E-08   848   0.534E-04    0.771E-05
RMM:  20    -0.413212418896E+03    0.15905E-05   -0.28998E-08   915   0.552E-04    0.880E-05
RMM:  21    -0.413212418785E+03    0.11170E-06   -0.12639E-08   695   0.517E-04
   41 T=    70. E= -.41286710E+03 F= -.41321242E+03 E0= -.41319135E+03  EK= 0.34532E+00 SP= 0.00E+00 SK= 0.00E+00
       N       E                     dE             d eps       ncg     rms          rms(c)
RMM:   1    -0.413228927927E+03   -0.16509E-01   -0.74337E+00  4313   0.939E-01    0.981E-01
RMM:   2    -0.413222810007E+03    0.61179E-02   -0.10745E-01  4302   0.125E-01    0.707E-01
RMM:   3    -0.413217831366E+03    0.49786E-02   -0.44055E-02  4954   0.895E-02    0.237E-01
RMM:   4    -0.413249823933E+03   -0.31993E-01   -0.41101E-02  5115   0.172E-01    0.771E-01
RMM:   5    -0.413215002597E+03    0.34821E-01   -0.16146E-02  4772   0.128E-01    0.524E-02
RMM:   6    -0.413215099340E+03   -0.96742E-04   -0.28208E-03  5787   0.498E-02    0.333E-02
RMM:   7    -0.413215124610E+03   -0.25270E-04   -0.32692E-04  5664   0.174E-02    0.188E-02
RMM:   8    -0.413215124857E+03   -0.24780E-06   -0.44658E-05  4794   0.687E-03    0.912E-03
RMM:   9    -0.413215121305E+03    0.35524E-05   -0.14355E-05  4066   0.412E-03    0.606E-03
RMM:  10    -0.413215118987E+03    0.23181E-05   -0.40422E-06  2858   0.271E-03    0.363E-03
RMM:  11    -0.413215115850E+03    0.31366E-05   -0.12420E-06  2489   0.189E-03    0.218E-03
RMM:  12    -0.413215108764E+03    0.70863E-05   -0.11924E-06  2482   0.178E-03    0.974E-04
RMM:  13    -0.413215105009E+03    0.37553E-05   -0.45535E-07  2354   0.120E-03    0.665E-04
RMM:  14    -0.413215104124E+03    0.88421E-06   -0.20691E-07  1831   0.824E-04
   42 T=    71. E= -.41286724E+03 F= -.41321510E+03 E0= -.41319407E+03  EK= 0.34786E+00 SP= 0.00E+00 SK= 0.00E+00
       N       E                     dE             d eps       ncg     rms          rms(c)
RMM:   1    -0.413231010849E+03   -0.15906E-01   -0.74463E+00  4315   0.984E-01    0.963E-01
RMM:   2    -0.413225348960E+03    0.56619E-02   -0.10910E-01  4363   0.125E-01    0.705E-01
RMM:   3    -0.413220447613E+03    0.49013E-02   -0.45504E-02  4968   0.922E-02    0.257E-01
RMM:   4    -0.413252407219E+03   -0.31960E-01   -0.42170E-02  5107   0.174E-01    0.775E-01
RMM:   5    -0.413217248426E+03    0.35159E-01   -0.16276E-02  4775   0.129E-01    0.526E-02
RMM:   6    -0.413217342296E+03   -0.93871E-04   -0.28151E-03  5776   0.497E-02    0.322E-02
RMM:   7    -0.413217368952E+03   -0.26656E-04   -0.33087E-04  5681   0.172E-02    0.182E-02
RMM:   8    -0.413217366659E+03    0.22929E-05   -0.41153E-05  4675   0.664E-03    0.811E-03
RMM:   9    -0.413217364262E+03    0.23977E-05   -0.86377E-06  3189   0.337E-03    0.465E-03
RMM:  10    -0.413217361501E+03    0.27609E-05   -0.19481E-06  2552   0.210E-03    0.298E-03
RMM:  11    -0.413217358203E+03    0.32982E-05   -0.13751E-06  2499   0.186E-03    0.184E-03
RMM:  12    -0.413217351812E+03    0.63902E-05   -0.10856E-06  2501   0.167E-03    0.958E-04
RMM:  13    -0.413217349045E+03    0.27676E-05   -0.38926E-07  2258   0.110E-03    0.602E-04
RMM:  14    -0.413217347673E+03    0.13716E-05   -0.18331E-07  1559   0.767E-04    0.352E-04
RMM:  15    -0.413217341738E+03    0.59352E-05   -0.16549E-07  1691   0.772E-04    0.298E-04
RMM:  16    -0.413217337719E+03    0.40195E-05   -0.86938E-08  1204   0.642E-04    0.211E-04
RMM:  17    -0.413217333480E+03    0.42387E-05   -0.65942E-08  1146   0.619E-04    0.177E-04
RMM:  18    -0.413217328303E+03    0.51768E-05   -0.63469E-08  1266   0.627E-04    0.715E-05
RMM:  19    -0.413217326587E+03    0.17165E-05   -0.31038E-08   947   0.559E-04    0.491E-05
RMM:  20    -0.413217325900E+03    0.68647E-06   -0.16375E-08   777   0.529E-04
   43 T=    71. E= -.41286725E+03 F= -.41321733E+03 E0= -.41319631E+03  EK= 0.35007E+00 SP= 0.00E+00 SK= 0.00E+00
       N       E                     dE             d eps       ncg     rms          rms(c)
RMM:   1    -0.413232336345E+03   -0.15010E-01   -0.75581E+00  4316   0.103E+00    0.967E-01
RMM:   2    -0.413226856418E+03    0.54799E-02   -0.11388E-01  4397   0.133E-01    0.715E-01
RMM:   3    -0.413223115180E+03    0.37412E-02   -0.47439E-02  5014   0.995E-02    0.304E-01
RMM:   4    -0.413253504693E+03   -0.30390E-01   -0.45628E-02  5097   0.182E-01    0.775E-01
RMM:   5    -0.413218455068E+03    0.35050E-01   -0.15695E-02  4745   0.129E-01    0.534E-02
RMM:   6    -0.413218537375E+03   -0.82307E-04   -0.27720E-03  5766   0.492E-02    0.314E-02
RMM:   7    -0.413218562639E+03   -0.25263E-04   -0.33057E-04  5712   0.173E-02    0.189E-02
RMM:   8    -0.413218571168E+03   -0.85297E-05   -0.82399E-05  5148   0.917E-03    0.118E-02
RMM:   9    -0.413218563580E+03    0.75882E-05   -0.19395E-05  4429   0.519E-03    0.579E-03
RMM:  10    -0.413218562673E+03    0.90705E-06   -0.32931E-06  2707   0.272E-03
   44 T=    72. E= -.41286705E+03 F= -.41321856E+03 E0= -.41319757E+03  EK= 0.35152E+00 SP= 0.00E+00 SK= 0.00E+00
       N       E                     dE             d eps       ncg     rms          rms(c)
RMM:   1    -0.413238777786E+03   -0.20214E-01   -0.75491E+00  4313   0.113E+00    0.984E-01
RMM:   2    -0.413227954141E+03    0.10824E-01   -0.11925E-01  4468   0.141E-01    0.716E-01
RMM:   3    -0.413231354845E+03   -0.34007E-02   -0.48520E-02  5093   0.126E-01    0.451E-01
RMM:   4    -0.413241556412E+03   -0.10202E-01   -0.42784E-02  5040   0.181E-01    0.613E-01
RMM:   5    -0.413219854955E+03    0.21701E-01   -0.78956E-03  4617   0.102E-01    0.518E-02
RMM:   6    -0.413219855128E+03   -0.17365E-06   -0.16528E-03  5591   0.390E-02    0.306E-02
RMM:   7    -0.413219864802E+03   -0.96739E-05   -0.27091E-04  5483   0.166E-02    0.210E-02
RMM:   8    -0.413219862871E+03    0.19314E-05   -0.86557E-05  5049   0.101E-02    0.102E-02
RMM:   9    -0.413219853426E+03    0.94448E-05   -0.10092E-05  3713   0.448E-03    0.438E-03
RMM:  10    -0.413219848275E+03    0.51515E-05   -0.21484E-06  2644   0.220E-03    0.244E-03
RMM:  11    -0.413219842764E+03    0.55109E-05   -0.98465E-07  2477   0.159E-03    0.128E-03
RMM:  12    -0.413219834192E+03    0.85716E-05   -0.70959E-07  2393   0.131E-03    0.617E-04
RMM:  13    -0.413219829592E+03    0.46005E-05   -0.29769E-07  1911   0.920E-04    0.345E-04
RMM:  14    -0.413219825408E+03    0.41833E-05   -0.16168E-07  1346   0.725E-04    0.181E-04
RMM:  15    -0.413219814712E+03    0.10696E-04   -0.16691E-07  1478   0.755E-04    0.204E-04
RMM:  16    -0.413219810399E+03    0.43131E-05   -0.94118E-08  1300   0.654E-04    0.115E-04
RMM:  17    -0.413219804574E+03    0.58244E-05   -0.79228E-08  1340   0.639E-04    0.632E-05
RMM:  18    -0.413219800799E+03    0.37759E-05   -0.49114E-08  1118   0.574E-04    0.531E-05
RMM:  19    -0.413219800203E+03    0.59596E-06   -0.24438E-08   813   0.515E-04
   45 T=    72. E= -.41286740E+03 F= -.41321980E+03 E0= -.41319883E+03  EK= 0.35240E+00 SP= 0.00E+00 SK= 0.00E+00
       N       E                     dE             d eps       ncg     rms          rms(c)
RMM:   1    -0.413236915813E+03   -0.17115E-01   -0.74725E+00  4313   0.118E+00    0.968E-01
RMM:   2    -0.413227307130E+03    0.96087E-02   -0.11624E-01  4431   0.148E-01    0.709E-01
RMM:   3    -0.413226685228E+03    0.62190E-03   -0.46171E-02  5044   0.117E-01    0.368E-01
RMM:   4    -0.413247496344E+03   -0.20811E-01   -0.44208E-02  5070   0.182E-01    0.698E-01
RMM:   5    -0.413219167349E+03    0.28329E-01   -0.11531E-02  4699   0.116E-01    0.535E-02
RMM:   6    -0.413219189191E+03   -0.21842E-04   -0.21245E-03  5691   0.440E-02    0.302E-02
RMM:   7    -0.413219217969E+03   -0.28779E-04   -0.28666E-04  5671   0.167E-02    0.193E-02
RMM:   8    -0.413219224418E+03   -0.64489E-05   -0.94658E-05  5124   0.101E-02    0.116E-02
RMM:   9    -0.413219215488E+03    0.89305E-05   -0.14923E-05  4148   0.509E-03    0.476E-03
RMM:  10    -0.413219212473E+03    0.30146E-05   -0.32421E-06  2742   0.254E-03    0.287E-03
RMM:  11    -0.413219209380E+03    0.30931E-05   -0.11336E-06  2493   0.175E-03    0.151E-03
RMM:  12    -0.413219203785E+03    0.55946E-05   -0.79805E-07  2446   0.145E-03    0.758E-04
RMM:  13    -0.413219199616E+03    0.41698E-05   -0.34916E-07  2030   0.100E-03    0.342E-04
RMM:  14    -0.413219196959E+03    0.26565E-05   -0.18167E-07  1477   0.756E-04    0.183E-04
RMM:  15    -0.413219190736E+03    0.62235E-05   -0.14136E-07  1315   0.718E-04    0.159E-04
RMM:  16    -0.413219187439E+03    0.32962E-05   -0.90733E-08  1177   0.657E-04    0.110E-04
RMM:  17    -0.413219183436E+03    0.40034E-05   -0.79038E-08  1303   0.652E-04    0.648E-05
RMM:  18    -0.413219179824E+03    0.36117E-05   -0.56015E-08  1171   0.603E-04    0.390E-05
RMM:  19    -0.413219178133E+03    0.16913E-05   -0.31173E-08   895   0.546E-04    0.291E-05
RMM:  20    -0.413219177734E+03    0.39882E-06   -0.18595E-08   733   0.523E-04
   46 T=    72. E= -.41286722E+03 F= -.41321918E+03 E0= -.41319823E+03  EK= 0.35196E+00 SP= 0.00E+00 SK= 0.00E+00
       N       E                     dE             d eps       ncg     rms          rms(c)
RMM:   1    -0.413236297025E+03   -0.17119E-01   -0.75281E+00  4315   0.130E+00    0.960E-01
RMM:   2    -0.413226130013E+03    0.10167E-01   -0.11817E-01  4479   0.161E-01    0.714E-01
RMM:   3    -0.413228501520E+03   -0.23715E-02   -0.51095E-02  5059   0.133E-01    0.445E-01
RMM:   4    -0.413241601133E+03   -0.13100E-01   -0.43864E-02  5041   0.184E-01    0.648E-01
RMM:   5    -0.413217539776E+03    0.24061E-01   -0.95128E-03  4652   0.110E-01    0.525E-02
RMM:   6    -0.413217528595E+03    0.11181E-04   -0.17258E-03  5573   0.402E-02    0.278E-02
RMM:   7    -0.413217552325E+03   -0.23730E-04   -0.24803E-04  5642   0.157E-02    0.183E-02
RMM:   8    -0.413217558948E+03   -0.66230E-05   -0.93958E-05  5108   0.102E-02    0.104E-02
RMM:   9    -0.413217551772E+03    0.71758E-05   -0.12173E-05  3935   0.485E-03    0.426E-03
RMM:  10    -0.413217550011E+03    0.17614E-05   -0.27974E-06  2699   0.239E-03    0.255E-03
RMM:  11    -0.413217547724E+03    0.22867E-05   -0.12095E-06  2499   0.172E-03    0.126E-03
RMM:  12    -0.413217544097E+03    0.36277E-05   -0.75362E-07  2384   0.135E-03    0.652E-04
RMM:  13    -0.413217541114E+03    0.29824E-05   -0.34370E-07  1854   0.948E-04    0.285E-04
RMM:  14    -0.413217538324E+03    0.27899E-05   -0.20014E-07  1417   0.761E-04    0.154E-04
RMM:  15    -0.413217533744E+03    0.45800E-05   -0.17104E-07  1388   0.738E-04    0.119E-04
RMM:  16    -0.413217530684E+03    0.30603E-05   -0.11277E-07  1251   0.668E-04    0.847E-05
RMM:  17    -0.413217525510E+03    0.51741E-05   -0.11302E-07  1487   0.683E-04    0.584E-05
RMM:  18    -0.413217523580E+03    0.19296E-05   -0.53209E-08   983   0.561E-04    0.319E-05
RMM:  19    -0.413217522655E+03    0.92471E-06   -0.31880E-08   841   0.533E-04
   47 T=    71. E= -.41286717E+03 F= -.41321752E+03 E0= -.41319659E+03  EK= 0.35035E+00 SP= 0.00E+00 SK= 0.00E+00
       N       E                     dE             d eps       ncg     rms          rms(c)
RMM:   1    -0.413235502365E+03   -0.17979E-01   -0.74217E+00  4310   0.134E+00    0.972E-01
RMM:   2    -0.413222835263E+03    0.12667E-01   -0.12026E-01  4534   0.169E-01    0.712E-01
RMM:   3    -0.413230079352E+03   -0.72441E-02   -0.49815E-02  5090   0.144E-01    0.518E-01
RMM:   4    -0.413232879740E+03   -0.28004E-02   -0.42502E-02  5008   0.184E-01    0.561E-01
RMM:   5    -0.413214731113E+03    0.18149E-01   -0.64169E-03  4598   0.972E-02    0.525E-02
RMM:   6    -0.413214684407E+03    0.46705E-04   -0.11838E-03  5299   0.347E-02    0.274E-02
RMM:   7    -0.413214703583E+03   -0.19175E-04   -0.18622E-04  5572   0.140E-02    0.164E-02
RMM:   8    -0.413214708139E+03   -0.45568E-05   -0.91869E-05  5190   0.996E-03    0.106E-02
RMM:   9    -0.413214697072E+03    0.11067E-04   -0.12415E-05  3979   0.489E-03    0.408E-03
RMM:  10    -0.413214694041E+03    0.30313E-05   -0.28201E-06  2702   0.241E-03    0.235E-03
RMM:  11    -0.413214689603E+03    0.44375E-05   -0.12229E-06  2486   0.180E-03    0.120E-03
RMM:  12    -0.413214685062E+03    0.45413E-05   -0.58504E-07  2337   0.129E-03    0.674E-04
RMM:  13    -0.413214681007E+03    0.40545E-05   -0.27341E-07  1770   0.903E-04    0.309E-04
RMM:  14    -0.413214676478E+03    0.45296E-05   -0.16072E-07  1413   0.738E-04    0.161E-04
RMM:  15    -0.413214671710E+03    0.47682E-05   -0.11338E-07  1271   0.684E-04    0.117E-04
RMM:  16    -0.413214667976E+03    0.37339E-05   -0.78979E-08  1180   0.638E-04    0.852E-05
RMM:  17    -0.413214661110E+03    0.68660E-05   -0.88119E-08  1448   0.664E-04    0.716E-05
RMM:  18    -0.413214659931E+03    0.11789E-05   -0.30907E-08   814   0.526E-04    0.498E-05
RMM:  19    -0.413214658176E+03    0.17544E-05   -0.25212E-08   827   0.529E-04    0.211E-05
RMM:  20    -0.413214657571E+03    0.60532E-06   -0.13546E-08   670   0.503E-04
   48 T=    71. E= -.41286737E+03 F= -.41321466E+03 E0= -.41319373E+03  EK= 0.34729E+00 SP= 0.00E+00 SK= 0.00E+00
       N       E                     dE             d eps       ncg     rms          rms(c)
RMM:   1    -0.413230833266E+03   -0.16175E-01   -0.72538E+00  4309   0.144E+00    0.958E-01
RMM:   2    -0.413217168475E+03    0.13665E-01   -0.11892E-01  4588   0.177E-01    0.701E-01
RMM:   3    -0.413231761590E+03   -0.14593E-01   -0.53164E-02  5112   0.163E-01    0.625E-01
RMM:   4    -0.413221624167E+03    0.10137E-01   -0.41802E-02  4973   0.186E-01    0.466E-01
RMM:   5    -0.413209229050E+03    0.12395E-01   -0.44739E-03  4564   0.875E-02    0.526E-02
RMM:   6    -0.413209138378E+03    0.90672E-04   -0.64765E-04  4861   0.288E-02    0.270E-02
RMM:   7    -0.413209157245E+03   -0.18867E-04   -0.15441E-04  5729   0.133E-02    0.124E-02
RMM:   8    -0.413209153968E+03    0.32769E-05   -0.42275E-05  5221   0.759E-03    0.838E-03
RMM:   9    -0.413209150879E+03    0.30888E-05   -0.11635E-05  3975   0.406E-03    0.376E-03
RMM:  10    -0.413209147368E+03    0.35111E-05   -0.17793E-06  2544   0.224E-03    0.237E-03
RMM:  11    -0.413209142014E+03    0.53541E-05   -0.11286E-06  2471   0.179E-03    0.141E-03
RMM:  12    -0.413209138532E+03    0.34814E-05   -0.45271E-07  2392   0.119E-03    0.778E-04
RMM:  13    -0.413209133914E+03    0.46186E-05   -0.26626E-07  1922   0.897E-04    0.407E-04
RMM:  14    -0.413209127741E+03    0.61723E-05   -0.19130E-07  1662   0.772E-04    0.416E-04
RMM:  15    -0.413209123380E+03    0.43618E-05   -0.91937E-08  1045   0.605E-04    0.174E-04
RMM:  16    -0.413209119780E+03    0.35996E-05   -0.68439E-08  1066   0.603E-04    0.102E-04
RMM:  17    -0.413209115682E+03    0.40981E-05   -0.57349E-08  1102   0.595E-04    0.117E-04
RMM:  18    -0.413209114125E+03    0.15572E-05   -0.31105E-08   843   0.536E-04    0.800E-05
RMM:  19    -0.413209110071E+03    0.40533E-05   -0.40526E-08  1067   0.574E-04    0.410E-05
RMM:  20    -0.413209108717E+03    0.13541E-05   -0.18503E-08   723   0.508E-04    0.278E-05
RMM:  21    -0.413209108514E+03    0.20317E-06   -0.98420E-09   600   0.483E-04
   49 T=    70. E= -.41286707E+03 F= -.41320911E+03 E0= -.41318818E+03  EK= 0.34204E+00 SP= 0.00E+00 SK= 0.00E+00
       N       E                     dE             d eps       ncg     rms          rms(c)
RMM:   1    -0.413231815647E+03   -0.22707E-01   -0.72342E+00  4309   0.163E+00    0.931E-01
RMM:   2    -0.413210599543E+03    0.21216E-01   -0.12425E-01  4676   0.189E-01    0.698E-01
RMM:   3    -0.413233527259E+03   -0.22928E-01   -0.59386E-02  5120   0.185E-01    0.730E-01
RMM:   4    -0.413212456020E+03    0.21071E-01   -0.45132E-02  4941   0.196E-01    0.424E-01
RMM:   5    -0.413202497783E+03    0.99582E-02   -0.45468E-03  4612   0.898E-02    0.555E-02
RMM:   6    -0.413202366216E+03    0.13157E-03   -0.49163E-04  4723   0.282E-02    0.272E-02
RMM:   7    -0.413202404158E+03   -0.37942E-04   -0.23839E-04  5683   0.170E-02    0.197E-02
RMM:   8    -0.413202386044E+03    0.18115E-04   -0.62368E-05  5008   0.917E-03    0.909E-03
RMM:   9    -0.413202384640E+03    0.14035E-05   -0.15422E-05  4505   0.510E-03    0.416E-03
RMM:  10    -0.413202381963E+03    0.26769E-05   -0.21094E-06  2637   0.234E-03    0.250E-03
RMM:  11    -0.413202377816E+03    0.41476E-05   -0.10697E-06  2491   0.174E-03    0.168E-03
RMM:  12    -0.413202374732E+03    0.30834E-05   -0.41660E-07  2243   0.109E-03    0.846E-04
RMM:  13    -0.413202370962E+03    0.37698E-05   -0.35143E-07  2158   0.949E-04    0.392E-04
RMM:  14    -0.413202367375E+03    0.35875E-05   -0.19850E-07  1531   0.750E-04    0.290E-04
RMM:  15    -0.413202362449E+03    0.49253E-05   -0.15114E-07  1240   0.689E-04    0.135E-04
RMM:  16    -0.413202359544E+03    0.29054E-05   -0.91432E-08  1153   0.627E-04    0.802E-05
RMM:  17    -0.413202354527E+03    0.50175E-05   -0.10225E-07  1390   0.655E-04    0.885E-05
RMM:  18    -0.413202352730E+03    0.17963E-05   -0.47720E-08   981   0.546E-04    0.677E-05
RMM:  19    -0.413202351005E+03    0.17258E-05   -0.33441E-08   902   0.527E-04    0.322E-05
RMM:  20    -0.413202349922E+03    0.10829E-05   -0.22014E-08   789   0.507E-04    0.196E-05
RMM:  21    -0.413202349712E+03    0.20959E-06   -0.11984E-08   676   0.488E-04
   50 T=    68. E= -.41286744E+03 F= -.41320235E+03 E0= -.41318143E+03  EK= 0.33491E+00 SP= 0.00E+00 SK= 0.00E+00
       N       E                     dE             d eps       ncg     rms          rms(c)
RMM:   1    -0.413221208257E+03   -0.18858E-01   -0.70072E+00  4306   0.169E+00    0.925E-01
RMM:   2    -0.413200542648E+03    0.20666E-01   -0.12948E-01  4757   0.202E-01    0.692E-01
RMM:   3    -0.413231261440E+03   -0.30719E-01   -0.60514E-02  5141   0.198E-01    0.814E-01
RMM:   4    -0.413200046322E+03    0.31215E-01   -0.47074E-02  4922   0.203E-01    0.363E-01
RMM:   5    -0.413192691353E+03    0.73550E-02   -0.43589E-03  4826   0.902E-02    0.632E-02
RMM:   6    -0.413192494740E+03    0.19661E-03   -0.45111E-04  4614   0.292E-02    0.294E-02
RMM:   7    -0.413192526483E+03   -0.31743E-04   -0.26881E-04  5629   0.183E-02    0.233E-02
RMM:   8    -0.413192504463E+03    0.22020E-04   -0.71929E-05  4987   0.103E-02    0.107E-02
RMM:   9    -0.413192500764E+03    0.36989E-05   -0.22269E-05  5016   0.580E-03    0.441E-03
RMM:  10    -0.413192497284E+03    0.34806E-05   -0.32625E-06  2794   0.261E-03    0.276E-03
RMM:  11    -0.413192492201E+03    0.50822E-05   -0.11095E-06  2490   0.185E-03    0.179E-03
RMM:  12    -0.413192488414E+03    0.37876E-05   -0.43571E-07  2325   0.115E-03    0.855E-04
RMM:  13    -0.413192484551E+03    0.38625E-05   -0.34486E-07  2114   0.959E-04    0.417E-04
RMM:  14    -0.413192479949E+03    0.46026E-05   -0.23464E-07  1776   0.813E-04    0.346E-04
RMM:  15    -0.413192474666E+03    0.52827E-05   -0.14479E-07  1251   0.693E-04    0.159E-04
[...]
RMM:   6    -0.413159766871E+03   -0.18900E-04   -0.30841E-03  5674   0.532E-02    0.161E-02
RMM:   7    -0.413159803502E+03   -0.36632E-04   -0.38548E-04  6040   0.161E-02    0.126E-02
RMM:   8    -0.413159807257E+03   -0.37542E-05   -0.47251E-05  4529   0.584E-03    0.826E-03
RMM:   9    -0.413159807906E+03   -0.64900E-06   -0.68354E-06  2959   0.322E-03
  135 T=    60. E= -.41286754E+03 F= -.41315981E+03 E0= -.41313905E+03  EK= 0.29227E+00 SP= 0.00E+00 SK= 0.00E+00
       N       E                     dE             d eps       ncg     rms          rms(c)
RMM:   1    -0.413151384326E+03    0.84229E-02   -0.10719E+01  4276   0.823E-01    0.866E-01
RMM:   2    -0.413161909442E+03   -0.10525E-01   -0.12922E-01  4298   0.101E-01    0.621E-01
RMM:   3    -0.413161962897E+03   -0.53456E-04   -0.72570E-03  5096   0.529E-02    0.217E-01
RMM:   4    -0.413201964966E+03   -0.40002E-01   -0.47649E-02  5133   0.182E-01    0.840E-01
RMM:   5    -0.413160476654E+03    0.41488E-01   -0.19598E-02  4793   0.141E-01    0.568E-02
RMM:   6    -0.413160470704E+03    0.59505E-05   -0.31235E-03  5665   0.541E-02    0.138E-02
RMM:   7    -0.413160515377E+03   -0.44673E-04   -0.40585E-04  6080   0.167E-02    0.119E-02
RMM:   8    -0.413160523374E+03   -0.79969E-05   -0.48473E-05  4630   0.595E-03    0.777E-03
RMM:   9    -0.413160531483E+03   -0.81090E-05   -0.76196E-06  3068   0.345E-03    0.369E-03
RMM:  10    -0.413160537284E+03   -0.58004E-05   -0.22243E-06  2571   0.214E-03    0.198E-03
RMM:  11    -0.413160544029E+03   -0.67454E-05   -0.11033E-06  2529   0.154E-03    0.101E-03
RMM:  12    -0.413160547796E+03   -0.37671E-05   -0.56507E-07  2109   0.108E-03    0.472E-04
RMM:  13    -0.413160550475E+03   -0.26786E-05   -0.34945E-07  1835   0.903E-04    0.245E-04
RMM:  14    -0.413160552440E+03   -0.19651E-05   -0.24545E-07  1442   0.783E-04    0.153E-04
RMM:  15    -0.413160554869E+03   -0.24289E-05   -0.30636E-07  1611   0.800E-04    0.116E-04
RMM:  16    -0.413160555248E+03   -0.37948E-06   -0.12190E-07  1191   0.650E-04
  136 T=    60. E= -.41286781E+03 F= -.41316056E+03 E0= -.41313981E+03  EK= 0.29275E+00 SP= 0.00E+00 SK= 0.00E+00
       N       E                     dE             d eps       ncg     rms          rms(c)
RMM:   1    -0.413151656642E+03    0.88982E-02   -0.10772E+01  4267   0.829E-01    0.878E-01
RMM:   2    -0.413161842841E+03   -0.10186E-01   -0.12938E-01  4289   0.102E-01    0.626E-01
RMM:   3    -0.413161179974E+03    0.66287E-03   -0.67427E-03  5019   0.445E-02    0.177E-01
RMM:   4    -0.413201071523E+03   -0.39892E-01   -0.43045E-02  5147   0.172E-01    0.830E-01
RMM:   5    -0.413160401642E+03    0.40670E-01   -0.19812E-02  4801   0.140E-01    0.510E-02
RMM:   6    -0.413160455924E+03   -0.54281E-04   -0.32558E-03  5709   0.537E-02    0.149E-02
RMM:   7    -0.413160493697E+03   -0.37774E-04   -0.38926E-04  5961   0.159E-02    0.124E-02
RMM:   8    -0.413160499723E+03   -0.60261E-05   -0.45393E-05  4501   0.583E-03    0.778E-03
RMM:   9    -0.413160503790E+03   -0.40665E-05   -0.66883E-06  2982   0.301E-03    0.384E-03
RMM:  10    -0.413160508602E+03   -0.48125E-05   -0.22400E-06  2569   0.202E-03    0.213E-03
RMM:  11    -0.413160512983E+03   -0.43808E-05   -0.10058E-06  2482   0.150E-03    0.946E-04
RMM:  12    -0.413160516158E+03   -0.31749E-05   -0.58605E-07  2304   0.115E-03    0.307E-04
RMM:  13    -0.413160517468E+03   -0.13103E-05   -0.29450E-07  1785   0.879E-04    0.235E-04
RMM:  14    -0.413160519436E+03   -0.19674E-05   -0.25186E-07  1423   0.797E-04    0.127E-04
RMM:  15    -0.413160520446E+03   -0.10105E-05   -0.16724E-07  1331   0.723E-04    0.662E-05
RMM:  16    -0.413160520845E+03   -0.39861E-06   -0.12706E-07  1301   0.683E-04
  137 T=    60. E= -.41286755E+03 F= -.41316052E+03 E0= -.41313979E+03  EK= 0.29297E+00 SP= 0.00E+00 SK= 0.00E+00
       N       E                     dE             d eps       ncg     rms          rms(c)
RMM:   1    -0.413152534068E+03    0.79864E-02   -0.10757E+01  4267   0.831E-01    0.893E-01
RMM:   2    -0.413161816844E+03   -0.92828E-02   -0.12711E-01  4292   0.996E-02    0.618E-01
RMM:   3    -0.413161353411E+03    0.46343E-03   -0.69758E-03  4988   0.427E-02    0.174E-01
RMM:   4    -0.413197386066E+03   -0.36033E-01   -0.38114E-02  5144   0.162E-01    0.789E-01
RMM:   5    -0.413160836997E+03    0.36549E-01   -0.17940E-02  4801   0.132E-01    0.498E-02
RMM:   6    -0.413160880743E+03   -0.43747E-04   -0.29466E-03  5714   0.511E-02    0.175E-02
RMM:   7    -0.413160910540E+03   -0.29797E-04   -0.35373E-04  5926   0.153E-02    0.128E-02
RMM:   8    -0.413160912959E+03   -0.24191E-05   -0.42314E-05  4547   0.581E-03    0.766E-03
RMM:   9    -0.413160912371E+03    0.58835E-06   -0.66203E-06  2992   0.298E-03
  138 T=    60. E= -.41286761E+03 F= -.41316091E+03 E0= -.41314019E+03  EK= 0.29330E+00 SP= 0.00E+00 SK= 0.00E+00
       N       E                     dE             d eps       ncg     rms          rms(c)
RMM:   1    -0.413152645281E+03    0.82677E-02   -0.10663E+01  4276   0.830E-01    0.869E-01
RMM:   2    -0.413162897278E+03   -0.10252E-01   -0.12769E-01  4296   0.101E-01    0.619E-01
RMM:   3    -0.413163412997E+03   -0.51572E-03   -0.77489E-03  5116   0.557E-02    0.234E-01
RMM:   4    -0.413199542510E+03   -0.36130E-01   -0.45739E-02  5121   0.178E-01    0.806E-01
RMM:   5    -0.413161473829E+03    0.38069E-01   -0.17687E-02  4780   0.136E-01    0.603E-02
RMM:   6    -0.413161413961E+03    0.59868E-04   -0.28519E-03  5576   0.521E-02    0.161E-02
RMM:   7    -0.413161452615E+03   -0.38654E-04   -0.39593E-04  6088   0.169E-02    0.125E-02
RMM:   8    -0.413161458412E+03   -0.57965E-05   -0.50070E-05  4971   0.638E-03    0.782E-03
RMM:   9    -0.413161463221E+03   -0.48095E-05   -0.97155E-06  3472   0.385E-03    0.380E-03
RMM:  10    -0.413161466400E+03   -0.31783E-05   -0.20144E-06  2567   0.208E-03    0.217E-03
RMM:  11    -0.413161470721E+03   -0.43212E-05   -0.12042E-06  2534   0.164E-03    0.123E-03
RMM:  12    -0.413161473186E+03   -0.24651E-05   -0.58386E-07  2336   0.116E-03    0.517E-04
RMM:  13    -0.413161474921E+03   -0.17355E-05   -0.34469E-07  1618   0.858E-04    0.252E-04
RMM:  14    -0.413161475878E+03   -0.95677E-06   -0.22145E-07  1374   0.751E-04
  139 T=    60. E= -.41286776E+03 F= -.41316148E+03 E0= -.41314076E+03  EK= 0.29372E+00 SP= 0.00E+00 SK= 0.00E+00
       N       E                     dE             d eps       ncg     rms          rms(c)
RMM:   1    -0.413152573162E+03    0.89018E-02   -0.10709E+01  4266   0.838E-01    0.874E-01
RMM:   2    -0.413162698334E+03   -0.10125E-01   -0.12954E-01  4290   0.100E-01    0.628E-01
RMM:   3    -0.413161428793E+03    0.12695E-02   -0.64936E-03  4877   0.373E-02    0.146E-01
RMM:   4    -0.413179360670E+03   -0.17932E-01   -0.18523E-02  5155   0.114E-01    0.561E-01
RMM:   5    -0.413161252506E+03    0.18108E-01   -0.91171E-03  4822   0.933E-02    0.368E-02
RMM:   6    -0.413161255800E+03   -0.32937E-05   -0.14960E-03  5695   0.369E-02    0.150E-02
RMM:   7    -0.413161276584E+03   -0.20784E-04   -0.18326E-04  5593   0.113E-02    0.101E-02
RMM:   8    -0.413161283748E+03   -0.71643E-05   -0.25622E-05  4303   0.504E-03    0.562E-03
RMM:   9    -0.413161287978E+03   -0.42296E-05   -0.41048E-06  2786   0.258E-03    0.264E-03
RMM:  10    -0.413161292675E+03   -0.46967E-05   -0.15257E-06  2532   0.175E-03    0.167E-03
RMM:  11    -0.413161296991E+03   -0.43167E-05   -0.83689E-07  2442   0.135E-03    0.820E-04
RMM:  12    -0.413161299871E+03   -0.28799E-05   -0.47953E-07  2052   0.102E-03    0.278E-04
RMM:  13    -0.413161301662E+03   -0.17905E-05   -0.28462E-07  1556   0.829E-04    0.178E-04
RMM:  14    -0.413161303246E+03   -0.15846E-05   -0.25337E-07  1429   0.780E-04    0.956E-05
RMM:  15    -0.413161303994E+03   -0.74723E-06   -0.16387E-07  1348   0.706E-04
  140 T=    60. E= -.41286745E+03 F= -.41316130E+03 E0= -.41314060E+03  EK= 0.29386E+00 SP= 0.00E+00 SK= 0.00E+00
       N       E                     dE             d eps       ncg     rms          rms(c)
RMM:   1    -0.413153755916E+03    0.75473E-02   -0.10697E+01  4265   0.839E-01    0.894E-01
RMM:   2    -0.413162856529E+03   -0.91006E-02   -0.12632E-01  4290   0.101E-01    0.620E-01
RMM:   3    -0.413161944288E+03    0.91224E-03   -0.68348E-03  4871   0.358E-02    0.150E-01
RMM:   4    -0.413176569148E+03   -0.14625E-01   -0.15125E-02  5162   0.103E-01    0.507E-01
RMM:   5    -0.413161856495E+03    0.14713E-01   -0.74667E-03  4822   0.844E-02    0.372E-02
RMM:   6    -0.413161848160E+03    0.83347E-05   -0.12459E-03  5680   0.341E-02    0.178E-02
RMM:   7    -0.413161858622E+03   -0.10462E-04   -0.16278E-04  5564   0.108E-02    0.104E-02
RMM:   8    -0.413161858620E+03    0.24447E-08   -0.25257E-05  4400   0.515E-03    0.543E-03
RMM:   9    -0.413161857581E+03    0.10387E-05   -0.35634E-06  2750   0.247E-03    0.258E-03
RMM:  10    -0.413161857730E+03   -0.14918E-06   -0.14009E-06  2523   0.174E-03
  141 T=    60. E= -.41286764E+03 F= -.41316186E+03 E0= -.41314117E+03  EK= 0.29422E+00 SP= 0.00E+00 SK= 0.00E+00
       N       E                     dE             d eps       ncg     rms          rms(c)
RMM:   1    -0.413153697762E+03    0.81598E-02   -0.10581E+01  4271   0.836E-01    0.872E-01
RMM:   2    -0.413163465718E+03   -0.97680E-02   -0.12639E-01  4289   0.102E-01    0.617E-01
RMM:   3    -0.413162431582E+03    0.10341E-02   -0.67224E-03  4935   0.421E-02    0.159E-01
RMM:   4    -0.413192349746E+03   -0.29918E-01   -0.31102E-02  5149   0.147E-01    0.720E-01
RMM:   5    -0.413162029154E+03    0.30321E-01   -0.15085E-02  4820   0.120E-01    0.458E-02
RMM:   6    -0.413162057876E+03   -0.28722E-04   -0.24513E-03  5722   0.468E-02    0.179E-02
RMM:   7    -0.413162082585E+03   -0.24709E-04   -0.29882E-04  5868   0.142E-02    0.125E-02
RMM:   8    -0.413162085968E+03   -0.33832E-05   -0.39670E-05  4708   0.601E-03    0.698E-03
RMM:   9    -0.413162086665E+03   -0.69751E-06   -0.66908E-06  3017   0.301E-03
  142 T=    60. E= -.41286747E+03 F= -.41316209E+03 E0= -.41314141E+03  EK= 0.29461E+00 SP= 0.00E+00 SK= 0.00E+00
       N       E                     dE             d eps       ncg     rms          rms(c)
RMM:   1    -0.413153783142E+03    0.83028E-02   -0.10616E+01  4267   0.844E-01    0.870E-01
RMM:   2    -0.413163831145E+03   -0.10048E-01   -0.12880E-01  4290   0.101E-01    0.629E-01
RMM:   3    -0.413162920848E+03    0.91030E-03   -0.71386E-03  5063   0.450E-02    0.173E-01
RMM:   4    -0.413203204604E+03   -0.40284E-01   -0.43774E-02  5142   0.174E-01    0.834E-01
RMM:   5    -0.413162148074E+03    0.41057E-01   -0.20043E-02  4807   0.140E-01    0.561E-02
RMM:   6    -0.413162170449E+03   -0.22375E-04   -0.33075E-03  5689   0.544E-02    0.172E-02
RMM:   7    -0.413162212375E+03   -0.41926E-04   -0.41689E-04  6029   0.165E-02    0.130E-02
RMM:   8    -0.413162220058E+03   -0.76833E-05   -0.52978E-05  5056   0.679E-03    0.771E-03
RMM:   9    -0.413162224408E+03   -0.43497E-05   -0.91148E-06  3204   0.341E-03    0.349E-03
RMM:  10    -0.413162228757E+03   -0.43496E-05   -0.24583E-06  2581   0.209E-03    0.213E-03
RMM:  11    -0.413162233657E+03   -0.49002E-05   -0.12081E-06  2529   0.160E-03    0.118E-03
RMM:  12    -0.413162236897E+03   -0.32394E-05   -0.71664E-07  2335   0.122E-03    0.407E-04
RMM:  13    -0.413162238240E+03   -0.13433E-05   -0.35348E-07  1838   0.908E-04    0.255E-04
RMM:  14    -0.413162239531E+03   -0.12910E-05   -0.27466E-07  1462   0.809E-04    0.160E-04
RMM:  15    -0.413162240766E+03   -0.12345E-05   -0.31339E-07  1558   0.807E-04    0.111E-04
RMM:  16    -0.413162240741E+03    0.24746E-07   -0.13543E-07  1228   0.670E-04
  143 T=    60. E= -.41286724E+03 F= -.41316224E+03 E0= -.41314157E+03  EK= 0.29500E+00 SP= 0.00E+00 SK= 0.00E+00
       N       E                     dE             d eps       ncg     rms          rms(c)
RMM:   1    -0.413155149269E+03    0.70915E-02   -0.10613E+01  4264   0.845E-01    0.892E-01
RMM:   2    -0.413164321321E+03   -0.91721E-02   -0.12567E-01  4286   0.102E-01    0.623E-01
RMM:   3    -0.413163104056E+03    0.12173E-02   -0.70419E-03  4620   0.381E-02    0.140E-01
RMM:   4    -0.413165363335E+03   -0.22593E-02   -0.30389E-03  5194   0.473E-02    0.204E-01
RMM:   5    -0.413163064847E+03    0.22985E-02   -0.12236E-03  4835   0.351E-02    0.316E-02
RMM:   6    -0.413163037547E+03    0.27300E-04   -0.28768E-04  5420   0.177E-02    0.186E-02
RMM:   7    -0.413163037496E+03    0.51070E-07   -0.69957E-05  5232   0.797E-03    0.828E-03
RMM:   8    -0.413163035831E+03    0.16650E-05   -0.16078E-05  4237   0.464E-03    0.433E-03
RMM:   9    -0.413163035690E+03    0.14134E-06   -0.11871E-06  2529   0.186E-03
  144 T=    60. E= -.41286749E+03 F= -.41316304E+03 E0= -.41314238E+03  EK= 0.29555E+00 SP= 0.00E+00 SK= 0.00E+00
       N       E                     dE             d eps       ncg     rms          rms(c)
RMM:   1    -0.413155177085E+03    0.78587E-02   -0.10501E+01  4264   0.843E-01    0.878E-01
RMM:   2    -0.413164413230E+03   -0.92361E-02   -0.12504E-01  4287   0.102E-01    0.618E-01
RMM:   3    -0.413163251187E+03    0.11620E-02   -0.70279E-03  4821   0.382E-02    0.143E-01
RMM:   4    -0.413175754353E+03   -0.12503E-01   -0.12920E-02  5162   0.963E-02    0.470E-01
RMM:   5    -0.413163153969E+03    0.12600E-01   -0.63655E-03  4841   0.777E-02    0.385E-02
RMM:   6    -0.413163143545E+03    0.10424E-04   -0.10939E-03  5715   0.313E-02    0.194E-02
RMM:   7    -0.413163149567E+03   -0.60220E-05   -0.14982E-04  5573   0.107E-02    0.101E-02
RMM:   8    -0.413163150299E+03   -0.73213E-06   -0.28865E-05  4723   0.564E-03    0.570E-03
RMM:   9    -0.413163149361E+03    0.93822E-06   -0.36823E-06  2786   0.256E-03
  145 T=    60. E= -.41286730E+03 F= -.41316315E+03 E0= -.41314250E+03  EK= 0.29585E+00 SP= 0.00E+00 SK= 0.00E+00
       N       E                     dE             d eps       ncg     rms          rms(c)
RMM:   1    -0.413155759681E+03    0.73906E-02   -0.10493E+01  4273   0.849E-01    0.867E-01
RMM:   2    -0.413165477056E+03   -0.97174E-02   -0.12706E-01  4292   0.101E-01    0.628E-01
RMM:   3    -0.413164303664E+03    0.11734E-02   -0.75401E-03  5027   0.456E-02    0.163E-01
RMM:   4    -0.413202247449E+03   -0.37944E-01   -0.40614E-02  5140   0.167E-01    0.808E-01
RMM:   5    -0.413163619284E+03    0.38628E-01   -0.18967E-02  4820   0.135E-01    0.570E-02
RMM:   6    -0.413163689718E+03   -0.70434E-04   -0.31468E-03  5687   0.533E-02    0.193E-02
RMM:   7    -0.413163723843E+03   -0.34124E-04   -0.40703E-04  6031   0.163E-02    0.136E-02
RMM:   8    -0.413163729626E+03   -0.57834E-05   -0.56399E-05  5257   0.729E-03    0.790E-03
RMM:   9    -0.413163731457E+03   -0.18311E-05   -0.98817E-06  3322   0.352E-03    0.337E-03
RMM:  10    -0.413163734610E+03   -0.31525E-05   -0.27723E-06  2619   0.219E-03    0.213E-03
RMM:  11    -0.413163737689E+03   -0.30793E-05   -0.12668E-06  2519   0.166E-03    0.124E-03
RMM:  12    -0.413163739896E+03   -0.22065E-05   -0.75309E-07  2396   0.127E-03    0.413E-04
RMM:  13    -0.413163740612E+03   -0.71672E-06   -0.35714E-07  1863   0.916E-04
  146 T=    60. E= -.41286741E+03 F= -.41316374E+03 E0= -.41314310E+03  EK= 0.29633E+00 SP= 0.00E+00 SK= 0.00E+00
       N       E                     dE             d eps       ncg     rms          rms(c)
RMM:   1    -0.413157021872E+03    0.67180E-02   -0.10491E+01  4264   0.849E-01    0.887E-01
RMM:   2    -0.413165938029E+03   -0.89162E-02   -0.12505E-01  4287   0.101E-01    0.627E-01
RMM:   3    -0.413164694621E+03    0.12434E-02   -0.75062E-03  4905   0.400E-02    0.142E-01
RMM:   4    -0.413183125858E+03   -0.18431E-01   -0.19030E-02  5152   0.116E-01    0.569E-01
RMM:   5    -0.413164463264E+03    0.18663E-01   -0.94241E-03  4837   0.943E-02    0.442E-02
RMM:   6    -0.413164463157E+03    0.10664E-06   -0.15747E-03  5702   0.374E-02    0.209E-02
RMM:   7    -0.413164473118E+03   -0.99608E-05   -0.20916E-04  5706   0.121E-02    0.110E-02
RMM:   8    -0.413164473540E+03   -0.42228E-06   -0.33249E-05  4803   0.594E-03    0.618E-03
RMM:   9    -0.413164472133E+03    0.14065E-05   -0.53890E-06  3000   0.287E-03    0.285E-03
RMM:  10    -0.413164472186E+03   -0.52729E-07   -0.18869E-06  2548   0.200E-03
  147 T=    60. E= -.41286752E+03 F= -.41316447E+03 E0= -.41314383E+03  EK= 0.29695E+00 SP= 0.00E+00 SK= 0.00E+00
       N       E                     dE             d eps       ncg     rms          rms(c)
RMM:   1    -0.413157342227E+03    0.71299E-02   -0.10406E+01  4273   0.847E-01    0.885E-01
RMM:   2    -0.413165896531E+03   -0.85543E-02   -0.12366E-01  4290   0.101E-01    0.620E-01
RMM:   3    -0.413165266779E+03    0.62975E-03   -0.80602E-03  5028   0.471E-02    0.172E-01
RMM:   4    -0.413202970718E+03   -0.37704E-01   -0.40755E-02  5139   0.168E-01    0.807E-01
RMM:   5    -0.413164536684E+03    0.38434E-01   -0.18925E-02  4813   0.135E-01    0.589E-02
RMM:   6    -0.413164591885E+03   -0.55201E-04   -0.30698E-03  5681   0.533E-02    0.226E-02
RMM:   7    -0.413164617841E+03   -0.25956E-04   -0.41462E-04  6056   0.166E-02    0.147E-02
RMM:   8    -0.413164616826E+03    0.10156E-05   -0.62011E-05  5383   0.786E-03    0.819E-03
RMM:   9    -0.413164612925E+03    0.39013E-05   -0.10649E-05  3455   0.369E-03    0.344E-03
RMM:  10    -0.413164611851E+03    0.10736E-05   -0.28963E-06  2639   0.226E-03    0.225E-03
RMM:  11    -0.413164610206E+03    0.16454E-05   -0.12472E-06  2516   0.173E-03    0.131E-03
RMM:  12    -0.413164608165E+03    0.20402E-05   -0.68938E-07  2445   0.130E-03    0.430E-04
RMM:  13    -0.413164607248E+03    0.91776E-06   -0.32461E-07  1888   0.918E-04
  148 T=    61. E= -.41286720E+03 F= -.41316461E+03 E0= -.41314397E+03  EK= 0.29740E+00 SP= 0.00E+00 SK= 0.00E+00
       N       E                     dE             d eps       ncg     rms          rms(c)
RMM:   1    -0.413157980451E+03    0.66277E-02   -0.10352E+01  4264   0.851E-01    0.867E-01
RMM:   2    -0.413167269822E+03   -0.92894E-02   -0.12517E-01  4290   0.996E-02    0.628E-01
RMM:   3    -0.413165920063E+03    0.13498E-02   -0.78411E-03  5006   0.426E-02    0.150E-01
RMM:   4    -0.413198655141E+03   -0.32735E-01   -0.34629E-02  5148   0.155E-01    0.752E-01
RMM:   5    -0.413165382389E+03    0.33273E-01   -0.16483E-02  4823   0.126E-01    0.542E-02
RMM:   6    -0.413165433048E+03   -0.50659E-04   -0.27208E-03  5679   0.495E-02    0.215E-02
RMM:   7    -0.413165459363E+03   -0.26315E-04   -0.35412E-04  5964   0.152E-02    0.133E-02
RMM:   8    -0.413165463072E+03   -0.37094E-05   -0.50105E-05  5237   0.707E-03    0.719E-03
RMM:   9    -0.413165462969E+03    0.10323E-06   -0.94218E-06  3366   0.341E-03
  149 T=    61. E= -.41286741E+03 F= -.41316546E+03 E0= -.41314484E+03  EK= 0.29805E+00 SP= 0.00E+00 SK= 0.00E+00
       N       E                     dE             d eps       ncg     rms          rms(c)
RMM:   1    -0.413158809356E+03    0.66537E-02   -0.10359E+01  4266   0.856E-01    0.882E-01
RMM:   2    -0.413167620141E+03   -0.88108E-02   -0.12452E-01  4298   0.101E-01    0.631E-01
RMM:   3    -0.413167877098E+03   -0.25696E-03   -0.96575E-03  5119   0.582E-02    0.228E-01
RMM:   4    -0.413204611143E+03   -0.36734E-01   -0.46893E-02  5117   0.181E-01    0.811E-01
RMM:   5    -0.413165877076E+03    0.38734E-01   -0.18226E-02  4801   0.137E-01    0.696E-02
RMM:   6    -0.413165812587E+03    0.64489E-04   -0.29822E-03  5520   0.536E-02    0.236E-02
RMM:   7    -0.413165849141E+03   -0.36553E-04   -0.49147E-04  6080   0.189E-02    0.160E-02
RMM:   8    -0.413165849194E+03   -0.52674E-07   -0.75094E-05  5544   0.882E-03    0.849E-03
RMM:   9    -0.413165846907E+03    0.22863E-05   -0.13900E-05  3936   0.426E-03    0.391E-03
RMM:  10    -0.413165847347E+03   -0.43940E-06   -0.23480E-06  2594   0.216E-03
  150 T=    61. E= -.41286728E+03 F= -.41316585E+03 E0= -.41314522E+03  EK= 0.29857E+00 SP= 0.00E+00 SK= 0.00E+00
