       N       E                     dE             d eps       ncg     rms          rms(c)
RMM:   1     0.220150902411E+04    0.22015E+04   -0.52444E+04  2132   0.654E+02
RMM:   2     0.705769520876E+03   -0.14957E+04   -0.16263E+04  2132   0.177E+02
RMM:   3     0.137850015395E+03   -0.56792E+03   -0.65690E+03  2132   0.117E+02
RMM:   4    -0.159553948314E+03   -0.29740E+03   -0.27838E+03  2132   0.936E+01
RMM:   5    -0.287475585295E+03   -0.12792E+03   -0.11431E+03  2132   0.595E+01
RMM:   6    -0.349900531330E+03   -0.62425E+02   -0.55127E+02  2132   0.423E+01
RMM:   7    -0.382743784241E+03   -0.32843E+02   -0.30405E+02  2132   0.293E+01
RMM:   8    -0.404224843748E+03   -0.21481E+02   -0.18433E+02  2132   0.233E+01
RMM:   9    -0.435958492978E+03   -0.31734E+02   -0.30587E+02  6099   0.173E+01
RMM:  10    -0.441260356588E+03   -0.53019E+01   -0.63439E+01  6396   0.540E+00
RMM:  11    -0.442514969272E+03   -0.12546E+01   -0.11505E+01  6219   0.174E+00
RMM:  12    -0.442878478995E+03   -0.36351E+00   -0.26843E+00  6374   0.601E-01    0.134E+02
RMM:  13    -0.425600577589E+03    0.17278E+02   -0.81117E+01  4671   0.119E+01    0.712E+01
RMM:  14    -0.498378995738E+03   -0.72778E+02   -0.53700E+02  5414   0.232E+01    0.305E+01
RMM:  15    -0.411510976712E+03    0.86868E+02   -0.18728E+02  5046   0.160E+01    0.381E+00
RMM:  16    -0.414465479687E+03   -0.29545E+01   -0.38134E+01  6090   0.587E+00    0.464E+00
RMM:  17    -0.413480123490E+03    0.98536E+00   -0.21579E+00  5416   0.162E+00    0.315E+00
RMM:  18    -0.413165147297E+03    0.31498E+00   -0.11834E+00  5705   0.117E+00    0.182E+00
RMM:  19    -0.413169134585E+03   -0.39873E-02   -0.47135E-01  5916   0.690E-01    0.108E+00
RMM:  20    -0.413213828599E+03   -0.44694E-01   -0.40484E-01  5721   0.668E-01    0.102E+00
RMM:  21    -0.413193709841E+03    0.20119E-01   -0.60804E-02  4935   0.321E-01    0.739E-01
RMM:  22    -0.413171452487E+03    0.22257E-01   -0.42182E-02  5481   0.235E-01    0.379E-01
RMM:  23    -0.413165673894E+03    0.57786E-02   -0.29121E-02  6051   0.167E-01    0.136E-01
RMM:  24    -0.413163823084E+03    0.18508E-02   -0.95094E-03  6122   0.942E-02    0.550E-02
RMM:  25    -0.413163405451E+03    0.41763E-03   -0.11217E-03  5659   0.331E-02    0.355E-02
RMM:  26    -0.413163083182E+03    0.32227E-03   -0.56794E-04  5551   0.250E-02    0.242E-02
RMM:  27    -0.413163552542E+03   -0.46936E-03   -0.49292E-04  5284   0.288E-02    0.353E-02
RMM:  28    -0.413163801196E+03   -0.24865E-03   -0.14547E-04  4795   0.145E-02    0.227E-02
RMM:  29    -0.413164309432E+03   -0.50824E-03   -0.35963E-04  5089   0.269E-02    0.107E-02
RMM:  30    -0.413164537172E+03   -0.22774E-03   -0.97940E-05  4784   0.119E-02    0.952E-03
RMM:  31    -0.413164622252E+03   -0.85080E-04   -0.43065E-05  4027   0.665E-03    0.338E-03
RMM:  32    -0.413164662751E+03   -0.40500E-04   -0.19938E-05  3252   0.408E-03    0.120E-03
RMM:  33    -0.413164680450E+03   -0.17699E-04   -0.10135E-05  2813   0.273E-03    0.950E-04
RMM:  34    -0.413164684560E+03   -0.41094E-05   -0.59927E-06  2718   0.210E-03    0.833E-04
RMM:  35    -0.413164684357E+03    0.20302E-06   -0.29550E-06  2497   0.137E-03
    1 T=    61. E= -.41286687E+03 F= -.41316468E+03 E0= -.41314219E+03  EK= 0.29782E+00 SP= 0.00E+00 SK= 0.00E+00
       N       E                     dE             d eps       ncg     rms          rms(c)
RMM:   1    -0.413175707281E+03   -0.11023E-01   -0.58545E+00  3980   0.469E-01    0.917E-01
RMM:   2    -0.413171986749E+03    0.37205E-02   -0.76929E-02  3915   0.706E-02    0.666E-01
RMM:   3    -0.413169268704E+03    0.27180E-02   -0.58943E-02  5120   0.858E-02    0.365E-01
RMM:   4    -0.413182336169E+03   -0.13067E-01   -0.26664E-02  5142   0.140E-01    0.576E-01
RMM:   5    -0.413164276460E+03    0.18060E-01   -0.10017E-02  4702   0.972E-02    0.430E-02
RMM:   6    -0.413164381815E+03   -0.10535E-03   -0.14980E-03  5627   0.375E-02    0.273E-02
RMM:   7    -0.413164403819E+03   -0.22005E-04   -0.25695E-04  5701   0.146E-02    0.185E-02
RMM:   8    -0.413164406445E+03   -0.26259E-05   -0.34446E-05  4707   0.690E-03    0.597E-03
RMM:   9    -0.413164409994E+03   -0.35492E-05   -0.67785E-06  3041   0.290E-03    0.385E-03
RMM:  10    -0.413164415243E+03   -0.52486E-05   -0.14485E-06  2532   0.177E-03    0.242E-03
RMM:  11    -0.413164419477E+03   -0.42342E-05   -0.93369E-07  2398   0.130E-03    0.113E-03
RMM:  12    -0.413164424985E+03   -0.55077E-05   -0.91646E-07  2421   0.123E-03    0.570E-04
RMM:  13    -0.413164427340E+03   -0.23548E-05   -0.45505E-07  1891   0.907E-04    0.353E-04
RMM:  14    -0.413164428150E+03   -0.80985E-06   -0.28047E-07  1376   0.726E-04
    2 T=    61. E= -.41286660E+03 F= -.41316443E+03 E0= -.41314193E+03  EK= 0.29783E+00 SP= 0.00E+00 SK= 0.00E+00
       N       E                     dE             d eps       ncg     rms          rms(c)
RMM:   1    -0.413176799195E+03   -0.12372E-01   -0.57977E+00  4194   0.466E-01    0.934E-01
RMM:   2    -0.413172047342E+03    0.47519E-02   -0.77409E-02  3948   0.684E-02    0.665E-01
RMM:   3    -0.413170190424E+03    0.18569E-02   -0.55368E-02  5147   0.859E-02    0.351E-01
RMM:   4    -0.413182356622E+03   -0.12166E-01   -0.26910E-02  5119   0.142E-01    0.564E-01
RMM:   5    -0.413164834437E+03    0.17522E-01   -0.89162E-03  4691   0.934E-02    0.428E-02
RMM:   6    -0.413164923169E+03   -0.88732E-04   -0.13888E-03  5610   0.364E-02    0.287E-02
RMM:   7    -0.413164932970E+03   -0.98008E-05   -0.24675E-04  5607   0.148E-02    0.196E-02
RMM:   8    -0.413164930326E+03    0.26434E-05   -0.36015E-05  4823   0.698E-03    0.669E-03
RMM:   9    -0.413164929930E+03    0.39687E-06   -0.63731E-06  3025   0.293E-03
    3 T=    61. E= -.41286680E+03 F= -.41316493E+03 E0= -.41314244E+03  EK= 0.29813E+00 SP= 0.00E+00 SK= 0.00E+00
       N       E                     dE             d eps       ncg     rms          rms(c)
RMM:   1    -0.413175994856E+03   -0.11065E-01   -0.57647E+00  4218   0.473E-01    0.919E-01
RMM:   2    -0.413171841858E+03    0.41530E-02   -0.76869E-02  4185   0.692E-02    0.659E-01
RMM:   3    -0.413175254810E+03   -0.34130E-02   -0.58904E-02  5191   0.109E-01    0.466E-01
RMM:   4    -0.413175730950E+03   -0.47614E-03   -0.26074E-02  5058   0.143E-01    0.465E-01
RMM:   5    -0.413164700227E+03    0.11031E-01   -0.64524E-03  4548   0.775E-02    0.415E-02
RMM:   6    -0.413164708523E+03   -0.82959E-05   -0.82082E-04  5344   0.276E-02    0.270E-02
RMM:   7    -0.413164714887E+03   -0.63639E-05   -0.16173E-04  5304   0.126E-02    0.168E-02
RMM:   8    -0.413164715136E+03   -0.24929E-06   -0.25442E-05  4422   0.620E-03    0.482E-03
RMM:   9    -0.413164715868E+03   -0.73168E-06   -0.34869E-06  2688   0.229E-03
    4 T=    61. E= -.41286656E+03 F= -.41316472E+03 E0= -.41314223E+03  EK= 0.29815E+00 SP= 0.00E+00 SK= 0.00E+00
       N       E                     dE             d eps       ncg     rms          rms(c)
RMM:   1    -0.413175972719E+03   -0.11258E-01   -0.58540E+00  4238   0.483E-01    0.915E-01
RMM:   2    -0.413172356716E+03    0.36160E-02   -0.77023E-02  4095   0.699E-02    0.664E-01
RMM:   3    -0.413172667008E+03   -0.31029E-03   -0.60496E-02  5172   0.963E-02    0.428E-01
RMM:   4    -0.413178751623E+03   -0.60846E-02   -0.25844E-02  5085   0.141E-01    0.521E-01
RMM:   5    -0.413164822898E+03    0.13929E-01   -0.83045E-03  4621   0.851E-02    0.413E-02
RMM:   6    -0.413164876644E+03   -0.53746E-04   -0.10798E-03  5492   0.315E-02    0.267E-02
RMM:   7    -0.413164896696E+03   -0.20051E-04   -0.19853E-04  5440   0.140E-02    0.173E-02
RMM:   8    -0.413164903337E+03   -0.66418E-05   -0.28093E-05  4510   0.673E-03    0.520E-03
RMM:   9    -0.413164907062E+03   -0.37243E-05   -0.45881E-06  2825   0.256E-03    0.337E-03
RMM:  10    -0.413164912034E+03   -0.49723E-05   -0.11354E-06  2522   0.163E-03    0.201E-03
RMM:  11    -0.413164915496E+03   -0.34620E-05   -0.71144E-07  2265   0.119E-03    0.929E-04
RMM:  12    -0.413164919939E+03   -0.44430E-05   -0.81652E-07  2349   0.116E-03    0.494E-04
RMM:  13    -0.413164922311E+03   -0.23720E-05   -0.51349E-07  1843   0.909E-04    0.321E-04
RMM:  14    -0.413164922923E+03   -0.61165E-06   -0.27440E-07  1380   0.748E-04
    5 T=    61. E= -.41286670E+03 F= -.41316492E+03 E0= -.41314245E+03  EK= 0.29822E+00 SP= 0.00E+00 SK= 0.00E+00
       N       E                     dE             d eps       ncg     rms          rms(c)
RMM:   1    -0.413177121032E+03   -0.12199E-01   -0.58126E+00  4247   0.481E-01    0.931E-01
RMM:   2    -0.413172632842E+03    0.44882E-02   -0.77111E-02  4111   0.702E-02    0.666E-01
RMM:   3    -0.413171043620E+03    0.15892E-02   -0.56310E-02  5165   0.858E-02    0.367E-01
RMM:   4    -0.413181951348E+03   -0.10908E-01   -0.26596E-02  5089   0.141E-01    0.554E-01
RMM:   5    -0.413165292607E+03    0.16659E-01   -0.87236E-03  4668   0.913E-02    0.423E-02
RMM:   6    -0.413165370081E+03   -0.77474E-04   -0.12931E-03  5574   0.351E-02    0.283E-02
RMM:   7    -0.413165393153E+03   -0.23073E-04   -0.23242E-04  5507   0.151E-02    0.192E-02
RMM:   8    -0.413165389278E+03    0.38756E-05   -0.34636E-05  4739   0.719E-03    0.632E-03
RMM:   9    -0.413165389045E+03    0.23309E-06   -0.64761E-06  2998   0.292E-03
    6 T=    61. E= -.41286700E+03 F= -.41316539E+03 E0= -.41314293E+03  EK= 0.29839E+00 SP= 0.00E+00 SK= 0.00E+00
       N       E                     dE             d eps       ncg     rms          rms(c)
RMM:   1    -0.413176707200E+03   -0.11318E-01   -0.57691E+00  4265   0.486E-01    0.925E-01
RMM:   2    -0.413172243568E+03    0.44636E-02   -0.76847E-02  4197   0.701E-02    0.660E-01
RMM:   3    -0.413174809529E+03   -0.25660E-02   -0.57586E-02  5177   0.104E-01    0.444E-01
RMM:   4    -0.413177014050E+03   -0.22045E-02   -0.26244E-02  5058   0.143E-01    0.477E-01
RMM:   5    -0.413165162475E+03    0.11852E-01   -0.65227E-03  4564   0.785E-02    0.421E-02
RMM:   6    -0.413165183676E+03   -0.21200E-04   -0.90632E-04  5386   0.287E-02    0.274E-02
RMM:   7    -0.413165204009E+03   -0.20333E-04   -0.17008E-04  5376   0.128E-02    0.173E-02
RMM:   8    -0.413165200699E+03    0.33100E-05   -0.27103E-05  4500   0.615E-03    0.508E-03
RMM:   9    -0.413165199808E+03    0.89155E-06   -0.37952E-06  2720   0.234E-03
    7 T=    61. E= -.41286682E+03 F= -.41316520E+03 E0= -.41314275E+03  EK= 0.29838E+00 SP= 0.00E+00 SK= 0.00E+00
       N       E                     dE             d eps       ncg     rms          rms(c)
RMM:   1    -0.413176843903E+03   -0.11643E-01   -0.58350E+00  4265   0.494E-01    0.913E-01
RMM:   2    -0.413173152366E+03    0.36915E-02   -0.76972E-02  4174   0.739E-02    0.662E-01
RMM:   3    -0.413173886272E+03   -0.73391E-03   -0.60212E-02  5124   0.101E-01    0.432E-01
RMM:   4    -0.413179339987E+03   -0.54537E-02   -0.25861E-02  5058   0.141E-01    0.516E-01
RMM:   5    -0.413165661549E+03    0.13678E-01   -0.81205E-03  4603   0.848E-02    0.412E-02
RMM:   6    -0.413165712115E+03   -0.50566E-04   -0.10801E-03  5500   0.310E-02    0.267E-02
RMM:   7    -0.413165727165E+03   -0.15050E-04   -0.19417E-04  5430   0.135E-02    0.172E-02
RMM:   8    -0.413165729098E+03   -0.19329E-05   -0.27581E-05  4485   0.633E-03    0.518E-03
RMM:   9    -0.413165731220E+03   -0.21215E-05   -0.41393E-06  2783   0.249E-03    0.330E-03
RMM:  10    -0.413165734456E+03   -0.32367E-05   -0.10970E-06  2504   0.161E-03    0.199E-03
RMM:  11    -0.413165736581E+03   -0.21243E-05   -0.66802E-07  2257   0.117E-03    0.927E-04
RMM:  12    -0.413165739162E+03   -0.25818E-05   -0.74850E-07  2324   0.114E-03    0.498E-04
RMM:  13    -0.413165740199E+03   -0.10362E-05   -0.44737E-07  1766   0.888E-04    0.323E-04
RMM:  14    -0.413165740072E+03    0.12613E-06   -0.23603E-07  1333   0.731E-04
    8 T=    61. E= -.41286704E+03 F= -.41316574E+03 E0= -.41314331E+03  EK= 0.29870E+00 SP= 0.00E+00 SK= 0.00E+00
       N       E                     dE             d eps       ncg     rms          rms(c)
RMM:   1    -0.413177458024E+03   -0.11718E-01   -0.58344E+00  4284   0.495E-01    0.927E-01
RMM:   2    -0.413173338849E+03    0.41192E-02   -0.77212E-02  4198   0.741E-02    0.667E-01
RMM:   3    -0.413171808870E+03    0.15300E-02   -0.57586E-02  5086   0.913E-02    0.376E-01
RMM:   4    -0.413182369038E+03   -0.10560E-01   -0.26321E-02  5069   0.141E-01    0.554E-01
RMM:   5    -0.413165836778E+03    0.16532E-01   -0.89481E-03  4663   0.912E-02    0.417E-02
RMM:   6    -0.413165919727E+03   -0.82949E-04   -0.13035E-03  5588   0.347E-02    0.282E-02
RMM:   7    -0.413165931642E+03   -0.11915E-04   -0.23054E-04  5518   0.145E-02    0.190E-02
RMM:   8    -0.413165934053E+03   -0.24113E-05   -0.32741E-05  4697   0.700E-03    0.618E-03
RMM:   9    -0.413165934533E+03   -0.48049E-06   -0.58407E-06  2941   0.286E-03
    9 T=    61. E= -.41286691E+03 F= -.41316593E+03 E0= -.41314353E+03  EK= 0.29902E+00 SP= 0.00E+00 SK= 0.00E+00
       N       E                     dE             d eps       ncg     rms          rms(c)
RMM:   1    -0.413177680442E+03   -0.11746E-01   -0.57916E+00  4287   0.498E-01    0.932E-01
RMM:   2    -0.413173167865E+03    0.45126E-02   -0.77525E-02  4272   0.731E-02    0.663E-01
RMM:   3    -0.413175924317E+03   -0.27565E-02   -0.57775E-02  5150   0.108E-01    0.449E-01
RMM:   4    -0.413177598222E+03   -0.16739E-02   -0.26273E-02  5042   0.143E-01    0.472E-01
RMM:   5    -0.413165978526E+03    0.11620E-01   -0.63203E-03  4560   0.779E-02    0.418E-02
RMM:   6    -0.413165997945E+03   -0.19419E-04   -0.87634E-04  5389   0.284E-02    0.277E-02
RMM:   7    -0.413166013984E+03   -0.16039E-04   -0.16899E-04  5323   0.129E-02    0.174E-02
RMM:   8    -0.413166007919E+03    0.60644E-05   -0.26260E-05  4432   0.651E-03    0.507E-03
RMM:   9    -0.413166006496E+03    0.14236E-05   -0.39540E-06  2714   0.239E-03    0.293E-03
RMM:  10    -0.413166004583E+03    0.19127E-05   -0.10760E-06  2498   0.155E-03    0.173E-03
RMM:  11    -0.413166002810E+03    0.17729E-05   -0.62920E-07  2128   0.112E-03    0.798E-04
RMM:  12    -0.413165999731E+03    0.30795E-05   -0.64255E-07  2260   0.108E-03    0.465E-04
RMM:  13    -0.413165996518E+03    0.32131E-05   -0.38039E-07  1649   0.849E-04    0.296E-04
RMM:  14    -0.413165994351E+03    0.21665E-05   -0.21104E-07  1362   0.720E-04    0.182E-04
RMM:  15    -0.413165990220E+03    0.41308E-05   -0.33487E-07  1758   0.802E-04    0.303E-04
RMM:  16    -0.413165986481E+03    0.37394E-05   -0.22924E-07  1318   0.674E-04    0.157E-04
RMM:  17    -0.413165985868E+03    0.61316E-06   -0.73774E-08   875   0.532E-04
   10 T=    61. E= -.41286664E+03 F= -.41316599E+03 E0= -.41314360E+03  EK= 0.29935E+00 SP= 0.00E+00 SK= 0.00E+00
       N       E                     dE             d eps       ncg     rms          rms(c)
RMM:   1    -0.413177940991E+03   -0.11955E-01   -0.58256E+00  4286   0.507E-01    0.914E-01
RMM:   2    -0.413174231300E+03    0.37097E-02   -0.76811E-02  4223   0.703E-02    0.662E-01
RMM:   3    -0.413172338514E+03    0.18928E-02   -0.58192E-02  5097   0.881E-02    0.378E-01
RMM:   4    -0.413183563283E+03   -0.11225E-01   -0.26314E-02  5067   0.140E-01    0.561E-01
RMM:   5    -0.413166686767E+03    0.16877E-01   -0.93218E-03  4669   0.921E-02    0.413E-02
RMM:   6    -0.413166779838E+03   -0.93071E-04   -0.13577E-03  5580   0.351E-02    0.279E-02
RMM:   7    -0.413166781550E+03   -0.17119E-05   -0.23748E-04  5456   0.151E-02    0.190E-02
RMM:   8    -0.413166779524E+03    0.20262E-05   -0.33543E-05  4669   0.717E-03    0.626E-03
RMM:   9    -0.413166780892E+03   -0.13680E-05   -0.65791E-06  3000   0.292E-03    0.382E-03
RMM:  10    -0.413166783526E+03   -0.26345E-05   -0.11543E-06  2504   0.173E-03    0.236E-03
RMM:  11    -0.413166785166E+03   -0.16398E-05   -0.67130E-07  2355   0.124E-03    0.114E-03
RMM:  12    -0.413166786981E+03   -0.18154E-05   -0.70491E-07  2404   0.119E-03    0.608E-04
RMM:  13    -0.413166787210E+03   -0.22866E-06   -0.28221E-07  1781   0.862E-04
   11 T=    61. E= -.41286691E+03 F= -.41316679E+03 E0= -.41314443E+03  EK= 0.29987E+00 SP= 0.00E+00 SK= 0.00E+00
       N       E                     dE             d eps       ncg     rms          rms(c)
RMM:   1    -0.413178196540E+03   -0.11410E-01   -0.58692E+00  4294   0.509E-01    0.925E-01
RMM:   2    -0.413174113930E+03    0.40826E-02   -0.77342E-02  4243   0.697E-02    0.668E-01
RMM:   3    -0.413172379639E+03    0.17343E-02   -0.58463E-02  5112   0.872E-02    0.377E-01
RMM:   4    -0.413183772798E+03   -0.11393E-01   -0.26519E-02  5071   0.141E-01    0.564E-01
RMM:   5    -0.413166642543E+03    0.17130E-01   -0.93330E-03  4672   0.930E-02    0.413E-02
RMM:   6    -0.413166737022E+03   -0.94479E-04   -0.13832E-03  5613   0.354E-02    0.281E-02
RMM:   7    -0.413166746803E+03   -0.97806E-05   -0.23843E-04  5502   0.151E-02    0.192E-02
RMM:   8    -0.413166746685E+03    0.11752E-06   -0.33715E-05  4694   0.704E-03    0.637E-03
RMM:   9    -0.413166747512E+03   -0.82701E-06   -0.62859E-06  3010   0.299E-03
   12 T=    61. E= -.41286672E+03 F= -.41316675E+03 E0= -.41314442E+03  EK= 0.30003E+00 SP= 0.00E+00 SK= 0.00E+00
       N       E                     dE             d eps       ncg     rms          rms(c)
RMM:   1    -0.413179157652E+03   -0.12411E-01   -0.58178E+00  4297   0.510E-01    0.936E-01
RMM:   2    -0.413174407850E+03    0.47498E-02   -0.77834E-02  4298   0.726E-02    0.665E-01
RMM:   3    -0.413178931677E+03   -0.45238E-02   -0.58796E-02  5188   0.112E-01    0.479E-01
RMM:   4    -0.413177713387E+03    0.12183E-02   -0.26727E-02  5031   0.145E-01    0.449E-01
RMM:   5    -0.413167291316E+03    0.10422E-01   -0.58104E-03  4513   0.746E-02    0.415E-02
RMM:   6    -0.413167304216E+03   -0.12900E-04   -0.75658E-04  5311   0.265E-02    0.276E-02
RMM:   7    -0.413167323062E+03   -0.18846E-04   -0.15424E-04  5238   0.122E-02    0.169E-02
RMM:   8    -0.413167319691E+03    0.33713E-05   -0.24497E-05  4341   0.608E-03    0.476E-03
RMM:   9    -0.413167317551E+03    0.21395E-05   -0.32321E-06  2636   0.229E-03    0.274E-03
RMM:  10    -0.413167315105E+03    0.24463E-05   -0.10338E-06  2460   0.148E-03    0.158E-03
RMM:  11    -0.413167312789E+03    0.23156E-05   -0.59563E-07  2015   0.107E-03    0.729E-04
RMM:  12    -0.413167308864E+03    0.39254E-05   -0.61279E-07  2236   0.104E-03    0.464E-04
RMM:  13    -0.413167305217E+03    0.36466E-05   -0.30206E-07  1446   0.791E-04    0.303E-04
RMM:  14    -0.413167301707E+03    0.35101E-05   -0.21250E-07  1277   0.725E-04    0.179E-04
RMM:  15    -0.413167297670E+03    0.40367E-05   -0.20948E-07  1468   0.726E-04    0.267E-04
RMM:  16    -0.413167292551E+03    0.51193E-05   -0.22623E-07  1359   0.694E-04    0.139E-04
RMM:  17    -0.413167291460E+03    0.10907E-05   -0.67313E-08   864   0.537E-04    0.830E-05
RMM:  18    -0.413167289975E+03    0.14856E-05   -0.50846E-08   843   0.535E-04    0.237E-05
RMM:  19    -0.413167289781E+03    0.19400E-06   -0.21913E-08   648   0.497E-04
   13 T=    61. E= -.41286691E+03 F= -.41316729E+03 E0= -.41314499E+03  EK= 0.30038E+00 SP= 0.00E+00 SK= 0.00E+00
       N       E                     dE             d eps       ncg     rms          rms(c)
RMM:   1    -0.413179242612E+03   -0.11953E-01   -0.58146E+00  4295   0.517E-01    0.916E-01
RMM:   2    -0.413175261966E+03    0.39806E-02   -0.76938E-02  4241   0.745E-02    0.661E-01
RMM:   3    -0.413173947391E+03    0.13146E-02   -0.57490E-02  5117   0.879E-02    0.378E-01
RMM:   4    -0.413184679716E+03   -0.10732E-01   -0.26807E-02  5073   0.141E-01    0.557E-01
RMM:   5    -0.413167935941E+03    0.16744E-01   -0.90374E-03  4662   0.912E-02    0.416E-02
RMM:   6    -0.413168029761E+03   -0.93820E-04   -0.13575E-03  5581   0.348E-02    0.281E-02
RMM:   7    -0.413168039306E+03   -0.95447E-05   -0.23319E-04  5456   0.147E-02    0.192E-02
RMM:   8    -0.413168042982E+03   -0.36762E-05   -0.33927E-05  4693   0.697E-03    0.636E-03
RMM:   9    -0.413168043294E+03   -0.31245E-06   -0.60640E-06  2971   0.289E-03
   14 T=    61. E= -.41286717E+03 F= -.41316804E+03 E0= -.41314578E+03  EK= 0.30087E+00 SP= 0.00E+00 SK= 0.00E+00
       N       E                     dE             d eps       ncg     rms          rms(c)
RMM:   1    -0.413179409448E+03   -0.11366E-01   -0.59000E+00  4298   0.524E-01    0.922E-01
RMM:   2    -0.413175673412E+03    0.37360E-02   -0.77777E-02  4283   0.758E-02    0.668E-01
RMM:   3    -0.413180442035E+03   -0.47686E-02   -0.63195E-02  5137   0.117E-01    0.507E-01
RMM:   4    -0.413178396749E+03    0.20453E-02   -0.26531E-02  5013   0.144E-01    0.462E-01
RMM:   5    -0.413168035702E+03    0.10361E-01   -0.68608E-03  4481   0.759E-02    0.402E-02
RMM:   6    -0.413168074761E+03   -0.39059E-04   -0.78075E-04  5303   0.263E-02    0.263E-02
RMM:   7    -0.413168105758E+03   -0.30997E-04   -0.15588E-04  5143   0.124E-02    0.160E-02
RMM:   8    -0.413168107135E+03   -0.13771E-05   -0.22911E-05  4204   0.592E-03    0.431E-03
RMM:   9    -0.413168108310E+03   -0.11749E-05   -0.29366E-06  2622   0.220E-03    0.291E-03
RMM:  10    -0.413168110178E+03   -0.18679E-05   -0.99462E-07  2443   0.145E-03    0.158E-03
RMM:  11    -0.413168110855E+03   -0.67634E-06   -0.51444E-07  1926   0.102E-03
   15 T=    61. E= -.41286687E+03 F= -.41316811E+03 E0= -.41314588E+03  EK= 0.30124E+00 SP= 0.00E+00 SK= 0.00E+00
       N       E                     dE             d eps       ncg     rms          rms(c)
RMM:   1    -0.413181112922E+03   -0.13003E-01   -0.58487E+00  4295   0.522E-01    0.939E-01
RMM:   2    -0.413176477020E+03    0.46359E-02   -0.78027E-02  4261   0.741E-02    0.668E-01
RMM:   3    -0.413174786595E+03    0.16904E-02   -0.55585E-02  5066   0.913E-02    0.359E-01
RMM:   4    -0.413186252779E+03   -0.11466E-01   -0.27145E-02  5058   0.142E-01    0.559E-01
RMM:   5    -0.413169075551E+03    0.17177E-01   -0.86850E-03  4661   0.923E-02    0.419E-02
RMM:   6    -0.413169174683E+03   -0.99132E-04   -0.13948E-03  5627   0.353E-02    0.292E-02
RMM:   7    -0.413169167913E+03    0.67700E-05   -0.24536E-04  5483   0.152E-02    0.202E-02
RMM:   8    -0.413169161820E+03    0.60936E-05   -0.34352E-05  4705   0.726E-03    0.684E-03
RMM:   9    -0.413169158649E+03    0.31706E-05   -0.68797E-06  3015   0.309E-03    0.391E-03
RMM:  10    -0.413169155903E+03    0.27463E-05   -0.13046E-06  2520   0.182E-03    0.240E-03
RMM:  11    -0.413169153153E+03    0.27495E-05   -0.75250E-07  2425   0.130E-03    0.121E-03
RMM:  12    -0.413169147952E+03    0.52012E-05   -0.89338E-07  2479   0.133E-03    0.697E-04
RMM:  13    -0.413169144230E+03    0.37224E-05   -0.34187E-07  1872   0.921E-04    0.423E-04
RMM:  14    -0.413169142999E+03    0.12305E-05   -0.14696E-07  1283   0.695E-04    0.220E-04
RMM:  15    -0.413169136754E+03    0.62456E-05   -0.25170E-07  1672   0.806E-04    0.374E-04
RMM:  16    -0.413169131975E+03    0.47782E-05   -0.15815E-07  1381   0.670E-04    0.322E-04
RMM:  17    -0.413169130739E+03    0.12360E-05   -0.61664E-08   882   0.534E-04    0.249E-04
RMM:  18    -0.413169128444E+03    0.22952E-05   -0.58621E-08   928   0.553E-04    0.913E-05
RMM:  19    -0.413169127269E+03    0.11754E-05   -0.40622E-08   881   0.551E-04    0.549E-05
RMM:  20    -0.413169127069E+03    0.20021E-06   -0.13237E-08   637   0.516E-04
   16 T=    61. E= -.41286712E+03 F= -.41316913E+03 E0= -.41314693E+03  EK= 0.30201E+00 SP= 0.00E+00 SK= 0.00E+00
       N       E                     dE             d eps       ncg     rms          rms(c)
RMM:   1    -0.413180985677E+03   -0.11858E-01   -0.58276E+00  4295   0.530E-01    0.921E-01
RMM:   2    -0.413176936679E+03    0.40490E-02   -0.77635E-02  4264   0.732E-02    0.662E-01
RMM:   3    -0.413175210272E+03    0.17264E-02   -0.56641E-02  5072   0.901E-02    0.367E-01
RMM:   4    -0.413186785868E+03   -0.11576E-01   -0.26999E-02  5058   0.142E-01    0.564E-01
RMM:   5    -0.413169418863E+03    0.17367E-01   -0.90906E-03  4665   0.928E-02    0.417E-02
RMM:   6    -0.413169511310E+03   -0.92447E-04   -0.14139E-03  5649   0.354E-02    0.288E-02
RMM:   7    -0.413169519129E+03   -0.78195E-05   -0.24409E-04  5459   0.151E-02    0.197E-02
RMM:   8    -0.413169518973E+03    0.15608E-06   -0.34490E-05  4706   0.706E-03    0.666E-03
RMM:   9    -0.413169518213E+03    0.76006E-06   -0.65179E-06  3003   0.303E-03
   17 T=    62. E= -.41286690E+03 F= -.41316952E+03 E0= -.41314736E+03  EK= 0.30262E+00 SP= 0.00E+00 SK= 0.00E+00
       N       E                     dE             d eps       ncg     rms          rms(c)
RMM:   1    -0.413181230715E+03   -0.11712E-01   -0.59331E+00  4303   0.537E-01    0.921E-01
RMM:   2    -0.413177650031E+03    0.35807E-02   -0.78288E-02  4318   0.732E-02    0.669E-01
RMM:   3    -0.413182573025E+03   -0.49230E-02   -0.63793E-02  5139   0.118E-01    0.513E-01
RMM:   4    -0.413180297253E+03    0.22758E-02   -0.26676E-02  5015   0.145E-01    0.463E-01
RMM:   5    -0.413170003595E+03    0.10294E-01   -0.69615E-03  4477   0.758E-02    0.400E-02
RMM:   6    -0.413170023423E+03   -0.19828E-04   -0.77996E-04  5315   0.259E-02    0.263E-02
RMM:   7    -0.413170025912E+03   -0.24894E-05   -0.15541E-04  5131   0.122E-02    0.160E-02
RMM:   8    -0.413170027309E+03   -0.13969E-05   -0.22989E-05  4201   0.589E-03    0.428E-03
RMM:   9    -0.413170028379E+03   -0.10694E-05   -0.30214E-06  2627   0.218E-03    0.286E-03
RMM:  10    -0.413170029832E+03   -0.14531E-05   -0.97010E-07  2440   0.144E-03    0.156E-03
RMM:  11    -0.413170030217E+03   -0.38565E-06   -0.49266E-07  1906   0.100E-03
   18 T=    62. E= -.41286682E+03 F= -.41317003E+03 E0= -.41314791E+03  EK= 0.30321E+00 SP= 0.00E+00 SK= 0.00E+00
       N       E                     dE             d eps       ncg     rms          rms(c)
RMM:   1    -0.413183492492E+03   -0.13463E-01   -0.58942E+00  4296   0.542E-01    0.939E-01
RMM:   2    -0.413178691763E+03    0.48007E-02   -0.78807E-02  4262   0.745E-02    0.670E-01
RMM:   3    -0.413176632506E+03    0.20593E-02   -0.55962E-02  5089   0.866E-02    0.354E-01
RMM:   4    -0.413189331339E+03   -0.12699E-01   -0.27560E-02  5069   0.143E-01    0.572E-01
RMM:   5    -0.413171235907E+03    0.18095E-01   -0.91993E-03  4679   0.946E-02    0.420E-02
RMM:   6    -0.413171322802E+03   -0.86895E-04   -0.14766E-03  5666   0.362E-02    0.294E-02
RMM:   7    -0.413171322994E+03   -0.19287E-06   -0.25421E-04  5470   0.158E-02    0.204E-02
RMM:   8    -0.413171319993E+03    0.30020E-05   -0.36724E-05  4742   0.744E-03    0.712E-03
RMM:   9    -0.413171317279E+03    0.27136E-05   -0.73739E-06  3059   0.323E-03    0.410E-03
RMM:  10    -0.413171314869E+03    0.24104E-05   -0.13440E-06  2525   0.188E-03    0.251E-03
RMM:  11    -0.413171312263E+03    0.26051E-05   -0.79316E-07  2462   0.134E-03    0.127E-03
RMM:  12    -0.413171307008E+03    0.52555E-05   -0.94829E-07  2482   0.137E-03    0.752E-04
RMM:  13    -0.413171303397E+03    0.36107E-05   -0.34390E-07  1920   0.932E-04    0.440E-04
RMM:  14    -0.413171302304E+03    0.10927E-05   -0.14781E-07  1273   0.696E-04    0.237E-04
RMM:  15    -0.413171295882E+03    0.64226E-05   -0.22184E-07  1588   0.782E-04    0.357E-04
RMM:  16    -0.413171290921E+03    0.49605E-05   -0.14061E-07  1357   0.669E-04    0.332E-04
RMM:  17    -0.413171289217E+03    0.17045E-05   -0.63176E-08   897   0.548E-04    0.254E-04
RMM:  18    -0.413171286453E+03    0.27635E-05   -0.58830E-08   938   0.559E-04    0.983E-05
RMM:  19    -0.413171285172E+03    0.12810E-05   -0.38824E-08   901   0.553E-04    0.398E-05
RMM:  20    -0.413171284716E+03    0.45636E-06   -0.16973E-08   718   0.529E-04
   19 T=    62. E= -.41286724E+03 F= -.41317128E+03 E0= -.41314921E+03  EK= 0.30404E+00 SP= 0.00E+00 SK= 0.00E+00
       N       E                     dE             d eps       ncg     rms          rms(c)
RMM:   1    -0.413183335534E+03   -0.12050E-01   -0.58614E+00  4291   0.540E-01    0.929E-01
RMM:   2    -0.413178983271E+03    0.43523E-02   -0.78121E-02  4261   0.765E-02    0.665E-01
RMM:   3    -0.413177088354E+03    0.18949E-02   -0.55765E-02  5112   0.858E-02    0.356E-01
RMM:   4    -0.413189553338E+03   -0.12465E-01   -0.27592E-02  5072   0.143E-01    0.570E-01
RMM:   5    -0.413171607772E+03    0.17946E-01   -0.91615E-03  4674   0.944E-02    0.421E-02
RMM:   6    -0.413171702569E+03   -0.94797E-04   -0.14646E-03  5648   0.361E-02    0.292E-02
RMM:   7    -0.413171715914E+03   -0.13345E-04   -0.25200E-04  5430   0.161E-02    0.204E-02
RMM:   8    -0.413171712818E+03    0.30959E-05   -0.37424E-05  4718   0.796E-03    0.708E-03
RMM:   9    -0.413171710758E+03    0.20600E-05   -0.81917E-06  3074   0.325E-03    0.407E-03
RMM:  10    -0.413171709419E+03    0.13394E-05   -0.14071E-06  2529   0.189E-03    0.248E-03
RMM:  11    -0.413171707842E+03    0.15763E-05   -0.81266E-07  2452   0.133E-03    0.125E-03
RMM:  12    -0.413171704535E+03    0.33073E-05   -0.87890E-07  2470   0.133E-03    0.701E-04
RMM:  13    -0.413171701934E+03    0.26012E-05   -0.33591E-07  1878   0.915E-04    0.412E-04
RMM:  14    -0.413171700954E+03    0.97934E-06   -0.14999E-07  1258   0.695E-04
   20 T=    62. E= -.41286703E+03 F= -.41317170E+03 E0= -.41314967E+03  EK= 0.30468E+00 SP= 0.00E+00 SK= 0.00E+00
       N       E                     dE             d eps       ncg     rms          rms(c)
RMM:   1    -0.413184194298E+03   -0.12492E-01   -0.59554E+00  4290   0.548E-01    0.921E-01
RMM:   2    -0.413180328289E+03    0.38660E-02   -0.78318E-02  4265   0.757E-02    0.669E-01
RMM:   3    -0.413178573071E+03    0.17552E-02   -0.59486E-02  5111   0.866E-02    0.381E-01
RMM:   4    -0.413190492447E+03   -0.11919E-01   -0.27133E-02  5071   0.142E-01    0.574E-01
RMM:   5    -0.413172741936E+03    0.17751E-01   -0.97734E-03  4675   0.946E-02    0.416E-02
RMM:   6    -0.413172851419E+03   -0.10948E-03   -0.14554E-03  5657   0.358E-02    0.279E-02
RMM:   7    -0.413172863423E+03   -0.12004E-04   -0.24959E-04  5507   0.151E-02    0.194E-02
RMM:   8    -0.413172864054E+03   -0.63131E-06   -0.35667E-05  4731   0.717E-03    0.665E-03
RMM:   9    -0.413172864142E+03   -0.87424E-07   -0.66330E-06  3029   0.308E-03
   21 T=    62. E= -.41286729E+03 F= -.41317286E+03 E0= -.41315088E+03  EK= 0.30557E+00 SP= 0.00E+00 SK= 0.00E+00
       N       E                     dE             d eps       ncg     rms          rms(c)
RMM:   1    -0.413185722173E+03   -0.12858E-01   -0.59446E+00  4298   0.547E-01    0.937E-01
RMM:   2    -0.413181256654E+03    0.44655E-02   -0.79091E-02  4306   0.761E-02    0.673E-01
RMM:   3    -0.413185790338E+03   -0.45337E-02   -0.60887E-02  5142   0.115E-01    0.488E-01
RMM:   4    -0.413184849404E+03    0.94093E-03   -0.27307E-02  5021   0.146E-01    0.464E-01
RMM:   5    -0.413173871667E+03    0.10978E-01   -0.63848E-03  4509   0.772E-02    0.410E-02
RMM:   6    -0.413173906101E+03   -0.34434E-04   -0.82605E-04  5354   0.270E-02    0.273E-02
RMM:   7    -0.413173924297E+03   -0.18196E-04   -0.16490E-04  5190   0.130E-02    0.172E-02
RMM:   8    -0.413173923955E+03    0.34286E-06   -0.25383E-05  4341   0.639E-03    0.477E-03
RMM:   9    -0.413173922325E+03    0.16295E-05   -0.35742E-06  2669   0.235E-03    0.284E-03
RMM:  10    -0.413173920294E+03    0.20311E-05   -0.10131E-06  2472   0.150E-03    0.163E-03
RMM:  11    -0.413173918240E+03    0.20534E-05   -0.57304E-07  2006   0.107E-03    0.766E-04
RMM:  12    -0.413173914064E+03    0.41769E-05   -0.61809E-07  2247   0.106E-03    0.480E-04
RMM:  13    -0.413173909611E+03    0.44524E-05   -0.30840E-07  1428   0.789E-04    0.303E-04
RMM:  14    -0.413173905940E+03    0.36715E-05   -0.17192E-07  1144   0.683E-04    0.180E-04
RMM:  15    -0.413173900884E+03    0.50558E-05   -0.15803E-07  1198   0.683E-04    0.235E-04
RMM:  16    -0.413173894063E+03    0.68211E-05   -0.16668E-07  1210   0.674E-04    0.158E-04
RMM:  17    -0.413173893329E+03    0.73431E-06   -0.54500E-08   787   0.556E-04
   22 T=    62. E= -.41286733E+03 F= -.41317389E+03 E0= -.41315195E+03  EK= 0.30656E+00 SP= 0.00E+00 SK= 0.00E+00
       N       E                     dE             d eps       ncg     rms          rms(c)
RMM:   1    -0.413186613430E+03   -0.12719E-01   -0.59179E+00  4293   0.555E-01    0.937E-01
RMM:   2    -0.413182001644E+03    0.46118E-02   -0.79323E-02  4279   0.768E-02    0.669E-01
RMM:   3    -0.413179846021E+03    0.21556E-02   -0.55447E-02  5045   0.893E-02    0.346E-01
RMM:   4    -0.413193397727E+03   -0.13552E-01   -0.28062E-02  5071   0.144E-01    0.581E-01
RMM:   5    -0.413174601216E+03    0.18797E-01   -0.94265E-03  4683   0.967E-02    0.424E-02
RMM:   6    -0.413174697461E+03   -0.96245E-04   -0.15499E-03  5674   0.373E-02    0.296E-02
RMM:   7    -0.413174696487E+03    0.97368E-06   -0.26171E-04  5483   0.158E-02    0.207E-02
RMM:   8    -0.413174696416E+03    0.71730E-07   -0.37858E-05  4775   0.749E-03    0.743E-03
RMM:   9    -0.413174694287E+03    0.21288E-05   -0.77795E-06  3119   0.327E-03    0.423E-03
RMM:  10    -0.413174692201E+03    0.20855E-05   -0.13443E-06  2522   0.189E-03    0.260E-03
RMM:  11    -0.413174689904E+03    0.22972E-05   -0.80798E-07  2470   0.135E-03    0.133E-03
RMM:  12    -0.413174685466E+03    0.44382E-05   -0.98042E-07  2496   0.138E-03    0.742E-04
RMM:  13    -0.413174682546E+03    0.29202E-05   -0.35560E-07  1944   0.936E-04    0.447E-04
RMM:  14    -0.413174681495E+03    0.10509E-05   -0.15300E-07  1304   0.701E-04    0.242E-04
RMM:  15    -0.413174676973E+03    0.45217E-05   -0.15246E-07  1354   0.714E-04    0.227E-04
RMM:  16    -0.413174672078E+03    0.48953E-05   -0.12109E-07  1249   0.660E-04    0.253E-04
RMM:  17    -0.413174670318E+03    0.17600E-05   -0.54137E-08   886   0.567E-04    0.194E-04
RMM:  18    -0.413174667261E+03    0.30568E-05   -0.51635E-08   939   0.571E-04    0.889E-05
RMM:  19    -0.413174665770E+03    0.14910E-05   -0.32275E-08   841   0.553E-04    0.372E-05
RMM:  20    -0.413174665240E+03    0.53033E-06   -0.13845E-08   683   0.531E-04
   23 T=    63. E= -.41286703E+03 F= -.41317467E+03 E0= -.41315277E+03  EK= 0.30764E+00 SP= 0.00E+00 SK= 0.00E+00
       N       E                     dE             d eps       ncg     rms          rms(c)
RMM:   1    -0.413187856986E+03   -0.13191E-01   -0.59895E+00  4293   0.567E-01    0.923E-01
RMM:   2    -0.413184024850E+03    0.38321E-02   -0.80562E-02  4292   0.811E-02    0.671E-01
RMM:   3    -0.413181630404E+03    0.23944E-02   -0.58720E-02  5041   0.915E-02    0.367E-01
RMM:   4    -0.413195478815E+03   -0.13848E-01   -0.27745E-02  5062   0.144E-01    0.593E-01
RMM:   5    -0.413176213126E+03    0.19266E-01   -0.10278E-02  4683   0.990E-02    0.418E-02
RMM:   6    -0.413176321559E+03   -0.10843E-03   -0.15796E-03  5699   0.378E-02    0.285E-02
RMM:   7    -0.413176321094E+03    0.46496E-06   -0.26184E-04  5470   0.160E-02    0.199E-02
RMM:   8    -0.413176322074E+03   -0.98008E-06   -0.38495E-05  4740   0.760E-03    0.706E-03
RMM:   9    -0.413176322473E+03   -0.39843E-06   -0.79466E-06  3126   0.334E-03
   24 T=    63. E= -.41286725E+03 F= -.41317632E+03 E0= -.41315448E+03  EK= 0.30907E+00 SP= 0.00E+00 SK= 0.00E+00
       N       E                     dE             d eps       ncg     rms          rms(c)
RMM:   1    -0.413189191151E+03   -0.12869E-01   -0.60319E+00  4299   0.568E-01    0.936E-01
RMM:   2    -0.413185068328E+03    0.41228E-02   -0.81358E-02  4334   0.801E-02    0.677E-01
RMM:   3    -0.413189250519E+03   -0.41822E-02   -0.61910E-02  5121   0.119E-01    0.494E-01
RMM:   4    -0.413188729834E+03    0.52069E-03   -0.27617E-02  5018   0.147E-01    0.477E-01
RMM:   5    -0.413177302390E+03    0.11427E-01   -0.67547E-03  4505   0.793E-02    0.413E-02
RMM:   6    -0.413177333692E+03   -0.31302E-04   -0.88026E-04  5384   0.279E-02    0.271E-02
RMM:   7    -0.413177340656E+03   -0.69639E-05   -0.16904E-04  5196   0.133E-02    0.174E-02
RMM:   8    -0.413177338570E+03    0.20859E-05   -0.26300E-05  4383   0.655E-03    0.482E-03
RMM:   9    -0.413177337579E+03    0.99091E-06   -0.38808E-06  2711   0.240E-03
   25 T=    63. E= -.41286708E+03 F= -.41317734E+03 E0= -.41315554E+03  EK= 0.31026E+00 SP= 0.00E+00 SK= 0.00E+00
       N       E                     dE             d eps       ncg     rms          rms(c)
RMM:   1    -0.413190764509E+03   -0.13426E-01   -0.60003E+00  4291   0.568E-01    0.947E-01
RMM:   2    -0.413185935218E+03    0.48293E-02   -0.80661E-02  4301   0.799E-02    0.674E-01
RMM:   3    -0.413184911869E+03    0.10233E-02   -0.55906E-02  5066   0.973E-02    0.368E-01
RMM:   4    -0.413196088578E+03   -0.11177E-01   -0.28203E-02  5052   0.145E-01    0.562E-01
RMM:   5    -0.413178574634E+03    0.17514E-01   -0.86150E-03  4659   0.942E-02    0.428E-02
RMM:   6    -0.413178659857E+03   -0.85223E-04   -0.14211E-03  5660   0.358E-02    0.294E-02
RMM:   7    -0.413178675941E+03   -0.16084E-04   -0.25020E-04  5472   0.156E-02    0.206E-02
RMM:   8    -0.413178670575E+03    0.53660E-05   -0.36104E-05  4680   0.773E-03    0.691E-03
RMM:   9    -0.413178665987E+03    0.45881E-05   -0.78408E-06  3052   0.324E-03    0.390E-03
RMM:  10    -0.413178661340E+03    0.46468E-05   -0.13889E-06  2531   0.186E-03    0.245E-03
RMM:  11    -0.413178656835E+03    0.45050E-05   -0.82691E-07  2435   0.133E-03    0.125E-03
RMM:  12    -0.413178648508E+03    0.83277E-05   -0.98238E-07  2481   0.134E-03    0.683E-04
RMM:  13    -0.413178643514E+03    0.49938E-05   -0.38536E-07  1885   0.920E-04    0.473E-04
RMM:  14    -0.413178640769E+03    0.27450E-05   -0.16775E-07  1278   0.707E-04    0.241E-04
RMM:  15    -0.413178632066E+03    0.87026E-05   -0.21947E-07  1594   0.767E-04    0.349E-04
RMM:  16    -0.413178623459E+03    0.86076E-05   -0.16918E-07  1327   0.683E-04    0.273E-04
RMM:  17    -0.413178621149E+03    0.23094E-05   -0.68728E-08   960   0.564E-04    0.196E-04
RMM:  18    -0.413178617534E+03    0.36156E-05   -0.59028E-08  1035   0.585E-04    0.471E-05
RMM:  19    -0.413178616844E+03    0.68987E-06   -0.27467E-08   794   0.536E-04
   26 T=    63. E= -.41286710E+03 F= -.41317862E+03 E0= -.41315687E+03  EK= 0.31152E+00 SP= 0.00E+00 SK= 0.00E+00
       N       E                     dE             d eps       ncg     rms          rms(c)
RMM:   1    -0.413191960467E+03   -0.13343E-01   -0.60336E+00  4287   0.575E-01    0.928E-01
RMM:   2    -0.413188119236E+03    0.38412E-02   -0.80309E-02  4285   0.831E-02    0.672E-01
RMM:   3    -0.413184660245E+03    0.34590E-02   -0.57506E-02  5014   0.855E-02    0.336E-01
RMM:   4    -0.413201448376E+03   -0.16788E-01   -0.27867E-02  5085   0.143E-01    0.614E-01
RMM:   5    -0.413180263045E+03    0.21185E-01   -0.10994E-02  4716   0.104E-01    0.423E-02
RMM:   6    -0.413180399732E+03   -0.13669E-03   -0.17931E-03  5752   0.398E-02    0.290E-02
RMM:   7    -0.413180424328E+03   -0.24597E-04   -0.28512E-04  5510   0.169E-02    0.209E-02
RMM:   8    -0.413180428394E+03   -0.40657E-05   -0.46759E-05  4740   0.890E-03    0.830E-03
RMM:   9    -0.413180428971E+03   -0.57675E-06   -0.11391E-05  3388   0.410E-03    0.501E-03
RMM:  10    -0.413180429431E+03   -0.46052E-06   -0.18698E-06  2577   0.218E-03
   27 T=    64. E= -.41286745E+03 F= -.41318043E+03 E0= -.41315873E+03  EK= 0.31298E+00 SP= 0.00E+00 SK= 0.00E+00
       N       E                     dE             d eps       ncg     rms          rms(c)
RMM:   1    -0.413193412838E+03   -0.12984E-01   -0.61247E+00  4289   0.583E-01    0.939E-01
RMM:   2    -0.413189377535E+03    0.40353E-02   -0.81508E-02  4308   0.851E-02    0.681E-01
RMM:   3    -0.413189331710E+03    0.45825E-04   -0.60856E-02  5098   0.101E-01    0.419E-01
RMM:   4    -0.413197489580E+03   -0.81579E-02   -0.27883E-02  5045   0.145E-01    0.549E-01
RMM:   5    -0.413181601850E+03    0.15888E-01   -0.87933E-03  4626   0.921E-02    0.417E-02
RMM:   6    -0.413181681908E+03   -0.80058E-04   -0.13036E-03  5632   0.337E-02    0.280E-02
RMM:   7    -0.413181693009E+03   -0.11101E-04   -0.22836E-04  5408   0.149E-02    0.193E-02
RMM:   8    -0.413181695244E+03   -0.22343E-05   -0.32875E-05  4628   0.734E-03    0.624E-03
RMM:   9    -0.413181694499E+03    0.74492E-06   -0.63147E-06  2943   0.298E-03
   28 T=    64. E= -.41286733E+03 F= -.41318169E+03 E0= -.41316005E+03  EK= 0.31437E+00 SP= 0.00E+00 SK= 0.00E+00
       N       E                     dE             d eps       ncg     rms          rms(c)
RMM:   1    -0.413197768163E+03   -0.16073E-01   -0.61077E+00  4294   0.611E-01    0.952E-01
RMM:   2    -0.413191397355E+03    0.63708E-02   -0.87436E-02  4312   0.886E-02    0.681E-01
RMM:   3    -0.413192044000E+03   -0.64665E-03   -0.56386E-02  5103   0.105E-01    0.411E-01
RMM:   4    -0.413200050912E+03   -0.80069E-02   -0.30309E-02  5036   0.152E-01    0.545E-01
RMM:   5    -0.413183744785E+03    0.16306E-01   -0.77846E-03  4616   0.909E-02    0.439E-02
RMM:   6    -0.413183796286E+03   -0.51501E-04   -0.12995E-03  5617   0.337E-02    0.289E-02
RMM:   7    -0.413183798940E+03   -0.26543E-05   -0.22302E-04  5410   0.150E-02    0.197E-02
RMM:   8    -0.413183797068E+03    0.18728E-05   -0.35357E-05  4736   0.741E-03    0.645E-03
RMM:   9    -0.413183792534E+03    0.45340E-05   -0.63927E-06  2944   0.302E-03    0.347E-03
RMM:  10    -0.413183787805E+03    0.47285E-05   -0.12863E-06  2523   0.180E-03    0.220E-03
RMM:  11    -0.413183782977E+03    0.48282E-05   -0.79803E-07  2377   0.130E-03    0.109E-03
RMM:  12    -0.413183775012E+03    0.79647E-05   -0.80270E-07  2392   0.123E-03    0.570E-04
RMM:  13    -0.413183770474E+03    0.45379E-05   -0.32359E-07  1782   0.871E-04    0.422E-04
RMM:  14    -0.413183766365E+03    0.41094E-05   -0.16950E-07  1263   0.706E-04    0.212E-04
RMM:  15    -0.413183757160E+03    0.92050E-05   -0.21089E-07  1525   0.753E-04    0.318E-04
RMM:  16    -0.413183748262E+03    0.88978E-05   -0.15254E-07  1248   0.670E-04    0.193E-04
RMM:  17    -0.413183745866E+03    0.23965E-05   -0.64283E-08   957   0.579E-04    0.123E-04
RMM:  18    -0.413183742698E+03    0.31673E-05   -0.55005E-08  1125   0.601E-04    0.416E-05
RMM:  19    -0.413183742035E+03    0.66320E-06   -0.23191E-08   755   0.528E-04
   29 T=    64. E= -.41286756E+03 F= -.41318374E+03 E0= -.41316214E+03  EK= 0.31619E+00 SP= 0.00E+00 SK= 0.00E+00
       N       E                     dE             d eps       ncg     rms          rms(c)
RMM:   1    -0.413197970910E+03   -0.14228E-01   -0.61070E+00  4293   0.600E-01    0.936E-01
RMM:   2    -0.413193534211E+03    0.44367E-02   -0.82182E-02  4280   0.894E-02    0.676E-01
RMM:   3    -0.413189866705E+03    0.36675E-02   -0.56784E-02  5007   0.871E-02    0.331E-01
RMM:   4    -0.413207411864E+03   -0.17545E-01   -0.28964E-02  5084   0.146E-01    0.623E-01
RMM:   5    -0.413185547990E+03    0.21864E-01   -0.11136E-02  4711   0.105E-01    0.425E-02
RMM:   6    -0.413185668954E+03   -0.12096E-03   -0.18178E-03  5772   0.400E-02    0.295E-02
RMM:   7    -0.413185678581E+03   -0.96277E-05   -0.28436E-04  5523   0.168E-02    0.213E-02
RMM:   8    -0.413185678883E+03   -0.30128E-06   -0.46858E-05  4820   0.848E-03    0.869E-03
RMM:   9    -0.413185677211E+03    0.16714E-05   -0.10456E-05  3415   0.390E-03    0.502E-03
RMM:  10    -0.413185676217E+03    0.99412E-06   -0.15954E-06  2539   0.211E-03
   30 T=    65. E= -.41286762E+03 F= -.41318568E+03 E0= -.41316413E+03  EK= 0.31806E+00 SP= 0.00E+00 SK= 0.00E+00
       N       E                     dE             d eps       ncg     rms          rms(c)
RMM:   1    -0.413199333912E+03   -0.13657E-01   -0.62338E+00  4305   0.611E-01    0.941E-01
RMM:   2    -0.413195527541E+03    0.38064E-02   -0.83985E-02  4302   0.926E-02    0.686E-01
RMM:   3    -0.413195706752E+03   -0.17921E-03   -0.62184E-02  5072   0.108E-01    0.435E-01
RMM:   4    -0.413203226327E+03   -0.75196E-02   -0.28860E-02  5032   0.148E-01    0.551E-01
RMM:   5    -0.413187120787E+03    0.16106E-01   -0.88278E-03  4604   0.912E-02    0.422E-02
RMM:   6    -0.413187210495E+03   -0.89708E-04   -0.13432E-03  5633   0.336E-02    0.280E-02
RMM:   7    -0.413187241122E+03   -0.30627E-04   -0.23277E-04  5336   0.157E-02    0.192E-02
RMM:   8    -0.413187248969E+03   -0.78470E-05   -0.35717E-05  4623   0.816E-03    0.626E-03
RMM:   9    -0.413187248609E+03    0.36017E-06   -0.72660E-06  2992   0.311E-03
   31 T=    65. E= -.41286735E+03 F= -.41318725E+03 E0= -.41316575E+03  EK= 0.31990E+00 SP= 0.00E+00 SK= 0.00E+00
       N       E                     dE             d eps       ncg     rms          rms(c)
RMM:   1    -0.413202266159E+03   -0.15017E-01   -0.62077E+00  4299   0.610E-01    0.961E-01
RMM:   2    -0.413197551998E+03    0.47142E-02   -0.84226E-02  4300   0.929E-02    0.687E-01
RMM:   3    -0.413198012011E+03   -0.46001E-03   -0.58565E-02  5071   0.110E-01    0.413E-01
RMM:   4    -0.413205599954E+03   -0.75879E-02   -0.29076E-02  5036   0.149E-01    0.540E-01
RMM:   5    -0.413189694933E+03    0.15905E-01   -0.79386E-03  4603   0.898E-02    0.431E-02
RMM:   6    -0.413189765573E+03   -0.70641E-04   -0.13047E-03  5643   0.334E-02    0.293E-02
RMM:   7    -0.413189774203E+03   -0.86293E-05   -0.22874E-04  5394   0.149E-02    0.201E-02
RMM:   8    -0.413189771654E+03    0.25486E-05   -0.35061E-05  4697   0.743E-03    0.666E-03
RMM:   9    -0.413189767079E+03    0.45749E-05   -0.63589E-06  2931   0.307E-03    0.356E-03
RMM:  10    -0.413189762317E+03    0.47627E-05   -0.13120E-06  2524   0.182E-03    0.220E-03
RMM:  11    -0.413189757731E+03    0.45857E-05   -0.71898E-07  2367   0.129E-03    0.110E-03
RMM:  12    -0.413189749693E+03    0.80380E-05   -0.75549E-07  2412   0.123E-03    0.593E-04
RMM:  13    -0.413189745083E+03    0.46095E-05   -0.29864E-07  1792   0.871E-04    0.441E-04
RMM:  14    -0.413189740681E+03    0.44026E-05   -0.15761E-07  1267   0.702E-04    0.218E-04
RMM:  15    -0.413189731002E+03    0.96789E-05   -0.19321E-07  1587   0.747E-04    0.347E-04
RMM:  16    -0.413189721291E+03    0.97109E-05   -0.13934E-07  1282   0.668E-04    0.223E-04
RMM:  17    -0.413189718686E+03    0.26048E-05   -0.64744E-08  1005   0.573E-04    0.151E-04
RMM:  18    -0.413189715418E+03    0.32680E-05   -0.50122E-08  1060   0.585E-04    0.459E-05
RMM:  19    -0.413189714750E+03    0.66829E-06   -0.21642E-08   755   0.529E-04
   32 T=    66. E= -.41286758E+03 F= -.41318971E+03 E0= -.41316827E+03  EK= 0.32213E+00 SP= 0.00E+00 SK= 0.00E+00
       N       E                     dE             d eps       ncg     rms          rms(c)
RMM:   1    -0.413203684963E+03   -0.13970E-01   -0.62075E+00  4302   0.627E-01    0.949E-01
RMM:   2    -0.413199532058E+03    0.41529E-02   -0.84475E-02  4270   0.955E-02    0.683E-01
RMM:   3    -0.413194700540E+03    0.48315E-02   -0.56283E-02  4912   0.920E-02    0.295E-01
RMM:   4    -0.413214940924E+03   -0.20240E-01   -0.28444E-02  5100   0.145E-01    0.642E-01
RMM:   5    -0.413191282343E+03    0.23659E-01   -0.11954E-02  4758   0.109E-01    0.429E-02
RMM:   6    -0.413191439856E+03   -0.15751E-03   -0.20035E-03  5815   0.415E-02    0.299E-02
RMM:   7    -0.413191475226E+03   -0.35371E-04   -0.27773E-04  5532   0.173E-02    0.206E-02
RMM:   8    -0.413191480837E+03   -0.56104E-05   -0.57160E-05  4848   0.911E-03    0.976E-03
RMM:   9    -0.413191478450E+03    0.23866E-05   -0.12998E-05  3688   0.445E-03    0.579E-03
RMM:  10    -0.413191477036E+03    0.14139E-05   -0.23172E-06  2615   0.249E-03    0.349E-03
RMM:  11    -0.413191474474E+03    0.25621E-05   -0.12954E-06  2511   0.180E-03    0.171E-03
RMM:  12    -0.413191470377E+03    0.40975E-05   -0.12734E-06  2495   0.173E-03    0.108E-03
RMM:  13    -0.413191468250E+03    0.21264E-05   -0.40110E-07  2197   0.109E-03    0.643E-04
RMM:  14    -0.413191467256E+03    0.99403E-06   -0.19007E-07  1533   0.761E-04
   33 T=    66. E= -.41286729E+03 F= -.41319147E+03 E0= -.41317007E+03  EK= 0.32418E+00 SP= 0.00E+00 SK= 0.00E+00
       N       E                     dE             d eps       ncg     rms          rms(c)
RMM:   1    -0.413206124742E+03   -0.14656E-01   -0.63455E+00  4309   0.652E-01    0.946E-01
RMM:   2    -0.413202142095E+03    0.39826E-02   -0.86940E-02  4266   0.104E-01    0.690E-01
RMM:   3    -0.413196196787E+03    0.59453E-02   -0.59413E-02  4729   0.928E-02    0.296E-01
RMM:   4    -0.413211798403E+03   -0.15602E-01   -0.20640E-02  5113   0.124E-01    0.563E-01
RMM:   5    -0.413193649430E+03    0.18149E-01   -0.91725E-03  4782   0.947E-02    0.393E-02
RMM:   6    -0.413193773838E+03   -0.12441E-03   -0.15309E-03  5819   0.362E-02    0.264E-02
RMM:   7    -0.413193802892E+03   -0.29054E-04   -0.16261E-04  5383   0.147E-02    0.139E-02
RMM:   8    -0.413193806085E+03   -0.31927E-05   -0.32817E-05  4545   0.653E-03    0.720E-03
RMM:   9    -0.413193805729E+03    0.35609E-06   -0.92391E-06  3461   0.352E-03
   34 T=    66. E= -.41286743E+03 F= -.41319381E+03 E0= -.41317245E+03  EK= 0.32637E+00 SP= 0.00E+00 SK= 0.00E+00
       N       E                     dE             d eps       ncg     rms          rms(c)
RMM:   1    -0.413210385731E+03   -0.16580E-01   -0.63547E+00  4307   0.665E-01    0.967E-01
RMM:   2    -0.413204176607E+03    0.62091E-02   -0.87035E-02  4311   0.111E-01    0.693E-01
RMM:   3    -0.413205614279E+03   -0.14377E-02   -0.59894E-02  5035   0.126E-01    0.432E-01
RMM:   4    -0.413211977664E+03   -0.63634E-02   -0.29364E-02  5011   0.150E-01    0.536E-01
RMM:   5    -0.413196422682E+03    0.15555E-01   -0.77646E-03  4584   0.896E-02    0.417E-02
RMM:   6    -0.413196511940E+03   -0.89259E-04   -0.13464E-03  5717   0.328E-02    0.293E-02
RMM:   7    -0.413196519944E+03   -0.80038E-05   -0.22825E-04  5309   0.157E-02    0.207E-02
RMM:   8    -0.413196520210E+03   -0.26560E-06   -0.40665E-05  4697   0.837E-03    0.752E-03
RMM:   9    -0.413196516358E+03    0.38520E-05   -0.76516E-06  3047   0.353E-03    0.385E-03
RMM:  10    -0.413196512513E+03    0.38451E-05   -0.13683E-06  2536   0.195E-03    0.235E-03
RMM:  11    -0.413196508296E+03    0.42169E-05   -0.73239E-07  2430   0.135E-03    0.120E-03
RMM:  12    -0.413196500806E+03    0.74896E-05   -0.80934E-07  2437   0.132E-03    0.726E-04
RMM:  13    -0.413196496846E+03    0.39597E-05   -0.28734E-07  1846   0.884E-04    0.533E-04
RMM:  14    -0.413196493663E+03    0.31831E-05   -0.13669E-07  1220   0.686E-04    0.267E-04
RMM:  15    -0.413196483785E+03    0.98788E-05   -0.20053E-07  1714   0.769E-04    0.405E-04
RMM:  16    -0.413196476001E+03    0.77833E-05   -0.11285E-07  1238   0.637E-04    0.318E-04
RMM:  17    -0.413196470945E+03    0.50558E-05   -0.74049E-08  1056   0.584E-04    0.238E-04
RMM:  18    -0.413196467922E+03    0.30236E-05   -0.49088E-08  1024   0.576E-04    0.442E-05
RMM:  19    -0.413196466585E+03    0.13371E-05   -0.28323E-08   876   0.541E-04    0.684E-05
RMM:  20    -0.413196466429E+03    0.15547E-06   -0.12746E-08   655   0.502E-04
   35 T=    67. E= -.41286781E+03 F= -.41319647E+03 E0= -.41317516E+03  EK= 0.32866E+00 SP= 0.00E+00 SK= 0.00E+00
       N       E                     dE             d eps       ncg     rms          rms(c)
RMM:   1    -0.413214812236E+03   -0.18346E-01   -0.63714E+00  4305   0.717E-01    0.960E-01
RMM:   2    -0.413206206378E+03    0.86059E-02   -0.97599E-02  4251   0.120E-01    0.692E-01
RMM:   3    -0.413199718746E+03    0.64876E-02   -0.52258E-02  4400   0.897E-02    0.207E-01
RMM:   4    -0.413200860666E+03   -0.11419E-02   -0.39518E-03  5069   0.536E-02    0.206E-01
RMM:   5    -0.413198522716E+03    0.23379E-02   -0.12013E-03  4775   0.346E-02    0.350E-02
RMM:   6    -0.413198565198E+03   -0.42481E-04   -0.42092E-04  5472   0.203E-02    0.299E-02
RMM:   7    -0.413198575765E+03   -0.10567E-04   -0.16396E-04  4954   0.149E-02    0.197E-02
RMM:   8    -0.413198567074E+03    0.86911E-05   -0.28504E-05  4268   0.553E-03    0.547E-03
RMM:   9    -0.413198566134E+03    0.93909E-06   -0.38635E-06  2591   0.229E-03
   36 T=    67. E= -.41286768E+03 F= -.41319857E+03 E0= -.41317730E+03  EK= 0.33088E+00 SP= 0.00E+00 SK= 0.00E+00
       N       E                     dE             d eps       ncg     rms          rms(c)
RMM:   1    -0.413214467604E+03   -0.15901E-01   -0.64553E+00  4312   0.699E-01    0.951E-01
RMM:   2    -0.413209551356E+03    0.49162E-02   -0.92856E-02  4258   0.121E-01    0.695E-01
RMM:   3    -0.413203442601E+03    0.61088E-02   -0.58237E-02  4401   0.993E-02    0.259E-01
RMM:   4    -0.413202883073E+03    0.55953E-03   -0.41611E-03  5012   0.469E-02    0.145E-01
RMM:   5    -0.413201784554E+03    0.10985E-02   -0.63172E-04  4728   0.255E-02    0.352E-02
RMM:   6    -0.413201803302E+03   -0.18749E-04   -0.31034E-04  5309   0.175E-02    0.282E-02
RMM:   7    -0.413201827948E+03   -0.24645E-04   -0.14703E-04  4825   0.136E-02    0.192E-02
RMM:   8    -0.413201819883E+03    0.80645E-05   -0.25458E-05  4260   0.524E-03    0.546E-03
RMM:   9    -0.413201819795E+03    0.88312E-07   -0.53437E-06  2497   0.221E-03
   37 T=    68. E= -.41286815E+03 F= -.41320182E+03 E0= -.41318060E+03  EK= 0.33367E+00 SP= 0.00E+00 SK= 0.00E+00
       N       E                     dE             d eps       ncg     rms          rms(c)
RMM:   1    -0.413217547660E+03   -0.15728E-01   -0.65081E+00  4312   0.716E-01    0.970E-01
RMM:   2    -0.413212557348E+03    0.49903E-02   -0.93421E-02  4253   0.116E-01    0.702E-01
RMM:   3    -0.413206050835E+03    0.65065E-02   -0.57228E-02  4462   0.912E-02    0.246E-01
RMM:   4    -0.413208008267E+03   -0.19574E-02   -0.57969E-03  5107   0.618E-02    0.252E-01
RMM:   5    -0.413204495921E+03    0.35123E-02   -0.18047E-03  4786   0.423E-02    0.362E-02
RMM:   6    -0.413204525869E+03   -0.29948E-04   -0.48591E-04  5561   0.216E-02    0.293E-02
RMM:   7    -0.413204545558E+03   -0.19688E-04   -0.17694E-04  5055   0.145E-02    0.196E-02
RMM:   8    -0.413204536348E+03    0.92097E-05   -0.28686E-05  4656   0.605E-03    0.668E-03
RMM:   9    -0.413204534803E+03    0.15444E-05   -0.52093E-06  2647   0.239E-03    0.315E-03
RMM:  10    -0.413204530356E+03    0.44470E-05   -0.13843E-06  2491   0.172E-03    0.161E-03
RMM:  11    -0.413204525400E+03    0.49563E-05   -0.60203E-07  2220   0.114E-03    0.704E-04
RMM:  12    -0.413204520976E+03    0.44245E-05   -0.31564E-07  1726   0.858E-04    0.366E-04
RMM:  13    -0.413204515426E+03    0.55499E-05   -0.19644E-07  1310   0.731E-04    0.257E-04
RMM:  14    -0.413204507250E+03    0.81759E-05   -0.17641E-07  1346   0.713E-04    0.216E-04
RMM:  15    -0.413204495404E+03    0.11846E-04   -0.19788E-07  1607   0.748E-04    0.162E-04
RMM:  16    -0.413204491646E+03    0.37584E-05   -0.68120E-08  1049   0.572E-04    0.112E-04
RMM:  17    -0.413204488112E+03    0.35332E-05   -0.47416E-08  1005   0.555E-04    0.440E-05
RMM:  18    -0.413204486715E+03    0.13972E-05   -0.24948E-08   757   0.507E-04    0.277E-05
RMM:  19    -0.413204485670E+03    0.10454E-05   -0.17403E-08   690   0.503E-04    0.171E-05
RMM:  20    -0.413204485218E+03    0.45152E-06   -0.11035E-08   619   0.496E-04
   38 T=    69. E= -.41286802E+03 F= -.41320449E+03 E0= -.41318331E+03  EK= 0.33647E+00 SP= 0.00E+00 SK= 0.00E+00
       N       E                     dE             d eps       ncg     rms          rms(c)
RMM:   1    -0.413221804071E+03   -0.17318E-01   -0.65163E+00  4311   0.770E-01    0.979E-01
RMM:   2    -0.413215256368E+03    0.65477E-02   -0.95540E-02  4252   0.114E-01    0.701E-01
RMM:   3    -0.413208563095E+03    0.66933E-02   -0.54398E-02  4530   0.860E-02    0.215E-01
RMM:   4    -0.413214267632E+03   -0.57045E-02   -0.87437E-03  5137   0.793E-02    0.355E-01
RMM:   5    -0.413207238585E+03    0.70290E-02   -0.35244E-03  4798   0.592E-02    0.381E-02
RMM:   6    -0.413207261390E+03   -0.22806E-04   -0.75317E-04  5636   0.270E-02    0.301E-02
RMM:   7    -0.413207281562E+03   -0.20171E-04   -0.21505E-04  5256   0.153E-02    0.200E-02
RMM:   8    -0.413207272069E+03    0.94923E-05   -0.32631E-05  4855   0.664E-03    0.786E-03
RMM:   9    -0.413207270738E+03    0.13310E-05   -0.61784E-06  2848   0.282E-03    0.358E-03
RMM:  10    -0.413207268066E+03    0.26719E-05   -0.13402E-06  2495   0.183E-03    0.192E-03
RMM:  11    -0.413207264204E+03    0.38627E-05   -0.77975E-07  2440   0.134E-03    0.926E-04
RMM:  12    -0.413207260506E+03    0.36972E-05   -0.38291E-07  2083   0.986E-04    0.503E-04
RMM:  13    -0.413207257529E+03    0.29770E-05   -0.18091E-07  1417   0.750E-04    0.263E-04
RMM:  14    -0.413207253348E+03    0.41817E-05   -0.12082E-07  1127   0.682E-04    0.184E-04
RMM:  15    -0.413207245589E+03    0.77589E-05   -0.11857E-07  1151   0.681E-04    0.137E-04
RMM:  16    -0.413207242008E+03    0.35805E-05   -0.69130E-08  1063   0.630E-04    0.122E-04
RMM:  17    -0.413207238003E+03    0.40051E-05   -0.55729E-08  1114   0.611E-04    0.651E-05
RMM:  18    -0.413207234888E+03    0.31150E-05   -0.40616E-08   988   0.576E-04    0.302E-05
RMM:  19    -0.413207234390E+03    0.49811E-06   -0.19390E-08   706   0.526E-04
   39 T=    69. E= -.41286781E+03 F= -.41320723E+03 E0= -.41318609E+03  EK= 0.33942E+00 SP= 0.00E+00 SK= 0.00E+00
       N       E                     dE             d eps       ncg     rms          rms(c)
RMM:   1    -0.413223738925E+03   -0.16504E-01   -0.65925E+00  4301   0.783E-01    0.964E-01
RMM:   2    -0.413218770900E+03    0.49680E-02   -0.95756E-02  4253   0.113E-01    0.702E-01
RMM:   3    -0.413212470337E+03    0.63006E-02   -0.57978E-02  4686   0.914E-02    0.261E-01
RMM:   4    -0.413227003053E+03   -0.14533E-01   -0.18951E-02  5104   0.118E-01    0.540E-01
RMM:   5    -0.413210414990E+03    0.16588E-01   -0.81969E-03  4792   0.902E-02    0.408E-02
RMM:   6    -0.413210447438E+03   -0.32448E-04   -0.13989E-03  5742   0.361E-02    0.287E-02
RMM:   7    -0.413210480999E+03   -0.33561E-04   -0.27070E-04  5520   0.161E-02    0.202E-02
RMM:   8    -0.413210472602E+03    0.83970E-05   -0.46869E-05  5011   0.776E-03    0.884E-03
RMM:   9    -0.413210473791E+03   -0.11888E-05   -0.95886E-06  3298   0.373E-03    0.457E-03
RMM:  10    -0.413210473869E+03   -0.78064E-07   -0.16805E-06  2544   0.206E-03
   40 T=    70. E= -.41286799E+03 F= -.41321047E+03 E0= -.41318937E+03  EK= 0.34249E+00 SP= 0.00E+00 SK= 0.00E+00
       N       E                     dE             d eps       ncg     rms          rms(c)
RMM:   1    -0.413226745944E+03   -0.16272E-01   -0.67041E+00  4316   0.818E-01    0.976E-01
RMM:   2    -0.413221256046E+03    0.54899E-02   -0.99181E-02  4287   0.115E-01    0.712E-01
RMM:   3    -0.413216028205E+03    0.52278E-02   -0.58976E-02  4883   0.990E-02    0.299E-01
RMM:   4    -0.413240809892E+03   -0.24782E-01   -0.33437E-02  5096   0.156E-01    0.700E-01
RMM:   5    -0.413212639782E+03    0.28170E-01   -0.13752E-02  4771   0.118E-01    0.461E-02
RMM:   6    -0.413212713582E+03   -0.73800E-04   -0.22770E-03  5803   0.445E-02    0.289E-02
RMM:   7    -0.413212744178E+03   -0.30596E-04   -0.26103E-04  5679   0.154E-02    0.174E-02
RMM:   8    -0.413212744001E+03    0.17662E-06   -0.44660E-05  4893   0.709E-03    0.871E-03
RMM:   9    -0.413212745817E+03   -0.18161E-05   -0.17243E-05  4288   0.453E-03    0.614E-03
RMM:  10    -0.413212742156E+03    0.36615E-05   -0.26288E-06  2637   0.258E-03    0.343E-03
RMM:  11    -0.413212739975E+03    0.21807E-05   -0.13175E-06  2507   0.179E-03    0.198E-03
RMM:  12    -0.413212734203E+03    0.57719E-05   -0.16128E-06  2527   0.185E-03    0.117E-03
RMM:  13    -0.413212730392E+03    0.38111E-05   -0.50191E-07  2332   0.120E-03    0.785E-04
RMM:  14    -0.413212729057E+03    0.13353E-05   -0.19676E-07  1613   0.785E-04    0.404E-04
RMM:  15    -0.413212720991E+03    0.80656E-05   -0.25022E-07  2052   0.851E-04    0.618E-04
RMM:  16    -0.413212716767E+03    0.42242E-05   -0.90289E-08  1089   0.603E-04    0.504E-04
RMM:  17    -0.413212711706E+03    0.50606E-05   -0.70571E-08  1013   0.595E-04    0.344E-04
RMM:  18    -0.413212707508E+03    0.41976E-05   -0.65541E-08  1277   0.630E-04    0.711E-05
RMM:  19    -0.413212705508E+03    0.20000E-05   -0.36367E-08  1027   0.564E-04    0.120E-04
RMM:  20    -0.413212704890E+03    0.61796E-06   -0.20308E-08   818   0.517E-04
   41 T=    70. E= -.41286758E+03 F= -.41321270E+03 E0= -.41319164E+03  EK= 0.34512E+00 SP= 0.00E+00 SK= 0.00E+00
       N       E                     dE             d eps       ncg     rms          rms(c)
RMM:   1    -0.413237171473E+03   -0.24466E-01   -0.67556E+00  4316   0.924E-01    0.988E-01
RMM:   2    -0.413223877325E+03    0.13294E-01   -0.11163E-01  4313   0.127E-01    0.712E-01
RMM:   3    -0.413218045368E+03    0.58320E-02   -0.50500E-02  4912   0.913E-02    0.237E-01
RMM:   4    -0.413249010877E+03   -0.30966E-01   -0.38746E-02  5114   0.167E-01    0.758E-01
RMM:   5    -0.413215420926E+03    0.33590E-01   -0.15944E-02  4777   0.127E-01    0.489E-02
RMM:   6    -0.413215513490E+03   -0.92564E-04   -0.26852E-03  5801   0.483E-02    0.307E-02
RMM:   7    -0.413215549416E+03   -0.35926E-04   -0.30438E-04  5699   0.163E-02    0.187E-02
RMM:   8    -0.413215550950E+03   -0.15340E-05   -0.44777E-05  4848   0.702E-03    0.898E-03
RMM:   9    -0.413215551982E+03   -0.10321E-05   -0.19136E-05  4402   0.464E-03    0.667E-03
RMM:  10    -0.413215547044E+03    0.49386E-05   -0.33875E-06  2742   0.278E-03    0.359E-03
RMM:  11    -0.413215544417E+03    0.26263E-05   -0.15374E-06  2504   0.195E-03    0.208E-03
RMM:  12    -0.413215537975E+03    0.64428E-05   -0.14742E-06  2494   0.191E-03    0.114E-03
RMM:  13    -0.413215534538E+03    0.34363E-05   -0.48862E-07  2363   0.125E-03    0.757E-04
RMM:  14    -0.413215533481E+03    0.10568E-05   -0.20702E-07  1750   0.818E-04    0.417E-04
RMM:  15    -0.413215527287E+03    0.61949E-05   -0.17090E-07  1881   0.793E-04    0.451E-04
RMM:  16    -0.413215523551E+03    0.37353E-05   -0.64782E-08  1008   0.592E-04    0.334E-04
RMM:  17    -0.413215519299E+03    0.42524E-05   -0.51774E-08  1018   0.587E-04    0.286E-04
RMM:  18    -0.413215515335E+03    0.39639E-05   -0.47752E-08  1064   0.593E-04    0.879E-05
RMM:  19    -0.413215512345E+03    0.29900E-05   -0.40084E-08  1101   0.592E-04    0.754E-05
RMM:  20    -0.413215512021E+03    0.32366E-06   -0.14498E-08   733   0.525E-04
   42 T=    71. E= -.41286765E+03 F= -.41321551E+03 E0= -.41319447E+03  EK= 0.34786E+00 SP= 0.00E+00 SK= 0.00E+00
       N       E                     dE             d eps       ncg     rms          rms(c)
RMM:   1    -0.413233676985E+03   -0.18165E-01   -0.67303E+00  4316   0.917E-01    0.975E-01
RMM:   2    -0.413226394626E+03    0.72824E-02   -0.10058E-01  4390   0.120E-01    0.708E-01
RMM:   3    -0.413221088604E+03    0.53060E-02   -0.56732E-02  4926   0.970E-02    0.289E-01
RMM:   4    -0.413247360969E+03   -0.26272E-01   -0.35708E-02  5104   0.161E-01    0.717E-01
RMM:   5    -0.413217703099E+03    0.29658E-01   -0.14277E-02  4768   0.121E-01    0.476E-02
RMM:   6    -0.413217775396E+03   -0.72297E-04   -0.23538E-03  5773   0.455E-02    0.290E-02
RMM:   7    -0.413217816636E+03   -0.41240E-04   -0.28501E-04  5760   0.159E-02    0.181E-02
RMM:   8    -0.413217815449E+03    0.11872E-05   -0.58020E-05  5036   0.791E-03    0.100E-02
RMM:   9    -0.413217815456E+03   -0.69849E-08   -0.17623E-05  4339   0.481E-03    0.567E-03
RMM:  10    -0.413217813006E+03    0.24494E-05   -0.26776E-06  2633   0.260E-03    0.334E-03
RMM:  11    -0.413217811468E+03    0.15385E-05   -0.12191E-06  2502   0.176E-03    0.193E-03
RMM:  12    -0.413217807170E+03    0.42978E-05   -0.12390E-06  2502   0.171E-03    0.107E-03
RMM:  13    -0.413217803819E+03    0.33505E-05   -0.48142E-07  2291   0.116E-03    0.726E-04
RMM:  14    -0.413217802313E+03    0.15067E-05   -0.19999E-07  1623   0.784E-04    0.350E-04
RMM:  15    -0.413217797696E+03    0.46167E-05   -0.14487E-07  1367   0.725E-04    0.214E-04
RMM:  16    -0.413217793457E+03    0.42394E-05   -0.97700E-08  1253   0.662E-04    0.248E-04
RMM:  17    -0.413217789945E+03    0.35114E-05   -0.67896E-08  1107   0.611E-04    0.214E-04
RMM:  18    -0.413217785877E+03    0.40684E-05   -0.57032E-08  1140   0.603E-04    0.129E-04
RMM:  19    -0.413217783342E+03    0.25349E-05   -0.36828E-08   959   0.567E-04    0.438E-05
RMM:  20    -0.413217782859E+03    0.48332E-06   -0.19356E-08   764   0.530E-04
   43 T=    71. E= -.41286765E+03 F= -.41321778E+03 E0= -.41319677E+03  EK= 0.35013E+00 SP= 0.00E+00 SK= 0.00E+00
       N       E                     dE             d eps       ncg     rms          rms(c)
RMM:   1    -0.413238841144E+03   -0.21058E-01   -0.68910E+00  4316   0.103E+00    0.979E-01
RMM:   2    -0.413227902853E+03    0.10938E-01   -0.10487E-01  4429   0.130E-01    0.718E-01
RMM:   3    -0.413223436045E+03    0.44668E-02   -0.59559E-02  4955   0.103E-01    0.324E-01
RMM:   4    -0.413249201792E+03   -0.25766E-01   -0.38172E-02  5087   0.167E-01    0.726E-01
RMM:   5    -0.413219008799E+03    0.30193E-01   -0.14399E-02  4750   0.122E-01    0.484E-02
RMM:   6    -0.413219068114E+03   -0.59315E-04   -0.23550E-03  5757   0.455E-02    0.280E-02
RMM:   7    -0.413219096640E+03   -0.28526E-04   -0.26343E-04  5687   0.152E-02    0.165E-02
RMM:   8    -0.413219100424E+03   -0.37838E-05   -0.36118E-05  4600   0.638E-03    0.672E-03
RMM:   9    -0.413219101762E+03   -0.13376E-05   -0.81899E-06  3165   0.331E-03    0.425E-03
RMM:  10    -0.413219100498E+03    0.12633E-05   -0.19160E-06  2574   0.202E-03    0.273E-03
RMM:  11    -0.413219099407E+03    0.10909E-05   -0.12825E-06  2509   0.169E-03    0.155E-03
RMM:  12    -0.413219096102E+03    0.33049E-05   -0.96838E-07  2476   0.145E-03    0.874E-04
RMM:  13    -0.413219094135E+03    0.19677E-05   -0.33355E-07  2018   0.968E-04    0.540E-04
RMM:  14    -0.413219092579E+03    0.15554E-05   -0.16810E-07  1355   0.725E-04    0.242E-04
RMM:  15    -0.413219087323E+03    0.52567E-05   -0.18006E-07  1514   0.758E-04    0.244E-04
RMM:  16    -0.413219084506E+03    0.28170E-05   -0.94393E-08  1182   0.641E-04    0.169E-04
RMM:  17    -0.413219081247E+03    0.32586E-05   -0.71721E-08  1158   0.622E-04    0.124E-04
RMM:  18    -0.413219076742E+03    0.45046E-05   -0.69938E-08  1278   0.626E-04    0.692E-05
RMM:  19    -0.413219075531E+03    0.12110E-05   -0.26811E-08   854   0.535E-04    0.356E-05
RMM:  20    -0.413219074875E+03    0.65603E-06   -0.16336E-08   760   0.518E-04
   44 T=    72. E= -.41286746E+03 F= -.41321907E+03 E0= -.41319809E+03  EK= 0.35162E+00 SP= 0.00E+00 SK= 0.00E+00
       N       E                     dE             d eps       ncg     rms          rms(c)
RMM:   1    -0.413239060222E+03   -0.19985E-01   -0.68173E+00  4316   0.103E+00    0.997E-01
RMM:   2    -0.413229169827E+03    0.98904E-02   -0.10521E-01  4458   0.131E-01    0.717E-01
RMM:   3    -0.413225178179E+03    0.39916E-02   -0.55360E-02  4980   0.105E-01    0.313E-01
RMM:   4    -0.413250280851E+03   -0.25103E-01   -0.39498E-02  5084   0.171E-01    0.719E-01
RMM:   5    -0.413220388842E+03    0.29892E-01   -0.13631E-02  4743   0.120E-01    0.495E-02
RMM:   6    -0.413220431586E+03   -0.42743E-04   -0.22877E-03  5739   0.451E-02    0.287E-02
RMM:   7    -0.413220455859E+03   -0.24273E-04   -0.25060E-04  5699   0.148E-02    0.169E-02
RMM:   8    -0.413220461071E+03   -0.52120E-05   -0.38588E-05  4767   0.654E-03    0.721E-03
RMM:   9    -0.413220457787E+03    0.32844E-05   -0.11079E-05  3728   0.380E-03    0.478E-03
RMM:  10    -0.413220456135E+03    0.16514E-05   -0.28974E-06  2688   0.241E-03    0.292E-03
RMM:  11    -0.413220452992E+03    0.31431E-05   -0.11113E-06  2492   0.170E-03    0.165E-03
RMM:  12    -0.413220446943E+03    0.60493E-05   -0.79909E-07  2464   0.140E-03    0.790E-04
RMM:  13    -0.413220442965E+03    0.39779E-05   -0.31885E-07  2036   0.961E-04    0.498E-04
RMM:  14    -0.413220440914E+03    0.20505E-05   -0.15405E-07  1372   0.724E-04    0.246E-04
RMM:  15    -0.413220434083E+03    0.68309E-05   -0.12769E-07  1332   0.710E-04    0.187E-04
RMM:  16    -0.413220429727E+03    0.43561E-05   -0.79816E-08  1188   0.647E-04    0.154E-04
RMM:  17    -0.413220426251E+03    0.34767E-05   -0.57781E-08  1177   0.619E-04    0.111E-04
RMM:  18    -0.413220421761E+03    0.44893E-05   -0.50703E-08  1208   0.606E-04    0.670E-05
RMM:  19    -0.413220419214E+03    0.25470E-05   -0.29077E-08   984   0.555E-04    0.407E-05
RMM:  20    -0.413220418856E+03    0.35843E-06   -0.13481E-08   730   0.512E-04
   45 T=    72. E= -.41286796E+03 F= -.41322042E+03 E0= -.41319945E+03  EK= 0.35246E+00 SP= 0.00E+00 SK= 0.00E+00
       N       E                     dE             d eps       ncg     rms          rms(c)
RMM:   1    -0.413238015231E+03   -0.17596E-01   -0.67677E+00  4316   0.110E+00    0.979E-01
RMM:   2    -0.413228529476E+03    0.94858E-02   -0.10555E-01  4491   0.140E-01    0.710E-01
RMM:   3    -0.413226415798E+03    0.21137E-02   -0.56064E-02  5010   0.119E-01    0.361E-01
RMM:   4    -0.413246413123E+03   -0.19997E-01   -0.39171E-02  5067   0.172E-01    0.682E-01
RMM:   5    -0.413219775346E+03    0.26638E-01   -0.11849E-02  4710   0.115E-01    0.490E-02
RMM:   6    -0.413219792660E+03   -0.17314E-04   -0.19873E-03  5694   0.423E-02    0.274E-02
RMM:   7    -0.413219825886E+03   -0.33226E-04   -0.22131E-04  5716   0.143E-02    0.163E-02
RMM:   8    -0.413219836331E+03   -0.10445E-04   -0.61613E-05  5137   0.809E-03    0.992E-03
RMM:   9    -0.413219829396E+03    0.69353E-05   -0.17189E-05  4299   0.486E-03    0.474E-03
RMM:  10    -0.413219827203E+03    0.21924E-05   -0.28293E-06  2648   0.258E-03    0.295E-03
RMM:  11    -0.413219824549E+03    0.26544E-05   -0.12687E-06  2493   0.180E-03    0.154E-03
RMM:  12    -0.413219819341E+03    0.52076E-05   -0.77507E-07  2452   0.142E-03    0.779E-04
RMM:  13    -0.413219814561E+03    0.47801E-05   -0.33809E-07  2018   0.961E-04    0.368E-04
RMM:  14    -0.413219811883E+03    0.26780E-05   -0.15920E-07  1306   0.715E-04    0.181E-04
RMM:  15    -0.413219805359E+03    0.65240E-05   -0.13473E-07  1273   0.704E-04    0.155E-04
RMM:  16    -0.413219800776E+03    0.45829E-05   -0.93373E-08  1268   0.663E-04    0.132E-04
RMM:  17    -0.413219796524E+03    0.42526E-05   -0.72760E-08  1256   0.631E-04    0.670E-05
RMM:  18    -0.413219792568E+03    0.39555E-05   -0.50279E-08  1123   0.591E-04    0.352E-05
RMM:  19    -0.413219791416E+03    0.11523E-05   -0.28309E-08   878   0.538E-04    0.263E-05
RMM:  20    -0.413219791157E+03    0.25859E-06   -0.15903E-08   719   0.514E-04
   46 T=    72. E= -.41286799E+03 F= -.41321979E+03 E0= -.41319884E+03  EK= 0.35180E+00 SP= 0.00E+00 SK= 0.00E+00
       N       E                     dE             d eps       ncg     rms          rms(c)
RMM:   1    -0.413239351374E+03   -0.19560E-01   -0.68598E+00  4316   0.123E+00    0.967E-01
RMM:   2    -0.413227485446E+03    0.11866E-01   -0.11113E-01  4523   0.155E-01    0.716E-01
RMM:   3    -0.413228573984E+03   -0.10885E-02   -0.60484E-02  5048   0.134E-01    0.446E-01
RMM:   4    -0.413241286994E+03   -0.12713E-01   -0.40508E-02  5037   0.177E-01    0.641E-01
RMM:   5    -0.413218231009E+03    0.23056E-01   -0.10200E-02  4656   0.109E-01    0.486E-02
RMM:   6    -0.413218221017E+03    0.99923E-05   -0.16260E-03  5588   0.390E-02    0.253E-02
RMM:   7    -0.413218249174E+03   -0.28157E-04   -0.19811E-04  5691   0.139E-02    0.159E-02
RMM:   8    -0.413218259762E+03   -0.10588E-04   -0.76593E-05  5145   0.909E-03    0.102E-02
RMM:   9    -0.413218252576E+03    0.71856E-05   -0.13589E-05  4018   0.486E-03    0.420E-03
RMM:  10    -0.413218251228E+03    0.13484E-05   -0.30514E-06  2717   0.248E-03    0.265E-03
RMM:  11    -0.413218249169E+03    0.20593E-05   -0.13502E-06  2497   0.179E-03    0.124E-03
RMM:  12    -0.413218245761E+03    0.34074E-05   -0.76523E-07  2407   0.135E-03    0.640E-04
RMM:  13    -0.413218242463E+03    0.32976E-05   -0.34370E-07  1805   0.926E-04    0.279E-04
RMM:  14    -0.413218239383E+03    0.30809E-05   -0.19158E-07  1372   0.752E-04    0.147E-04
RMM:  15    -0.413218234698E+03    0.46844E-05   -0.16298E-07  1393   0.731E-04    0.118E-04
RMM:  16    -0.413218230912E+03    0.37860E-05   -0.11865E-07  1344   0.673E-04    0.906E-05
RMM:  17    -0.413218225137E+03    0.57750E-05   -0.11147E-07  1452   0.672E-04    0.552E-05
RMM:  18    -0.413218223542E+03    0.15952E-05   -0.46729E-08   903   0.544E-04    0.383E-05
RMM:  19    -0.413218222462E+03    0.10797E-05   -0.30344E-08   836   0.529E-04    0.191E-05
RMM:  20    -0.413218221782E+03    0.67980E-06   -0.18912E-08   728   0.514E-04
   47 T=    71. E= -.41286824E+03 F= -.41321822E+03 E0= -.41319728E+03  EK= 0.34998E+00 SP= 0.00E+00 SK= 0.00E+00
       N       E                     dE             d eps       ncg     rms          rms(c)
RMM:   1    -0.413239234498E+03   -0.21012E-01   -0.67676E+00  4314   0.131E+00    0.980E-01
RMM:   2    -0.413224168690E+03    0.15066E-01   -0.11077E-01  4573   0.164E-01    0.714E-01
RMM:   3    -0.413229449644E+03   -0.52810E-02   -0.58722E-02  5076   0.145E-01    0.502E-01
RMM:   4    -0.413233176305E+03   -0.37267E-02   -0.39084E-02  5008   0.177E-01    0.562E-01
RMM:   5    -0.413215443456E+03    0.17733E-01   -0.72255E-03  4609   0.980E-02    0.486E-02
RMM:   6    -0.413215404115E+03    0.39340E-04   -0.11723E-03  5333   0.340E-02    0.251E-02
RMM:   7    -0.413215425108E+03   -0.20993E-04   -0.15257E-04  5591   0.126E-02    0.140E-02
RMM:   8    -0.413215434055E+03   -0.89467E-05   -0.68880E-05  5214   0.857E-03    0.102E-02
RMM:   9    -0.413215423936E+03    0.10119E-04   -0.13566E-05  4056   0.476E-03    0.388E-03
RMM:  10    -0.413215421316E+03    0.26198E-05   -0.29236E-06  2696   0.246E-03    0.241E-03
RMM:  11    -0.413215417327E+03    0.39890E-05   -0.12967E-06  2483   0.184E-03    0.121E-03
RMM:  12    -0.413215412872E+03    0.44555E-05   -0.58869E-07  2365   0.129E-03    0.668E-04
RMM:  13    -0.413215408717E+03    0.41552E-05   -0.26224E-07  1759   0.886E-04    0.301E-04
RMM:  14    -0.413215403924E+03    0.47925E-05   -0.15278E-07  1348   0.724E-04    0.158E-04
RMM:  15    -0.413215398941E+03    0.49828E-05   -0.10936E-07  1250   0.676E-04    0.119E-04
RMM:  16    -0.413215394467E+03    0.44747E-05   -0.81869E-08  1215   0.641E-04    0.882E-05
RMM:  17    -0.413215387321E+03    0.71455E-05   -0.81313E-08  1428   0.658E-04    0.690E-05
RMM:  18    -0.413215385834E+03    0.14868E-05   -0.29428E-08   817   0.520E-04    0.481E-05
RMM:  19    -0.413215384207E+03    0.16274E-05   -0.22158E-08   800   0.520E-04    0.197E-05
RMM:  20    -0.413215383616E+03    0.59080E-06   -0.14154E-08   672   0.495E-04
   48 T=    71. E= -.41286858E+03 F= -.41321538E+03 E0= -.41319445E+03  EK= 0.34680E+00 SP= 0.00E+00 SK= 0.00E+00
       N       E                     dE             d eps       ncg     rms          rms(c)
RMM:   1    -0.413233931045E+03   -0.18547E-01   -0.66171E+00  4311   0.137E+00    0.965E-01
RMM:   2    -0.413218591944E+03    0.15339E-01   -0.11102E-01  4655   0.169E-01    0.703E-01
RMM:   3    -0.413231020999E+03   -0.12429E-01   -0.60202E-02  5107   0.164E-01    0.604E-01
RMM:   4    -0.413222683543E+03    0.83375E-02   -0.39540E-02  4974   0.181E-01    0.477E-01
RMM:   5    -0.413210065824E+03    0.12618E-01   -0.52717E-03  4571   0.894E-02    0.490E-02
RMM:   6    -0.413209990236E+03    0.75589E-04   -0.68408E-04  4897   0.287E-02    0.251E-02
RMM:   7    -0.413210016646E+03   -0.26410E-04   -0.14076E-04  5703   0.131E-02    0.124E-02
RMM:   8    -0.413210016327E+03    0.31900E-06   -0.42352E-05  5173   0.745E-03    0.854E-03
RMM:   9    -0.413210013148E+03    0.31789E-05   -0.11424E-05  3953   0.410E-03    0.361E-03
RMM:  10    -0.413210009818E+03    0.33293E-05   -0.18451E-06  2549   0.222E-03    0.233E-03
RMM:  11    -0.413210004856E+03    0.49627E-05   -0.11320E-06  2465   0.176E-03    0.141E-03
RMM:  12    -0.413210001246E+03    0.36101E-05   -0.48041E-07  2379   0.120E-03    0.772E-04
RMM:  13    -0.413209996742E+03    0.45033E-05   -0.26350E-07  1839   0.888E-04    0.369E-04
RMM:  14    -0.413209990196E+03    0.65465E-05   -0.19914E-07  1718   0.785E-04    0.427E-04
RMM:  15    -0.413209985812E+03    0.43840E-05   -0.87403E-08  1005   0.603E-04    0.196E-04
RMM:  16    -0.413209981721E+03    0.40905E-05   -0.70454E-08  1081   0.609E-04    0.996E-05
RMM:  17    -0.413209977297E+03    0.44245E-05   -0.56558E-08  1096   0.601E-04    0.105E-04
RMM:  18    -0.413209974402E+03    0.28950E-05   -0.38822E-08   979   0.565E-04    0.927E-05
RMM:  19    -0.413209971265E+03    0.31370E-05   -0.31331E-08   947   0.554E-04    0.541E-05
RMM:  20    -0.413209969853E+03    0.14119E-05   -0.18429E-08   738   0.507E-04    0.293E-05
RMM:  21    -0.413209969501E+03    0.35183E-06   -0.94070E-09   594   0.483E-04
   49 T=    70. E= -.41286835E+03 F= -.41320997E+03 E0= -.41318904E+03  EK= 0.34162E+00 SP= 0.00E+00 SK= 0.00E+00
       N       E                     dE             d eps       ncg     rms          rms(c)
RMM:   1    -0.413229855678E+03   -0.19886E-01   -0.65810E+00  4311   0.153E+00    0.933E-01
RMM:   2    -0.413212161077E+03    0.17695E-01   -0.11779E-01  4764   0.181E-01    0.700E-01
RMM:   3    -0.413234716704E+03   -0.22556E-01   -0.66880E-02  5115   0.189E-01    0.732E-01
RMM:   4    -0.413213477132E+03    0.21240E-01   -0.44240E-02  4939   0.195E-01    0.433E-01
RMM:   5    -0.413203484180E+03    0.99930E-02   -0.54195E-03  4618   0.925E-02    0.525E-02
RMM:   6    -0.413203367800E+03    0.11638E-03   -0.51977E-04  4748   0.283E-02    0.254E-02
RMM:   7    -0.413203405374E+03   -0.37573E-04   -0.20791E-04  5656   0.161E-02    0.183E-02
RMM:   8    -0.413203391931E+03    0.13443E-04   -0.53238E-05  5013   0.849E-03    0.886E-03
RMM:   9    -0.413203390957E+03    0.97414E-06   -0.13100E-05  4257   0.484E-03    0.396E-03
RMM:  10    -0.413203388225E+03    0.27322E-05   -0.20275E-06  2624   0.230E-03    0.245E-03
RMM:  11    -0.413203384070E+03    0.41550E-05   -0.97766E-07  2494   0.164E-03    0.157E-03
RMM:  12    -0.413203380935E+03    0.31347E-05   -0.41666E-07  2114   0.104E-03    0.794E-04
RMM:  13    -0.413203376866E+03    0.40697E-05   -0.36372E-07  2124   0.955E-04    0.360E-04
RMM:  14    -0.413203373257E+03    0.36088E-05   -0.20056E-07  1497   0.748E-04    0.277E-04
RMM:  15    -0.413203367880E+03    0.53771E-05   -0.15726E-07  1245   0.694E-04    0.141E-04
RMM:  16    -0.413203364605E+03    0.32749E-05   -0.97841E-08  1195   0.633E-04    0.815E-05
RMM:  17    -0.413203359154E+03    0.54512E-05   -0.10373E-07  1457   0.664E-04    0.943E-05
RMM:  18    -0.413203357248E+03    0.19051E-05   -0.49218E-08   993   0.540E-04    0.670E-05
RMM:  19    -0.413203355378E+03    0.18700E-05   -0.33709E-08   905   0.524E-04    0.320E-05
RMM:  20    -0.413203354273E+03    0.11059E-05   -0.22015E-08   789   0.502E-04    0.183E-05
RMM:  21    -0.413203354073E+03    0.19920E-06   -0.11567E-08   667   0.483E-04
   50 T=    68. E= -.41286865E+03 F= -.41320335E+03 E0= -.41318243E+03  EK= 0.33470E+00 SP= 0.00E+00 SK= 0.00E+00
       N       E                     dE             d eps       ncg     rms          rms(c)
RMM:   1    -0.413220740303E+03   -0.17386E-01   -0.64028E+00  4310   0.159E+00    0.930E-01
RMM:   2    -0.413202179899E+03    0.18560E-01   -0.11910E-01  4822   0.193E-01    0.694E-01
RMM:   3    -0.413233614669E+03   -0.31435E-01   -0.68992E-02  5126   0.205E-01    0.823E-01
RMM:   4    -0.413201028849E+03    0.32586E-01   -0.46533E-02  4919   0.202E-01    0.370E-01
RMM:   5    -0.413193783590E+03    0.72453E-02   -0.52036E-03  4823   0.930E-02    0.596E-02
RMM:   6    -0.413193610496E+03    0.17309E-03   -0.48328E-04  4616   0.292E-02    0.275E-02
RMM:   7    -0.413193644682E+03   -0.34187E-04   -0.22530E-04  5618   0.168E-02    0.211E-02
RMM:   8    -0.413193631990E+03    0.12693E-04   -0.59872E-05  4999   0.935E-03    0.996E-03
RMM:   9    -0.413193628783E+03    0.32073E-05   -0.15877E-05  4390   0.513E-03    0.407E-03
RMM:  10    -0.413193625093E+03    0.36891E-05   -0.26994E-06  2719   0.249E-03    0.256E-03
RMM:  11    -0.413193619783E+03    0.53102E-05   -0.90464E-07  2495   0.166E-03    0.143E-03
RMM:  12    -0.413193615975E+03    0.38084E-05   -0.44061E-07  2097   0.107E-03    0.654E-04
[...]
RMM:   4    -0.413173238761E+03   -0.12370E-02   -0.32895E-02  5027   0.159E-01    0.487E-01
RMM:   5    -0.413160179832E+03    0.13059E-01   -0.53292E-03  4552   0.852E-02    0.534E-02
RMM:   6    -0.413160115111E+03    0.64721E-04   -0.94021E-04  5120   0.319E-02    0.294E-02
RMM:   7    -0.413160138545E+03   -0.23435E-04   -0.21878E-04  5790   0.145E-02    0.168E-02
RMM:   8    -0.413160140821E+03   -0.22756E-05   -0.42431E-05  5110   0.778E-03    0.711E-03
RMM:   9    -0.413160144088E+03   -0.32669E-05   -0.57190E-06  3097   0.332E-03    0.348E-03
RMM:  10    -0.413160147690E+03   -0.36016E-05   -0.10725E-06  2502   0.187E-03    0.212E-03
RMM:  11    -0.413160155691E+03   -0.80013E-05   -0.12034E-06  2493   0.162E-03    0.123E-03
RMM:  12    -0.413160158124E+03   -0.24329E-05   -0.47338E-07  2198   0.110E-03    0.573E-04
RMM:  13    -0.413160162488E+03   -0.43638E-05   -0.46948E-07  2079   0.972E-04    0.325E-04
RMM:  14    -0.413160166202E+03   -0.37143E-05   -0.41254E-07  1629   0.825E-04    0.240E-04
RMM:  15    -0.413160168636E+03   -0.24345E-05   -0.30426E-07  1388   0.746E-04    0.174E-04
RMM:  16    -0.413160169952E+03   -0.13152E-05   -0.22256E-07  1282   0.683E-04    0.139E-04
RMM:  17    -0.413160171150E+03   -0.11982E-05   -0.32710E-07  1374   0.723E-04    0.747E-05
RMM:  18    -0.413160171099E+03    0.51015E-07   -0.78054E-08   835   0.550E-04
  133 T=    59. E= -.41286832E+03 F= -.41316017E+03 E0= -.41313938E+03  EK= 0.29185E+00 SP= 0.00E+00 SK= 0.00E+00
       N       E                     dE             d eps       ncg     rms          rms(c)
RMM:   1    -0.413165772370E+03   -0.56012E-02   -0.70458E+00  4268   0.661E-01    0.888E-01
RMM:   2    -0.413165873518E+03   -0.10115E-03   -0.87640E-02  4304   0.827E-02    0.647E-01
RMM:   3    -0.413165023578E+03    0.84994E-03   -0.34512E-02  5072   0.843E-02    0.305E-01
RMM:   4    -0.413183578826E+03   -0.18555E-01   -0.35142E-02  5076   0.160E-01    0.637E-01
RMM:   5    -0.413160326395E+03    0.23252E-01   -0.10156E-02  4697   0.109E-01    0.556E-02
RMM:   6    -0.413160305609E+03    0.20786E-04   -0.18431E-03  5440   0.422E-02    0.311E-02
RMM:   7    -0.413160325598E+03   -0.19989E-04   -0.32959E-04  5852   0.165E-02    0.191E-02
RMM:   8    -0.413160325119E+03    0.47885E-06   -0.55851E-05  5199   0.871E-03    0.848E-03
RMM:   9    -0.413160324848E+03    0.27163E-06   -0.79207E-06  3267   0.358E-03
  134 T=    59. E= -.41286825E+03 F= -.41316032E+03 E0= -.41313954E+03  EK= 0.29207E+00 SP= 0.00E+00 SK= 0.00E+00
       N       E                     dE             d eps       ncg     rms          rms(c)
RMM:   1    -0.413165945567E+03   -0.56204E-02   -0.70238E+00  4272   0.664E-01    0.891E-01
RMM:   2    -0.413165844463E+03    0.10110E-03   -0.87651E-02  4321   0.829E-02    0.642E-01
RMM:   3    -0.413169606986E+03   -0.37625E-02   -0.35852E-02  5145   0.103E-01    0.409E-01
RMM:   4    -0.413175525462E+03   -0.59185E-02   -0.32648E-02  5042   0.157E-01    0.515E-01
RMM:   5    -0.413160498592E+03    0.15027E-01   -0.58305E-03  4609   0.893E-02    0.571E-02
RMM:   6    -0.413160409624E+03    0.88967E-04   -0.11380E-03  5174   0.348E-02    0.309E-02
RMM:   7    -0.413160421982E+03   -0.12358E-04   -0.26391E-04  5876   0.159E-02    0.185E-02
RMM:   8    -0.413160417928E+03    0.40548E-05   -0.50412E-05  5144   0.852E-03    0.809E-03
RMM:   9    -0.413160416623E+03    0.13046E-05   -0.81746E-06  3573   0.380E-03    0.371E-03
RMM:  10    -0.413160417305E+03   -0.68203E-06   -0.12427E-06  2513   0.197E-03
  135 T=    59. E= -.41286817E+03 F= -.41316042E+03 E0= -.41313965E+03  EK= 0.29224E+00 SP= 0.00E+00 SK= 0.00E+00
       N       E                     dE             d eps       ncg     rms          rms(c)
RMM:   1    -0.413166143092E+03   -0.57265E-02   -0.70401E+00  4268   0.670E-01    0.875E-01
RMM:   2    -0.413166636310E+03   -0.49322E-03   -0.87565E-02  4306   0.831E-02    0.642E-01
RMM:   3    -0.413164316312E+03    0.23200E-02   -0.33435E-02  5054   0.765E-02    0.261E-01
RMM:   4    -0.413187802825E+03   -0.23487E-01   -0.35471E-02  5099   0.160E-01    0.680E-01
RMM:   5    -0.413161097557E+03    0.26705E-01   -0.12221E-02  4752   0.115E-01    0.565E-02
RMM:   6    -0.413161089005E+03    0.85528E-05   -0.21131E-03  5547   0.454E-02    0.311E-02
RMM:   7    -0.413161105197E+03   -0.16193E-04   -0.36534E-04  5923   0.171E-02    0.191E-02
RMM:   8    -0.413161106266E+03   -0.10689E-05   -0.58948E-05  5261   0.868E-03    0.859E-03
RMM:   9    -0.413161107122E+03   -0.85576E-06   -0.86653E-06  3319   0.360E-03
  136 T=    60. E= -.41286847E+03 F= -.41316111E+03 E0= -.41314035E+03  EK= 0.29264E+00 SP= 0.00E+00 SK= 0.00E+00
       N       E                     dE             d eps       ncg     rms          rms(c)
RMM:   1    -0.413166193617E+03   -0.50874E-02   -0.71027E+00  4269   0.674E-01    0.884E-01
RMM:   2    -0.413166399230E+03   -0.20561E-03   -0.88266E-02  4315   0.828E-02    0.648E-01
RMM:   3    -0.413168981968E+03   -0.25827E-02   -0.36837E-02  5133   0.989E-02    0.387E-01
RMM:   4    -0.413178680640E+03   -0.96987E-02   -0.34012E-02  5053   0.160E-01    0.559E-01
RMM:   5    -0.413161078665E+03    0.17602E-01   -0.73548E-03  4650   0.963E-02    0.581E-02
RMM:   6    -0.413161001313E+03    0.77353E-04   -0.13510E-03  5239   0.372E-02    0.299E-02
RMM:   7    -0.413161026773E+03   -0.25461E-04   -0.29491E-04  5958   0.161E-02    0.185E-02
RMM:   8    -0.413161025516E+03    0.12572E-05   -0.53698E-05  5213   0.858E-03    0.822E-03
RMM:   9    -0.413161026444E+03   -0.92780E-06   -0.85470E-06  3622   0.387E-03
  137 T=    60. E= -.41286816E+03 F= -.41316103E+03 E0= -.41314028E+03  EK= 0.29287E+00 SP= 0.00E+00 SK= 0.00E+00
       N       E                     dE             d eps       ncg     rms          rms(c)
RMM:   1    -0.413166906813E+03   -0.58813E-02   -0.70858E+00  4275   0.677E-01    0.894E-01
RMM:   2    -0.413166571807E+03    0.33501E-03   -0.88526E-02  4317   0.818E-02    0.644E-01
RMM:   3    -0.413167610891E+03   -0.10391E-02   -0.33225E-02  5132   0.888E-02    0.337E-01
RMM:   4    -0.413181479147E+03   -0.13868E-01   -0.34290E-02  5068   0.159E-01    0.589E-01
RMM:   5    -0.413161561876E+03    0.19917E-01   -0.82539E-03  4694   0.100E-01    0.591E-02
RMM:   6    -0.413161477960E+03    0.83916E-04   -0.15282E-03  5318   0.396E-02    0.312E-02
RMM:   7    -0.413161496912E+03   -0.18952E-04   -0.31571E-04  5986   0.166E-02    0.189E-02
RMM:   8    -0.413161490784E+03    0.61281E-05   -0.55103E-05  5253   0.874E-03    0.839E-03
RMM:   9    -0.413161488809E+03    0.19745E-05   -0.83724E-06  3458   0.376E-03    0.388E-03
RMM:  10    -0.413161489179E+03   -0.36955E-06   -0.15235E-06  2546   0.204E-03
  138 T=    60. E= -.41286823E+03 F= -.41316149E+03 E0= -.41314075E+03  EK= 0.29326E+00 SP= 0.00E+00 SK= 0.00E+00
       N       E                     dE             d eps       ncg     rms          rms(c)
RMM:   1    -0.413166867846E+03   -0.53790E-02   -0.70726E+00  4270   0.683E-01    0.876E-01
RMM:   2    -0.413167143041E+03   -0.27519E-03   -0.88039E-02  4300   0.817E-02    0.640E-01
RMM:   3    -0.413163524626E+03    0.36184E-02   -0.31095E-02  4983   0.627E-02    0.189E-01
RMM:   4    -0.413188738239E+03   -0.25214E-01   -0.30539E-02  5115   0.148E-01    0.679E-01
RMM:   5    -0.413161951544E+03    0.26787E-01   -0.12792E-02  4783   0.114E-01    0.544E-02
RMM:   6    -0.413161970487E+03   -0.18943E-04   -0.22318E-03  5627   0.462E-02    0.322E-02
RMM:   7    -0.413161987578E+03   -0.17091E-04   -0.37134E-04  5827   0.173E-02    0.190E-02
RMM:   8    -0.413161985809E+03    0.17686E-05   -0.56368E-05  5257   0.834E-03    0.861E-03
RMM:   9    -0.413161984966E+03    0.84306E-06   -0.90137E-06  3316   0.349E-03
  139 T=    60. E= -.41286831E+03 F= -.41316198E+03 E0= -.41314126E+03  EK= 0.29367E+00 SP= 0.00E+00 SK= 0.00E+00
       N       E                     dE             d eps       ncg     rms          rms(c)
RMM:   1    -0.413166887730E+03   -0.49019E-02   -0.71611E+00  4266   0.688E-01    0.881E-01
RMM:   2    -0.413167351208E+03   -0.46348E-03   -0.88707E-02  4312   0.830E-02    0.648E-01
RMM:   3    -0.413167632221E+03   -0.28101E-03   -0.35208E-02  5117   0.888E-02    0.334E-01
RMM:   4    -0.413183884456E+03   -0.16252E-01   -0.35398E-02  5067   0.161E-01    0.620E-01
RMM:   5    -0.413161987814E+03    0.21897E-01   -0.96134E-03  4710   0.107E-01    0.602E-02
RMM:   6    -0.413161898897E+03    0.88917E-04   -0.16676E-03  5340   0.412E-02    0.300E-02
RMM:   7    -0.413161930605E+03   -0.31708E-04   -0.34574E-04  5995   0.170E-02    0.192E-02
RMM:   8    -0.413161930763E+03   -0.15850E-06   -0.64181E-05  5275   0.908E-03    0.883E-03
RMM:   9    -0.413161930939E+03   -0.17525E-06   -0.99474E-06  3764   0.406E-03
  140 T=    60. E= -.41286800E+03 F= -.41316193E+03 E0= -.41314122E+03  EK= 0.29393E+00 SP= 0.00E+00 SK= 0.00E+00
       N       E                     dE             d eps       ncg     rms          rms(c)
RMM:   1    -0.413168018027E+03   -0.60873E-02   -0.71478E+00  4277   0.694E-01    0.895E-01
RMM:   2    -0.413167963217E+03    0.54810E-04   -0.88865E-02  4304   0.846E-02    0.645E-01
RMM:   3    -0.413166327604E+03    0.16356E-02   -0.31170E-02  5088   0.770E-02    0.263E-01
RMM:   4    -0.413189031349E+03   -0.22704E-01   -0.36396E-02  5085   0.162E-01    0.672E-01
RMM:   5    -0.413162784899E+03    0.26246E-01   -0.11684E-02  4740   0.114E-01    0.604E-02
RMM:   6    -0.413162729768E+03    0.55131E-04   -0.20818E-03  5493   0.453E-02    0.316E-02
RMM:   7    -0.413162758248E+03   -0.28481E-04   -0.37189E-04  6009   0.170E-02    0.190E-02
RMM:   8    -0.413162753434E+03    0.48138E-05   -0.60058E-05  5308   0.872E-03    0.860E-03
RMM:   9    -0.413162750627E+03    0.28069E-05   -0.86022E-06  3397   0.363E-03    0.407E-03
RMM:  10    -0.413162750538E+03    0.89571E-07   -0.20161E-06  2587   0.212E-03
  141 T=    60. E= -.41286834E+03 F= -.41316275E+03 E0= -.41314205E+03  EK= 0.29441E+00 SP= 0.00E+00 SK= 0.00E+00
       N       E                     dE             d eps       ncg     rms          rms(c)
RMM:   1    -0.413167848863E+03   -0.50982E-02   -0.71191E+00  4274   0.694E-01    0.879E-01
RMM:   2    -0.413168198139E+03   -0.34928E-03   -0.88464E-02  4295   0.839E-02    0.640E-01
RMM:   3    -0.413163723497E+03    0.44746E-02   -0.29599E-02  4827   0.570E-02    0.141E-01
RMM:   4    -0.413178676516E+03   -0.14953E-01   -0.16606E-02  5120   0.110E-01    0.523E-01
RMM:   5    -0.413162994597E+03    0.15682E-01   -0.77324E-03  4822   0.872E-02    0.482E-02
RMM:   6    -0.413163001586E+03   -0.69887E-05   -0.14588E-03  5626   0.378E-02    0.327E-02
RMM:   7    -0.413162993820E+03    0.77658E-05   -0.29299E-04  5617   0.156E-02    0.175E-02
RMM:   8    -0.413162991168E+03    0.26521E-05   -0.42027E-05  5101   0.725E-03    0.815E-03
RMM:   9    -0.413162990167E+03    0.10008E-05   -0.61302E-06  3011   0.292E-03    0.434E-03
RMM:  10    -0.413162990492E+03   -0.32418E-06   -0.18342E-06  2545   0.208E-03
  142 T=    60. E= -.41286827E+03 F= -.41316299E+03 E0= -.41314230E+03  EK= 0.29472E+00 SP= 0.00E+00 SK= 0.00E+00
       N       E                     dE             d eps       ncg     rms          rms(c)
RMM:   1    -0.413168029307E+03   -0.50391E-02   -0.72124E+00  4280   0.701E-01    0.879E-01
RMM:   2    -0.413168775122E+03   -0.74581E-03   -0.89491E-02  4295   0.858E-02    0.647E-01
RMM:   3    -0.413164745652E+03    0.40295E-02   -0.32157E-02  4926   0.670E-02    0.195E-01
RMM:   4    -0.413189252260E+03   -0.24507E-01   -0.29304E-02  5113   0.145E-01    0.670E-01
RMM:   5    -0.413163236651E+03    0.26016E-01   -0.12504E-02  4789   0.112E-01    0.541E-02
RMM:   6    -0.413163248436E+03   -0.11784E-04   -0.21752E-03  5646   0.455E-02    0.317E-02
RMM:   7    -0.413163264411E+03   -0.15975E-04   -0.36413E-04  5857   0.167E-02    0.182E-02
RMM:   8    -0.413163263657E+03    0.75363E-06   -0.50619E-05  5209   0.783E-03    0.813E-03
RMM:   9    -0.413163263910E+03   -0.25320E-06   -0.83264E-06  3271   0.334E-03
  143 T=    60. E= -.41286812E+03 F= -.41316326E+03 E0= -.41314258E+03  EK= 0.29514E+00 SP= 0.00E+00 SK= 0.00E+00
       N       E                     dE             d eps       ncg     rms          rms(c)
RMM:   1    -0.413169131195E+03   -0.58675E-02   -0.72115E+00  4268   0.702E-01    0.893E-01
RMM:   2    -0.413169261875E+03   -0.13068E-03   -0.89667E-02  4306   0.855E-02    0.647E-01
RMM:   3    -0.413166547239E+03    0.27146E-02   -0.30213E-02  5045   0.708E-02    0.220E-01
RMM:   4    -0.413193465308E+03   -0.26918E-01   -0.36316E-02  5105   0.161E-01    0.709E-01
RMM:   5    -0.413164173715E+03    0.29292E-01   -0.13583E-02  4780   0.119E-01    0.612E-02
RMM:   6    -0.413164131353E+03    0.42362E-04   -0.23082E-03  5535   0.477E-02    0.318E-02
RMM:   7    -0.413164157270E+03   -0.25917E-04   -0.40050E-04  6014   0.176E-02    0.192E-02
RMM:   8    -0.413164153018E+03    0.42516E-05   -0.68464E-05  5338   0.905E-03    0.916E-03
RMM:   9    -0.413164149621E+03    0.33978E-05   -0.96251E-06  3475   0.382E-03    0.417E-03
RMM:  10    -0.413164149348E+03    0.27288E-06   -0.23619E-06  2625   0.221E-03
  144 T=    60. E= -.41286837E+03 F= -.41316415E+03 E0= -.41314347E+03  EK= 0.29578E+00 SP= 0.00E+00 SK= 0.00E+00
       N       E                     dE             d eps       ncg     rms          rms(c)
RMM:   1    -0.413169057388E+03   -0.49078E-02   -0.71885E+00  4282   0.707E-01    0.884E-01
RMM:   2    -0.413169309152E+03   -0.25176E-03   -0.89376E-02  4295   0.845E-02    0.641E-01
RMM:   3    -0.413164651883E+03    0.46573E-02   -0.28495E-02  4639   0.522E-02    0.112E-01
RMM:   4    -0.413166824292E+03   -0.21724E-02   -0.30077E-03  5123   0.514E-02    0.215E-01
RMM:   5    -0.413164275966E+03    0.25483E-02   -0.13345E-03  4844   0.369E-02    0.437E-02
RMM:   6    -0.413164279914E+03   -0.39480E-05   -0.51003E-04  5405   0.236E-02    0.320E-02
RMM:   7    -0.413164249981E+03    0.29933E-04   -0.18467E-04  4999   0.130E-02    0.167E-02
RMM:   8    -0.413164244816E+03    0.51647E-05   -0.23491E-05  4650   0.550E-03    0.732E-03
RMM:   9    -0.413164244519E+03    0.29747E-06   -0.61325E-06  2679   0.242E-03
  145 T=    60. E= -.41286802E+03 F= -.41316424E+03 E0= -.41314358E+03  EK= 0.29622E+00 SP= 0.00E+00 SK= 0.00E+00
       N       E                     dE             d eps       ncg     rms          rms(c)
RMM:   1    -0.413169443743E+03   -0.51989E-02   -0.72692E+00  4266   0.713E-01    0.878E-01
RMM:   2    -0.413170319981E+03   -0.87624E-03   -0.89942E-02  4294   0.856E-02    0.646E-01
RMM:   3    -0.413165459895E+03    0.48601E-02   -0.30848E-02  4540   0.545E-02    0.138E-01
RMM:   4    -0.413165996022E+03   -0.53613E-03   -0.17766E-03  5079   0.408E-02    0.143E-01
RMM:   5    -0.413164965455E+03    0.10306E-02   -0.58662E-04  4840   0.252E-02    0.424E-02
RMM:   6    -0.413164967349E+03   -0.18946E-05   -0.38711E-04  5305   0.204E-02    0.306E-02
RMM:   7    -0.413164956829E+03    0.10520E-04   -0.17047E-04  4852   0.122E-02    0.172E-02
RMM:   8    -0.413164952432E+03    0.43970E-05   -0.18432E-05  4372   0.496E-03    0.734E-03
RMM:   9    -0.413164953966E+03   -0.15342E-05   -0.83136E-06  2626   0.266E-03    0.231E-03
RMM:  10    -0.413164956046E+03   -0.20797E-05   -0.14771E-06  2497   0.184E-03    0.106E-03
RMM:  11    -0.413164957812E+03   -0.17657E-05   -0.85336E-07  2440   0.141E-03    0.667E-04
RMM:  12    -0.413164958210E+03   -0.39760E-06   -0.36703E-07  2022   0.968E-04
  146 T=    60. E= -.41286809E+03 F= -.41316496E+03 E0= -.41314430E+03  EK= 0.29687E+00 SP= 0.00E+00 SK= 0.00E+00
       N       E                     dE             d eps       ncg     rms          rms(c)
RMM:   1    -0.413170456768E+03   -0.54990E-02   -0.72954E+00  4264   0.720E-01    0.891E-01
RMM:   2    -0.413170725532E+03   -0.26876E-03   -0.90326E-02  4296   0.859E-02    0.648E-01
RMM:   3    -0.413165959487E+03    0.47660E-02   -0.29063E-02  4550   0.516E-02    0.115E-01
RMM:   4    -0.413165622701E+03    0.33679E-03   -0.65837E-04  4852   0.279E-02    0.491E-02
RMM:   5    -0.413165713960E+03   -0.91260E-04   -0.27841E-04  4951   0.165E-02    0.614E-02
RMM:   6    -0.413165613367E+03    0.10059E-03   -0.26262E-04  5234   0.161E-02    0.355E-02
RMM:   7    -0.413165568117E+03    0.45250E-04   -0.18490E-04  4798   0.131E-02    0.175E-02
RMM:   8    -0.413165563238E+03    0.48790E-05   -0.19095E-05  4211   0.483E-03    0.759E-03
RMM:   9    -0.413165563885E+03   -0.64702E-06   -0.11034E-05  2536   0.261E-03    0.249E-03
RMM:  10    -0.413165563117E+03    0.76785E-06   -0.10837E-06  2473   0.152E-03
  147 T=    61. E= -.41286819E+03 F= -.41316556E+03 E0= -.41314491E+03  EK= 0.29737E+00 SP= 0.00E+00 SK= 0.00E+00
       N       E                     dE             d eps       ncg     rms          rms(c)
RMM:   1    -0.413170520654E+03   -0.49568E-02   -0.72806E+00  4264   0.719E-01    0.890E-01
RMM:   2    -0.413170817720E+03   -0.29707E-03   -0.90419E-02  4290   0.869E-02    0.643E-01
RMM:   3    -0.413166144067E+03    0.46737E-02   -0.27775E-02  4589   0.509E-02    0.103E-01
RMM:   4    -0.413167601125E+03   -0.14571E-02   -0.22542E-03  5150   0.444E-02    0.183E-01
RMM:   5    -0.413165834859E+03    0.17663E-02   -0.96110E-04  4844   0.314E-02    0.438E-02
RMM:   6    -0.413165836291E+03   -0.14322E-05   -0.47677E-04  5344   0.225E-02    0.325E-02
RMM:   7    -0.413165803734E+03    0.32557E-04   -0.17959E-04  4898   0.127E-02    0.169E-02
RMM:   8    -0.413165798695E+03    0.50388E-05   -0.21596E-05  4532   0.508E-03    0.705E-03
RMM:   9    -0.413165798273E+03    0.42241E-06   -0.68984E-06  2676   0.261E-03
  148 T=    61. E= -.41286805E+03 F= -.41316580E+03 E0= -.41314515E+03  EK= 0.29775E+00 SP= 0.00E+00 SK= 0.00E+00
       N       E                     dE             d eps       ncg     rms          rms(c)
RMM:   1    -0.413171060413E+03   -0.52617E-02   -0.73277E+00  4265   0.724E-01    0.877E-01
RMM:   2    -0.413172024179E+03   -0.96377E-03   -0.90792E-02  4293   0.871E-02    0.645E-01
RMM:   3    -0.413167578648E+03    0.44455E-02   -0.29872E-02  4816   0.578E-02    0.146E-01
RMM:   4    -0.413181892392E+03   -0.14314E-01   -0.16144E-02  5124   0.109E-01    0.514E-01
RMM:   5    -0.413166812587E+03    0.15080E-01   -0.73841E-03  4829   0.847E-02    0.490E-02
RMM:   6    -0.413166823458E+03   -0.10871E-04   -0.14079E-03  5630   0.364E-02    0.320E-02
RMM:   7    -0.413166812259E+03    0.11199E-04   -0.28626E-04  5643   0.155E-02    0.173E-02
RMM:   8    -0.413166809961E+03    0.22978E-05   -0.40999E-05  5161   0.711E-03    0.740E-03
RMM:   9    -0.413166809558E+03    0.40271E-06   -0.63163E-06  3070   0.302E-03
  149 T=    61. E= -.41286838E+03 F= -.41316681E+03 E0= -.41314617E+03  EK= 0.29843E+00 SP= 0.00E+00 SK= 0.00E+00
       N       E                     dE             d eps       ncg     rms          rms(c)
RMM:   1    -0.413171676112E+03   -0.48662E-02   -0.73885E+00  4267   0.727E-01    0.888E-01
RMM:   2    -0.413172521427E+03   -0.84532E-03   -0.91486E-02  4301   0.887E-02    0.649E-01
RMM:   3    -0.413169048695E+03    0.34727E-02   -0.30299E-02  5005   0.689E-02    0.197E-01
RMM:   4    -0.413196877256E+03   -0.27829E-01   -0.34746E-02  5102   0.157E-01    0.713E-01
RMM:   5    -0.413167206136E+03    0.29671E-01   -0.13924E-02  4800   0.119E-01    0.623E-02
RMM:   6    -0.413167201668E+03    0.44678E-05   -0.24035E-03  5592   0.481E-02    0.316E-02
RMM:   7    -0.413167221160E+03   -0.19492E-04   -0.41676E-04  6030   0.177E-02    0.192E-02
RMM:   8    -0.413167217406E+03    0.37541E-05   -0.70099E-05  5371   0.922E-03    0.890E-03
RMM:   9    -0.413167215004E+03    0.24017E-05   -0.10246E-05  3532   0.389E-03    0.406E-03
RMM:  10    -0.413167215087E+03   -0.82906E-07   -0.25816E-06  2626   0.232E-03
  150 T=    61. E= -.41286829E+03 F= -.41316722E+03 E0= -.41314658E+03  EK= 0.29892E+00 SP= 0.00E+00 SK= 0.00E+00
