       N       E                     dE             d eps       ncg     rms          rms(c)
RMM:   1     0.220180767951E+04    0.22018E+04   -0.52440E+04  2132   0.654E+02
RMM:   2     0.706005309709E+03   -0.14958E+04   -0.16264E+04  2132   0.177E+02
RMM:   3     0.138086237417E+03   -0.56792E+03   -0.65723E+03  2132   0.117E+02
RMM:   4    -0.159198546917E+03   -0.29728E+03   -0.27860E+03  2132   0.936E+01
RMM:   5    -0.287440090194E+03   -0.12824E+03   -0.11445E+03  2132   0.595E+01
RMM:   6    -0.349946797485E+03   -0.62507E+02   -0.55209E+02  2132   0.423E+01
RMM:   7    -0.382807315031E+03   -0.32861E+02   -0.30413E+02  2132   0.293E+01
RMM:   8    -0.404260181942E+03   -0.21453E+02   -0.18393E+02  2132   0.233E+01
RMM:   9    -0.435987306715E+03   -0.31727E+02   -0.30647E+02  6096   0.173E+01
RMM:  10    -0.441286948346E+03   -0.52996E+01   -0.62982E+01  6395   0.540E+00
RMM:  11    -0.442525272693E+03   -0.12383E+01   -0.11248E+01  6223   0.174E+00
RMM:  12    -0.442896603975E+03   -0.37133E+00   -0.27619E+00  6366   0.603E-01    0.134E+02
RMM:  13    -0.425564520217E+03    0.17332E+02   -0.80732E+01  4671   0.119E+01    0.712E+01
RMM:  14    -0.499094045385E+03   -0.73530E+02   -0.53741E+02  5419   0.232E+01    0.306E+01
RMM:  15    -0.416277261933E+03    0.82817E+02   -0.20055E+02  5096   0.163E+01    0.726E+00
RMM:  16    -0.414021395477E+03    0.22559E+01   -0.39523E+01  6086   0.612E+00    0.429E+00
RMM:  17    -0.413213753403E+03    0.80764E+00   -0.25260E+00  5399   0.189E+00    0.244E+00
RMM:  18    -0.413176710820E+03    0.37043E-01   -0.76336E-01  5976   0.900E-01    0.169E+00
RMM:  19    -0.413169657275E+03    0.70535E-02   -0.27940E-01  5703   0.569E-01    0.886E-01
RMM:  20    -0.413188220643E+03   -0.18563E-01   -0.26998E-01  5587   0.542E-01    0.607E-01
RMM:  21    -0.413168627823E+03    0.19593E-01   -0.34690E-02  5002   0.237E-01    0.284E-01
RMM:  22    -0.413165588160E+03    0.30397E-02   -0.20953E-02  5924   0.136E-01    0.135E-01
RMM:  23    -0.413164635780E+03    0.95238E-03   -0.54657E-03  6013   0.654E-02    0.849E-02
RMM:  24    -0.413163330190E+03    0.13056E-02   -0.16954E-03  5325   0.419E-02    0.489E-02
RMM:  25    -0.413162820053E+03    0.51014E-03   -0.87728E-04  5108   0.285E-02    0.398E-02
RMM:  26    -0.413162951483E+03   -0.13143E-03   -0.97248E-04  5805   0.320E-02    0.331E-02
RMM:  27    -0.413163414875E+03   -0.46339E-03   -0.20472E-04  4528   0.206E-02    0.185E-02
RMM:  28    -0.413163868052E+03   -0.45318E-03   -0.16109E-04  5156   0.177E-02    0.914E-03
RMM:  29    -0.413164259560E+03   -0.39151E-03   -0.11292E-04  4543   0.156E-02    0.462E-03
RMM:  30    -0.413164485054E+03   -0.22549E-03   -0.78937E-05  4333   0.102E-02    0.421E-03
RMM:  31    -0.413164614622E+03   -0.12957E-03   -0.54533E-05  3168   0.706E-03    0.340E-03
RMM:  32    -0.413164638213E+03   -0.23591E-04   -0.21391E-05  2985   0.315E-03    0.164E-03
RMM:  33    -0.413164648544E+03   -0.10331E-04   -0.85441E-06  2796   0.225E-03    0.570E-04
RMM:  34    -0.413164650351E+03   -0.18064E-05   -0.47762E-06  2640   0.162E-03    0.610E-04
RMM:  35    -0.413164649404E+03    0.94657E-06   -0.21514E-06  2242   0.119E-03
    1 T=    61. E= -.41286686E+03 F= -.41316465E+03 E0= -.41314215E+03  EK= 0.29779E+00 SP= 0.00E+00 SK= 0.00E+00
       N       E                     dE             d eps       ncg     rms          rms(c)
RMM:   1    -0.413163308399E+03    0.13420E-02   -0.89730E+00  3986   0.614E-01    0.886E-01
RMM:   2    -0.413168524782E+03   -0.52164E-02   -0.11008E-01  3946   0.883E-02    0.651E-01
RMM:   3    -0.413164700409E+03    0.38244E-02   -0.17021E-02  4829   0.490E-02    0.965E-02
RMM:   4    -0.413187426324E+03   -0.22726E-01   -0.24292E-02  5206   0.130E-01    0.631E-01
RMM:   5    -0.413164181920E+03    0.23244E-01   -0.11297E-02  4845   0.106E-01    0.470E-02
RMM:   6    -0.413164359163E+03   -0.17724E-03   -0.21130E-03  5778   0.446E-02    0.332E-02
RMM:   7    -0.413164357338E+03    0.18242E-05   -0.40748E-04  5655   0.188E-02    0.205E-02
RMM:   8    -0.413164354212E+03    0.31262E-05   -0.49123E-05  5061   0.784E-03    0.903E-03
RMM:   9    -0.413164356741E+03   -0.25293E-05   -0.10529E-05  3521   0.344E-03    0.682E-03
RMM:  10    -0.413164361838E+03   -0.50965E-05   -0.20870E-06  2583   0.219E-03    0.405E-03
RMM:  11    -0.413164366424E+03   -0.45857E-05   -0.13230E-06  2526   0.172E-03    0.217E-03
RMM:  12    -0.413164373254E+03   -0.68306E-05   -0.16014E-06  2552   0.180E-03    0.900E-04
RMM:  13    -0.413164375774E+03   -0.25197E-05   -0.63077E-07  2349   0.122E-03    0.630E-04
RMM:  14    -0.413164375813E+03   -0.39268E-07   -0.33031E-07  1820   0.828E-04
    2 T=    61. E= -.41286667E+03 F= -.41316438E+03 E0= -.41314188E+03  EK= 0.29770E+00 SP= 0.00E+00 SK= 0.00E+00
       N       E                     dE             d eps       ncg     rms          rms(c)
RMM:   1    -0.413164271718E+03    0.10406E-03   -0.89692E+00  4189   0.619E-01    0.905E-01
RMM:   2    -0.413168705196E+03   -0.44335E-02   -0.10889E-01  3983   0.880E-02    0.647E-01
RMM:   3    -0.413165341226E+03    0.33640E-02   -0.16169E-02  4873   0.474E-02    0.107E-01
RMM:   4    -0.413191153270E+03   -0.25812E-01   -0.27082E-02  5163   0.138E-01    0.672E-01
RMM:   5    -0.413164780628E+03    0.26373E-01   -0.12625E-02  4826   0.112E-01    0.487E-02
RMM:   6    -0.413164968264E+03   -0.18764E-03   -0.23019E-03  5764   0.470E-02    0.344E-02
RMM:   7    -0.413164956884E+03    0.11380E-04   -0.42736E-04  5630   0.196E-02    0.213E-02
RMM:   8    -0.413164947637E+03    0.92478E-05   -0.56897E-05  5100   0.852E-03    0.984E-03
RMM:   9    -0.413164946084E+03    0.15529E-05   -0.11588E-05  3693   0.375E-03    0.737E-03
RMM:  10    -0.413164946215E+03   -0.13103E-06   -0.20352E-06  2572   0.229E-03
    3 T=    61. E= -.41286701E+03 F= -.41316495E+03 E0= -.41314245E+03  EK= 0.29794E+00 SP= 0.00E+00 SK= 0.00E+00
       N       E                     dE             d eps       ncg     rms          rms(c)
RMM:   1    -0.413163681446E+03    0.12646E-02   -0.89044E+00  4221   0.622E-01    0.890E-01
RMM:   2    -0.413168282328E+03   -0.46009E-02   -0.10856E-01  4216   0.871E-02    0.641E-01
RMM:   3    -0.413170390788E+03   -0.21085E-02   -0.19928E-02  5158   0.825E-02    0.326E-01
RMM:   4    -0.413188648414E+03   -0.18258E-01   -0.38618E-02  5107   0.169E-01    0.639E-01
RMM:   5    -0.413164672543E+03    0.23976E-01   -0.90537E-03  4701   0.104E-01    0.602E-02
RMM:   6    -0.413164686379E+03   -0.13836E-04   -0.17820E-03  5439   0.428E-02    0.317E-02
RMM:   7    -0.413164702894E+03   -0.16515E-04   -0.35620E-04  5990   0.173E-02    0.192E-02
RMM:   8    -0.413164699423E+03    0.34704E-05   -0.63426E-05  5157   0.922E-03    0.793E-03
RMM:   9    -0.413164697592E+03    0.18311E-05   -0.81206E-06  3416   0.364E-03    0.403E-03
RMM:  10    -0.413164698719E+03   -0.11264E-05   -0.16995E-06  2545   0.214E-03    0.258E-03
RMM:  11    -0.413164700348E+03   -0.16288E-05   -0.13752E-06  2536   0.182E-03    0.151E-03
RMM:  12    -0.413164701150E+03   -0.80269E-06   -0.77601E-07  2489   0.141E-03
    4 T=    61. E= -.41286673E+03 F= -.41316470E+03 E0= -.41314221E+03  EK= 0.29797E+00 SP= 0.00E+00 SK= 0.00E+00
       N       E                     dE             d eps       ncg     rms          rms(c)
RMM:   1    -0.413163663358E+03    0.10370E-02   -0.89692E+00  4235   0.626E-01    0.884E-01
RMM:   2    -0.413168804794E+03   -0.51414E-02   -0.11027E-01  4027   0.876E-02    0.650E-01
RMM:   3    -0.413165484508E+03    0.33203E-02   -0.17132E-02  4942   0.508E-02    0.120E-01
RMM:   4    -0.413196507728E+03   -0.31023E-01   -0.33317E-02  5145   0.153E-01    0.737E-01
RMM:   5    -0.413164640175E+03    0.31868E-01   -0.14991E-02  4812   0.122E-01    0.503E-02
RMM:   6    -0.413164850727E+03   -0.21055E-03   -0.26919E-03  5753   0.507E-02    0.337E-02
RMM:   7    -0.413164853974E+03   -0.32470E-05   -0.45491E-04  5742   0.196E-02    0.215E-02
RMM:   8    -0.413164850800E+03    0.31742E-05   -0.65343E-05  5120   0.882E-03    0.999E-03
RMM:   9    -0.413164851427E+03   -0.62651E-06   -0.12701E-05  3849   0.401E-03    0.729E-03
RMM:  10    -0.413164855511E+03   -0.40848E-05   -0.20235E-06  2581   0.226E-03    0.448E-03
RMM:  11    -0.413164859154E+03   -0.36423E-05   -0.12214E-06  2526   0.177E-03    0.248E-03
RMM:  12    -0.413164864972E+03   -0.58180E-05   -0.19441E-06  2602   0.201E-03    0.109E-03
RMM:  13    -0.413164866830E+03   -0.18586E-05   -0.61907E-07  2397   0.133E-03    0.785E-04
RMM:  14    -0.413164866705E+03    0.12561E-06   -0.25216E-07  1909   0.869E-04
    5 T=    61. E= -.41286674E+03 F= -.41316487E+03 E0= -.41314239E+03  EK= 0.29813E+00 SP= 0.00E+00 SK= 0.00E+00
       N       E                     dE             d eps       ncg     rms          rms(c)
RMM:   1    -0.413164548119E+03    0.31871E-03   -0.89819E+00  4248   0.633E-01    0.902E-01
RMM:   2    -0.413168918313E+03   -0.43702E-02   -0.10946E-01  4053   0.874E-02    0.649E-01
RMM:   3    -0.413165664733E+03    0.32536E-02   -0.16255E-02  4828   0.463E-02    0.993E-02
RMM:   4    -0.413188560232E+03   -0.22895E-01   -0.23723E-02  5148   0.129E-01    0.634E-01
RMM:   5    -0.413165184987E+03    0.23375E-01   -0.11198E-02  4817   0.105E-01    0.472E-02
RMM:   6    -0.413165352536E+03   -0.16755E-03   -0.21042E-03  5763   0.440E-02    0.329E-02
RMM:   7    -0.413165344077E+03    0.84590E-05   -0.38761E-04  5604   0.189E-02    0.207E-02
RMM:   8    -0.413165334591E+03    0.94857E-05   -0.53095E-05  4958   0.827E-03    0.977E-03
RMM:   9    -0.413165333039E+03    0.15516E-05   -0.10550E-05  3624   0.366E-03    0.740E-03
RMM:  10    -0.413165333323E+03   -0.28330E-06   -0.18978E-06  2556   0.228E-03
    6 T=    61. E= -.41286694E+03 F= -.41316533E+03 E0= -.41314287E+03  EK= 0.29839E+00 SP= 0.00E+00 SK= 0.00E+00
       N       E                     dE             d eps       ncg     rms          rms(c)
RMM:   1    -0.413164249759E+03    0.10833E-02   -0.89333E+00  4255   0.637E-01    0.897E-01
RMM:   2    -0.413168639992E+03   -0.43902E-02   -0.10886E-01  4260   0.876E-02    0.643E-01
RMM:   3    -0.413170082061E+03   -0.14421E-02   -0.19388E-02  5128   0.787E-02    0.307E-01
RMM:   4    -0.413190799603E+03   -0.20718E-01   -0.39430E-02  5103   0.169E-01    0.662E-01
RMM:   5    -0.413165047413E+03    0.25752E-01   -0.10037E-02  4709   0.108E-01    0.600E-02
RMM:   6    -0.413165083869E+03   -0.36456E-04   -0.19586E-03  5483   0.444E-02    0.323E-02
RMM:   7    -0.413165098133E+03   -0.14265E-04   -0.36829E-04  5972   0.173E-02    0.194E-02
RMM:   8    -0.413165092758E+03    0.53749E-05   -0.63526E-05  5157   0.914E-03    0.803E-03
RMM:   9    -0.413165089366E+03    0.33920E-05   -0.78941E-06  3357   0.358E-03    0.416E-03
RMM:  10    -0.413165089194E+03    0.17215E-06   -0.19441E-06  2575   0.218E-03
    7 T=    61. E= -.41286665E+03 F= -.41316509E+03 E0= -.41314264E+03  EK= 0.29844E+00 SP= 0.00E+00 SK= 0.00E+00
       N       E                     dE             d eps       ncg     rms          rms(c)
RMM:   1    -0.413164569822E+03    0.51954E-03   -0.89587E+00  4269   0.644E-01    0.882E-01
RMM:   2    -0.413169717366E+03   -0.51475E-02   -0.10983E-01  4149   0.885E-02    0.648E-01
RMM:   3    -0.413166454682E+03    0.32627E-02   -0.16999E-02  4949   0.529E-02    0.130E-01
RMM:   4    -0.413199932771E+03   -0.33478E-01   -0.36530E-02  5135   0.160E-01    0.765E-01
RMM:   5    -0.413165475080E+03    0.34458E-01   -0.16245E-02  4805   0.127E-01    0.517E-02
RMM:   6    -0.413165684557E+03   -0.20948E-03   -0.27949E-03  5736   0.524E-02    0.342E-02
RMM:   7    -0.413165685110E+03   -0.55255E-06   -0.47365E-04  5762   0.199E-02    0.217E-02
RMM:   8    -0.413165681104E+03    0.40064E-05   -0.67504E-05  5181   0.895E-03    0.988E-03
RMM:   9    -0.413165680761E+03    0.34230E-06   -0.13038E-05  3880   0.404E-03    0.702E-03
RMM:  10    -0.413165683630E+03   -0.28684E-05   -0.20808E-06  2578   0.225E-03    0.431E-03
RMM:  11    -0.413165685988E+03   -0.23587E-05   -0.11835E-06  2527   0.171E-03    0.238E-03
RMM:  12    -0.413165689784E+03   -0.37957E-05   -0.18315E-06  2588   0.195E-03    0.104E-03
RMM:  13    -0.413165691070E+03   -0.12859E-05   -0.65745E-07  2408   0.132E-03    0.814E-04
RMM:  14    -0.413165690822E+03    0.24849E-06   -0.24801E-07  1904   0.861E-04
    8 T=    61. E= -.41286695E+03 F= -.41316569E+03 E0= -.41314326E+03  EK= 0.29874E+00 SP= 0.00E+00 SK= 0.00E+00
       N       E                     dE             d eps       ncg     rms          rms(c)
RMM:   1    -0.413164973585E+03    0.71748E-03   -0.89960E+00  4280   0.645E-01    0.897E-01
RMM:   2    -0.413169841856E+03   -0.48683E-02   -0.10968E-01  4175   0.892E-02    0.651E-01
RMM:   3    -0.413166260538E+03    0.35813E-02   -0.16527E-02  4841   0.488E-02    0.103E-01
RMM:   4    -0.413191569701E+03   -0.25309E-01   -0.26460E-02  5139   0.136E-01    0.666E-01
RMM:   5    -0.413165691478E+03    0.25878E-01   -0.12420E-02  4807   0.110E-01    0.477E-02
RMM:   6    -0.413165872018E+03   -0.18054E-03   -0.22707E-03  5770   0.457E-02    0.325E-02
RMM:   7    -0.413165869508E+03    0.25099E-05   -0.39488E-04  5638   0.190E-02    0.208E-02
RMM:   8    -0.413165860185E+03    0.93233E-05   -0.59049E-05  4983   0.852E-03    0.999E-03
RMM:   9    -0.413165858521E+03    0.16643E-05   -0.11702E-05  3788   0.386E-03    0.755E-03
RMM:  10    -0.413165859067E+03   -0.54578E-06   -0.19200E-06  2563   0.228E-03
    9 T=    61. E= -.41286691E+03 F= -.41316586E+03 E0= -.41314345E+03  EK= 0.29895E+00 SP= 0.00E+00 SK= 0.00E+00
       N       E                     dE             d eps       ncg     rms          rms(c)
RMM:   1    -0.413165341424E+03    0.51710E-03   -0.89693E+00  4292   0.654E-01    0.903E-01
RMM:   2    -0.413169676968E+03   -0.43355E-02   -0.10897E-01  4316   0.897E-02    0.644E-01
RMM:   3    -0.413171694472E+03   -0.20175E-02   -0.20041E-02  5121   0.832E-02    0.329E-01
RMM:   4    -0.413189349446E+03   -0.17655E-01   -0.38236E-02  5083   0.167E-01    0.632E-01
RMM:   5    -0.413165903444E+03    0.23446E-01   -0.88666E-03  4687   0.103E-01    0.594E-02
RMM:   6    -0.413165925778E+03   -0.22334E-04   -0.17842E-03  5432   0.422E-02    0.324E-02
RMM:   7    -0.413165935158E+03   -0.93806E-05   -0.34495E-04  5943   0.170E-02    0.192E-02
RMM:   8    -0.413165927034E+03    0.81244E-05   -0.61026E-05  5123   0.899E-03    0.786E-03
RMM:   9    -0.413165922478E+03    0.45564E-05   -0.75073E-06  3332   0.353E-03    0.406E-03
RMM:  10    -0.413165921280E+03    0.11977E-05   -0.17366E-06  2548   0.214E-03    0.259E-03
RMM:  11    -0.413165919246E+03    0.20344E-05   -0.12524E-06  2519   0.176E-03    0.144E-03
RMM:  12    -0.413165917282E+03    0.19633E-05   -0.74543E-07  2471   0.139E-03    0.588E-04
RMM:  13    -0.413165916058E+03    0.12248E-05   -0.37597E-07  2110   0.100E-03    0.326E-04
RMM:  14    -0.413165914870E+03    0.11878E-05   -0.22908E-07  1619   0.797E-04    0.219E-04
RMM:  15    -0.413165912931E+03    0.19392E-05   -0.23681E-07  1553   0.767E-04    0.162E-04
RMM:  16    -0.413165911014E+03    0.19169E-05   -0.18765E-07  1385   0.701E-04    0.143E-04
RMM:  17    -0.413165909192E+03    0.18217E-05   -0.15242E-07  1304   0.662E-04    0.756E-05
RMM:  18    -0.413165908007E+03    0.11853E-05   -0.85115E-08  1044   0.594E-04    0.398E-05
RMM:  19    -0.413165907451E+03    0.55549E-06   -0.44757E-08   850   0.549E-04
   10 T=    61. E= -.41286671E+03 F= -.41316591E+03 E0= -.41314352E+03  EK= 0.29919E+00 SP= 0.00E+00 SK= 0.00E+00
       N       E                     dE             d eps       ncg     rms          rms(c)
RMM:   1    -0.413167100384E+03   -0.11924E-02   -0.89670E+00  4291   0.673E-01    0.883E-01
RMM:   2    -0.413170494033E+03   -0.33936E-02   -0.11108E-01  4227   0.896E-02    0.646E-01
RMM:   3    -0.413167403134E+03    0.30909E-02   -0.16537E-02  4942   0.517E-02    0.128E-01
RMM:   4    -0.413200723008E+03   -0.33320E-01   -0.36266E-02  5135   0.159E-01    0.763E-01
RMM:   5    -0.413166474032E+03    0.34249E-01   -0.16269E-02  4794   0.127E-01    0.516E-02
RMM:   6    -0.413166686296E+03   -0.21226E-03   -0.28254E-03  5735   0.521E-02    0.346E-02
RMM:   7    -0.413166685621E+03    0.67537E-06   -0.47245E-04  5663   0.199E-02    0.219E-02
RMM:   8    -0.413166679742E+03    0.58787E-05   -0.67710E-05  5179   0.904E-03    0.100E-02
RMM:   9    -0.413166678148E+03    0.15944E-05   -0.13389E-05  3939   0.411E-03    0.719E-03
RMM:  10    -0.413166679663E+03   -0.15148E-05   -0.20423E-06  2578   0.226E-03    0.443E-03
RMM:  11    -0.413166680950E+03   -0.12872E-05   -0.10962E-06  2506   0.168E-03    0.253E-03
RMM:  12    -0.413166683080E+03   -0.21303E-05   -0.16580E-06  2550   0.195E-03    0.108E-03
RMM:  13    -0.413166683765E+03   -0.68444E-06   -0.62647E-07  2393   0.134E-03
   11 T=    61. E= -.41286698E+03 F= -.41316668E+03 E0= -.41314432E+03  EK= 0.29971E+00 SP= 0.00E+00 SK= 0.00E+00
       N       E                     dE             d eps       ncg     rms          rms(c)
RMM:   1    -0.413165623756E+03    0.10593E-02   -0.90200E+00  4296   0.660E-01    0.894E-01
RMM:   2    -0.413170484253E+03   -0.48605E-02   -0.11050E-01  4235   0.884E-02    0.653E-01
RMM:   3    -0.413167092471E+03    0.33918E-02   -0.16808E-02  4868   0.485E-02    0.106E-01
RMM:   4    -0.413193848196E+03   -0.26756E-01   -0.28225E-02  5130   0.140E-01    0.684E-01
RMM:   5    -0.413166466289E+03    0.27382E-01   -0.13142E-02  4802   0.113E-01    0.480E-02
RMM:   6    -0.413166650181E+03   -0.18389E-03   -0.23515E-03  5786   0.467E-02    0.321E-02
RMM:   7    -0.413166648419E+03    0.17616E-05   -0.38882E-04  5674   0.189E-02    0.206E-02
RMM:   8    -0.413166638996E+03    0.94238E-05   -0.63271E-05  4995   0.873E-03    0.101E-02
RMM:   9    -0.413166637176E+03    0.18192E-05   -0.12449E-05  3877   0.401E-03    0.757E-03
RMM:  10    -0.413166637779E+03   -0.60258E-06   -0.19202E-06  2557   0.227E-03
   12 T=    61. E= -.41286666E+03 F= -.41316664E+03 E0= -.41314431E+03  EK= 0.29998E+00 SP= 0.00E+00 SK= 0.00E+00
       N       E                     dE             d eps       ncg     rms          rms(c)
RMM:   1    -0.413166588939E+03    0.48237E-04   -0.90090E+00  4304   0.663E-01    0.908E-01
RMM:   2    -0.413170637707E+03   -0.40488E-02   -0.10967E-01  4318   0.881E-02    0.647E-01
RMM:   3    -0.413173396555E+03   -0.27588E-02   -0.20483E-02  5126   0.845E-02    0.340E-01
RMM:   4    -0.413189960937E+03   -0.16564E-01   -0.38289E-02  5076   0.167E-01    0.623E-01
RMM:   5    -0.413167207657E+03    0.22753E-01   -0.84831E-03  4670   0.101E-01    0.591E-02
RMM:   6    -0.413167226218E+03   -0.18561E-04   -0.17304E-03  5421   0.414E-02    0.325E-02
RMM:   7    -0.413167233636E+03   -0.74182E-05   -0.33515E-04  5920   0.170E-02    0.192E-02
RMM:   8    -0.413167225255E+03    0.83811E-05   -0.60189E-05  5128   0.898E-03    0.782E-03
RMM:   9    -0.413167220011E+03    0.52445E-05   -0.74929E-06  3305   0.354E-03    0.402E-03
RMM:  10    -0.413167218149E+03    0.18612E-05   -0.16473E-06  2535   0.212E-03    0.256E-03
RMM:  11    -0.413167214997E+03    0.31524E-05   -0.12379E-06  2514   0.177E-03    0.144E-03
RMM:  12    -0.413167212315E+03    0.26823E-05   -0.69601E-07  2460   0.137E-03    0.589E-04
RMM:  13    -0.413167210543E+03    0.17716E-05   -0.36373E-07  2099   0.997E-04    0.337E-04
RMM:  14    -0.413167208922E+03    0.16210E-05   -0.21476E-07  1604   0.789E-04    0.226E-04
RMM:  15    -0.413167206157E+03    0.27646E-05   -0.21960E-07  1499   0.758E-04    0.162E-04
RMM:  16    -0.413167203739E+03    0.24186E-05   -0.16736E-07  1350   0.693E-04    0.141E-04
RMM:  17    -0.413167201362E+03    0.23768E-05   -0.14024E-07  1300   0.661E-04    0.775E-05
RMM:  18    -0.413167200146E+03    0.12159E-05   -0.73783E-08  1012   0.582E-04    0.439E-05
RMM:  19    -0.413167199220E+03    0.92675E-06   -0.45594E-08   868   0.551E-04
   13 T=    61. E= -.41286671E+03 F= -.41316720E+03 E0= -.41314490E+03  EK= 0.30049E+00 SP= 0.00E+00 SK= 0.00E+00
       N       E                     dE             d eps       ncg     rms          rms(c)
RMM:   1    -0.413166762038E+03    0.43811E-03   -0.89601E+00  4293   0.667E-01    0.886E-01
RMM:   2    -0.413171562903E+03   -0.48009E-02   -0.10984E-01  4253   0.876E-02    0.645E-01
RMM:   3    -0.413168640351E+03    0.29226E-02   -0.16483E-02  4954   0.512E-02    0.132E-01
RMM:   4    -0.413202656145E+03   -0.34016E-01   -0.37342E-02  5132   0.161E-01    0.770E-01
RMM:   5    -0.413167671625E+03    0.34985E-01   -0.16639E-02  4795   0.128E-01    0.521E-02
RMM:   6    -0.413167878473E+03   -0.20685E-03   -0.28617E-03  5737   0.525E-02    0.350E-02
RMM:   7    -0.413167872624E+03    0.58487E-05   -0.47888E-04  5664   0.201E-02    0.221E-02
RMM:   8    -0.413167864755E+03    0.78700E-05   -0.69394E-05  5184   0.913E-03    0.102E-02
RMM:   9    -0.413167861818E+03    0.29362E-05   -0.13577E-05  3966   0.414E-03    0.724E-03
RMM:  10    -0.413167861740E+03    0.78748E-07   -0.20759E-06  2567   0.226E-03
   14 T=    61. E= -.41286683E+03 F= -.41316786E+03 E0= -.41314559E+03  EK= 0.30103E+00 SP= 0.00E+00 SK= 0.00E+00
       N       E                     dE             d eps       ncg     rms          rms(c)
RMM:   1    -0.413166880913E+03    0.98091E-03   -0.90482E+00  4303   0.669E-01    0.892E-01
RMM:   2    -0.413172015178E+03   -0.51343E-02   -0.11100E-01  4334   0.889E-02    0.655E-01
RMM:   3    -0.413175186939E+03   -0.31718E-02   -0.22188E-02  5123   0.901E-02    0.364E-01
RMM:   4    -0.413190914322E+03   -0.15727E-01   -0.40495E-02  5068   0.172E-01    0.625E-01
RMM:   5    -0.413167887657E+03    0.23027E-01   -0.84180E-03  4654   0.102E-01    0.584E-02
RMM:   6    -0.413167899544E+03   -0.11888E-04   -0.16944E-03  5403   0.409E-02    0.308E-02
RMM:   7    -0.413167916598E+03   -0.17053E-04   -0.32668E-04  5939   0.166E-02    0.186E-02
RMM:   8    -0.413167914153E+03    0.24448E-05   -0.60696E-05  5114   0.897E-03    0.758E-03
RMM:   9    -0.413167912361E+03    0.17922E-05   -0.73800E-06  3282   0.357E-03    0.386E-03
RMM:  10    -0.413167913317E+03   -0.95631E-06   -0.15346E-06  2519   0.207E-03
   15 T=    61. E= -.41286654E+03 F= -.41316791E+03 E0= -.41314568E+03  EK= 0.30137E+00 SP= 0.00E+00 SK= 0.00E+00
       N       E                     dE             d eps       ncg     rms          rms(c)
RMM:   1    -0.413168927554E+03   -0.10152E-02   -0.90532E+00  4302   0.688E-01    0.910E-01
RMM:   2    -0.413172757803E+03   -0.38302E-02   -0.11009E-01  4265   0.901E-02    0.650E-01
RMM:   3    -0.413169742584E+03    0.30152E-02   -0.16391E-02  4954   0.520E-02    0.136E-01
RMM:   4    -0.413204281044E+03   -0.34538E-01   -0.37800E-02  5126   0.162E-01    0.776E-01
RMM:   5    -0.413168786084E+03    0.35495E-01   -0.16923E-02  4798   0.129E-01    0.528E-02
RMM:   6    -0.413168989902E+03   -0.20382E-03   -0.29203E-03  5737   0.534E-02    0.360E-02
RMM:   7    -0.413168976778E+03    0.13124E-04   -0.49627E-04  5713   0.207E-02    0.229E-02
RMM:   8    -0.413168963912E+03    0.12866E-04   -0.72989E-05  5183   0.945E-03    0.107E-02
RMM:   9    -0.413168957832E+03    0.60794E-05   -0.13850E-05  3967   0.421E-03    0.757E-03
RMM:  10    -0.413168953860E+03    0.39727E-05   -0.22439E-06  2587   0.236E-03    0.460E-03
RMM:  11    -0.413168951136E+03    0.27240E-05   -0.11471E-06  2506   0.173E-03    0.268E-03
RMM:  12    -0.413168945604E+03    0.55316E-05   -0.19376E-06  2594   0.207E-03    0.117E-03
RMM:  13    -0.413168942357E+03    0.32472E-05   -0.68493E-07  2409   0.141E-03    0.932E-04
RMM:  14    -0.413168942457E+03   -0.99841E-07   -0.26688E-07  1987   0.910E-04
   16 T=    61. E= -.41286690E+03 F= -.41316894E+03 E0= -.41314674E+03  EK= 0.30204E+00 SP= 0.00E+00 SK= 0.00E+00
       N       E                     dE             d eps       ncg     rms          rms(c)
RMM:   1    -0.413168676647E+03    0.26571E-03   -0.89889E+00  4296   0.692E-01    0.891E-01
RMM:   2    -0.413173289056E+03   -0.46124E-02   -0.11079E-01  4269   0.919E-02    0.645E-01
RMM:   3    -0.413169943455E+03    0.33456E-02   -0.16080E-02  4879   0.506E-02    0.116E-01
RMM:   4    -0.413199743287E+03   -0.29800E-01   -0.31760E-02  5127   0.148E-01    0.721E-01
RMM:   5    -0.413169236430E+03    0.30507E-01   -0.14713E-02  4800   0.120E-01    0.498E-02
RMM:   6    -0.413169423653E+03   -0.18722E-03   -0.25885E-03  5777   0.493E-02    0.337E-02
RMM:   7    -0.413169413154E+03    0.10499E-04   -0.42557E-04  5651   0.197E-02    0.214E-02
RMM:   8    -0.413169401222E+03    0.11933E-04   -0.68195E-05  5070   0.910E-03    0.104E-02
RMM:   9    -0.413169396487E+03    0.47342E-05   -0.13281E-05  3955   0.413E-03    0.772E-03
RMM:  10    -0.413169393866E+03    0.26216E-05   -0.20298E-06  2566   0.230E-03    0.469E-03
RMM:  11    -0.413169391854E+03    0.20115E-05   -0.12388E-06  2510   0.181E-03    0.259E-03
RMM:  12    -0.413169388313E+03    0.35413E-05   -0.17355E-06  2559   0.201E-03    0.109E-03
RMM:  13    -0.413169386550E+03    0.17628E-05   -0.55639E-07  2369   0.132E-03    0.758E-04
RMM:  14    -0.413169386446E+03    0.10380E-06   -0.24278E-07  1928   0.863E-04
   17 T=    62. E= -.41286680E+03 F= -.41316939E+03 E0= -.41314723E+03  EK= 0.30259E+00 SP= 0.00E+00 SK= 0.00E+00
       N       E                     dE             d eps       ncg     rms          rms(c)
RMM:   1    -0.413168768176E+03    0.61837E-03   -0.90728E+00  4298   0.682E-01    0.890E-01
RMM:   2    -0.413173897280E+03   -0.51291E-02   -0.11184E-01  4272   0.907E-02    0.655E-01
RMM:   3    -0.413170495029E+03    0.34023E-02   -0.17236E-02  4892   0.514E-02    0.117E-01
RMM:   4    -0.413200980181E+03   -0.30485E-01   -0.32753E-02  5121   0.150E-01    0.730E-01
RMM:   5    -0.413169718090E+03    0.31262E-01   -0.15098E-02  4796   0.121E-01    0.495E-02
RMM:   6    -0.413169905245E+03   -0.18716E-03   -0.25626E-03  5759   0.497E-02    0.331E-02
RMM:   7    -0.413169903585E+03    0.16603E-05   -0.43162E-04  5645   0.196E-02    0.211E-02
RMM:   8    -0.413169895250E+03    0.83348E-05   -0.66649E-05  5093   0.908E-03    0.100E-02
RMM:   9    -0.413169892486E+03    0.27643E-05   -0.13227E-05  3912   0.412E-03    0.731E-03
RMM:  10    -0.413169892704E+03   -0.21768E-06   -0.19736E-06  2561   0.225E-03
   18 T=    62. E= -.41286665E+03 F= -.41316989E+03 E0= -.41314777E+03  EK= 0.30324E+00 SP= 0.00E+00 SK= 0.00E+00
       N       E                     dE             d eps       ncg     rms          rms(c)
RMM:   1    -0.413171314695E+03   -0.14222E-02   -0.90975E+00  4303   0.712E-01    0.909E-01
RMM:   2    -0.413174756165E+03   -0.34415E-02   -0.11400E-01  4326   0.932E-02    0.654E-01
RMM:   3    -0.413177085839E+03   -0.23297E-02   -0.20399E-02  5113   0.846E-02    0.334E-01
RMM:   4    -0.413195871426E+03   -0.18786E-01   -0.40519E-02  5074   0.171E-01    0.649E-01
RMM:   5    -0.413171061252E+03    0.24810E-01   -0.94506E-03  4679   0.105E-01    0.594E-02
RMM:   6    -0.413171092107E+03   -0.30855E-04   -0.18988E-03  5440   0.432E-02    0.324E-02
RMM:   7    -0.413171097734E+03   -0.56272E-05   -0.35334E-04  5937   0.172E-02    0.196E-02
RMM:   8    -0.413171087683E+03    0.10051E-04   -0.63923E-05  5133   0.924E-03    0.804E-03
RMM:   9    -0.413171081297E+03    0.63859E-05   -0.81502E-06  3370   0.369E-03    0.411E-03
RMM:  10    -0.413171078806E+03    0.24916E-05   -0.18134E-06  2552   0.216E-03    0.264E-03
RMM:  11    -0.413171074894E+03    0.39114E-05   -0.12020E-06  2502   0.177E-03    0.147E-03
RMM:  12    -0.413171071291E+03    0.36028E-05   -0.67533E-07  2457   0.138E-03    0.568E-04
RMM:  13    -0.413171069133E+03    0.21587E-05   -0.34281E-07  2098   0.988E-04    0.331E-04
RMM:  14    -0.413171067204E+03    0.19287E-05   -0.19404E-07  1590   0.780E-04    0.225E-04
RMM:  15    -0.413171063746E+03    0.34580E-05   -0.17603E-07  1451   0.737E-04    0.154E-04
RMM:  16    -0.413171060816E+03    0.29300E-05   -0.13129E-07  1293   0.673E-04    0.139E-04
RMM:  17    -0.413171057731E+03    0.30851E-05   -0.11536E-07  1277   0.654E-04    0.747E-05
RMM:  18    -0.413171055959E+03    0.17720E-05   -0.63445E-08   985   0.585E-04    0.391E-05
RMM:  19    -0.413171054960E+03    0.99888E-06   -0.38760E-08   889   0.556E-04
   19 T=    62. E= -.41286691E+03 F= -.41317105E+03 E0= -.41314898E+03  EK= 0.30414E+00 SP= 0.00E+00 SK= 0.00E+00
       N       E                     dE             d eps       ncg     rms          rms(c)
RMM:   1    -0.413170607609E+03    0.44835E-03   -0.90400E+00  4297   0.692E-01    0.899E-01
RMM:   2    -0.413174962253E+03   -0.43546E-02   -0.11085E-01  4275   0.896E-02    0.647E-01
RMM:   3    -0.413172322271E+03    0.26400E-02   -0.16325E-02  4958   0.518E-02    0.138E-01
RMM:   4    -0.413207527699E+03   -0.35205E-01   -0.38990E-02  5126   0.164E-01    0.783E-01
RMM:   5    -0.413171310347E+03    0.36217E-01   -0.17359E-02  4786   0.130E-01    0.530E-02
RMM:   6    -0.413171509130E+03   -0.19878E-03   -0.29536E-03  5740   0.538E-02    0.360E-02
RMM:   7    -0.413171498032E+03    0.11098E-04   -0.49498E-04  5665   0.207E-02    0.227E-02
RMM:   8    -0.413171485909E+03    0.12123E-04   -0.74723E-05  5218   0.953E-03    0.107E-02
RMM:   9    -0.413171479952E+03    0.59571E-05   -0.14477E-05  4055   0.430E-03    0.749E-03
RMM:  10    -0.413171476332E+03    0.36199E-05   -0.21896E-06  2580   0.232E-03    0.463E-03
RMM:  11    -0.413171473930E+03    0.24025E-05   -0.10954E-06  2503   0.170E-03    0.269E-03
RMM:  12    -0.413171469272E+03    0.46578E-05   -0.16790E-06  2547   0.201E-03    0.114E-03
RMM:  13    -0.413171466651E+03    0.26206E-05   -0.65558E-07  2398   0.139E-03    0.914E-04
RMM:  14    -0.413171466674E+03   -0.22890E-07   -0.26735E-07  1988   0.911E-04
   20 T=    62. E= -.41286662E+03 F= -.41317147E+03 E0= -.41314943E+03  EK= 0.30485E+00 SP= 0.00E+00 SK= 0.00E+00
       N       E                     dE             d eps       ncg     rms          rms(c)
RMM:   1    -0.413171466911E+03   -0.25993E-06   -0.91045E+00  4294   0.696E-01    0.891E-01
RMM:   2    -0.413176579362E+03   -0.51125E-02   -0.11256E-01  4282   0.904E-02    0.656E-01
RMM:   3    -0.413173065886E+03    0.35135E-02   -0.17138E-02  4878   0.502E-02    0.109E-01
RMM:   4    -0.413201064095E+03   -0.27998E-01   -0.29807E-02  5124   0.143E-01    0.699E-01
RMM:   5    -0.413172402419E+03    0.28662E-01   -0.13883E-02  4790   0.116E-01    0.485E-02
RMM:   6    -0.413172572730E+03   -0.17031E-03   -0.24568E-03  5805   0.477E-02    0.316E-02
RMM:   7    -0.413172576402E+03   -0.36725E-05   -0.37801E-04  5655   0.187E-02    0.200E-02
RMM:   8    -0.413172568104E+03    0.82982E-05   -0.69368E-05  5034   0.894E-03    0.104E-02
RMM:   9    -0.413172564368E+03    0.37363E-05   -0.13216E-05  4009   0.418E-03    0.773E-03
RMM:  10    -0.413172563708E+03    0.65969E-06   -0.19092E-06  2556   0.225E-03
   21 T=    62. E= -.41286675E+03 F= -.41317256E+03 E0= -.41315058E+03  EK= 0.30582E+00 SP= 0.00E+00 SK= 0.00E+00
       N       E                     dE             d eps       ncg     rms          rms(c)
RMM:   1    -0.413179346507E+03   -0.67821E-02   -0.92069E+00  4301   0.742E-01    0.907E-01
RMM:   2    -0.413177686020E+03    0.16605E-02   -0.12537E-01  4326   0.932E-02    0.659E-01
RMM:   3    -0.413178844706E+03   -0.11587E-02   -0.18969E-02  5103   0.794E-02    0.314E-01
RMM:   4    -0.413203579758E+03   -0.24735E-01   -0.45092E-02  5097   0.180E-01    0.712E-01
RMM:   5    -0.413173625641E+03    0.29954E-01   -0.11993E-02  4699   0.116E-01    0.606E-02
RMM:   6    -0.413173689387E+03   -0.63746E-04   -0.23066E-03  5525   0.476E-02    0.329E-02
RMM:   7    -0.413173696771E+03   -0.73834E-05   -0.40167E-04  5945   0.180E-02    0.205E-02
RMM:   8    -0.413173689611E+03    0.71596E-05   -0.72673E-05  5157   0.961E-03    0.858E-03
RMM:   9    -0.413173683047E+03    0.65640E-05   -0.10234E-05  3599   0.393E-03    0.435E-03
RMM:  10    -0.413173680784E+03    0.22632E-05   -0.21399E-06  2592   0.223E-03    0.289E-03
RMM:  11    -0.413173677327E+03    0.34564E-05   -0.11965E-06  2499   0.178E-03    0.156E-03
RMM:  12    -0.413173673678E+03    0.36489E-05   -0.73232E-07  2462   0.141E-03    0.545E-04
RMM:  13    -0.413173671557E+03    0.21213E-05   -0.35912E-07  2124   0.101E-03    0.314E-04
RMM:  14    -0.413173669796E+03    0.17616E-05   -0.20095E-07  1616   0.789E-04    0.217E-04
RMM:  15    -0.413173666907E+03    0.28882E-05   -0.15353E-07  1374   0.718E-04    0.127E-04
RMM:  16    -0.413173663893E+03    0.30139E-05   -0.12778E-07  1326   0.682E-04    0.147E-04
RMM:  17    -0.413173661269E+03    0.26246E-05   -0.93395E-08  1162   0.637E-04    0.786E-05
RMM:  18    -0.413173658845E+03    0.24236E-05   -0.73033E-08  1103   0.610E-04    0.322E-05
RMM:  19    -0.413173657827E+03    0.10182E-05   -0.35678E-08   859   0.560E-04    0.234E-05
RMM:  20    -0.413173657425E+03    0.40198E-06   -0.19170E-08   746   0.541E-04
   22 T=    62. E= -.41286685E+03 F= -.41317366E+03 E0= -.41315172E+03  EK= 0.30681E+00 SP= 0.00E+00 SK= 0.00E+00
       N       E                     dE             d eps       ncg     rms          rms(c)
RMM:   1    -0.413174021789E+03   -0.36396E-03   -0.91208E+00  4295   0.709E-01    0.909E-01
RMM:   2    -0.413178264099E+03   -0.42423E-02   -0.11187E-01  4285   0.920E-02    0.651E-01
RMM:   3    -0.413175105458E+03    0.31586E-02   -0.16371E-02  4917   0.527E-02    0.133E-01
RMM:   4    -0.413209487179E+03   -0.34382E-01   -0.37517E-02  5126   0.161E-01    0.773E-01
RMM:   5    -0.413174200236E+03    0.35287E-01   -0.16997E-02  4791   0.129E-01    0.526E-02
RMM:   6    -0.413174395614E+03   -0.19538E-03   -0.29816E-03  5751   0.532E-02    0.361E-02
RMM:   7    -0.413174382858E+03    0.12756E-04   -0.48235E-04  5646   0.209E-02    0.227E-02
RMM:   8    -0.413174369730E+03    0.13128E-04   -0.77162E-05  5171   0.967E-03    0.111E-02
RMM:   9    -0.413174362765E+03    0.69656E-05   -0.14826E-05  4098   0.439E-03    0.792E-03
RMM:  10    -0.413174358008E+03    0.47565E-05   -0.22495E-06  2586   0.237E-03    0.488E-03
RMM:  11    -0.413174354736E+03    0.32720E-05   -0.11622E-06  2507   0.175E-03    0.287E-03
RMM:  12    -0.413174348325E+03    0.64111E-05   -0.18509E-06  2559   0.211E-03    0.121E-03
RMM:  13    -0.413174344503E+03    0.38226E-05   -0.69175E-07  2406   0.144E-03    0.994E-04
RMM:  14    -0.413174344843E+03   -0.34055E-06   -0.28254E-07  2030   0.932E-04
   23 T=    63. E= -.41286666E+03 F= -.41317434E+03 E0= -.41315245E+03  EK= 0.30768E+00 SP= 0.00E+00 SK= 0.00E+00
       N       E                     dE             d eps       ncg     rms          rms(c)
RMM:   1    -0.413174898459E+03   -0.55396E-03   -0.91403E+00  4296   0.714E-01    0.893E-01
RMM:   2    -0.413180300779E+03   -0.54023E-02   -0.11309E-01  4289   0.938E-02    0.655E-01
RMM:   3    -0.413176295662E+03    0.40051E-02   -0.16872E-02  4793   0.501E-02    0.970E-02
RMM:   4    -0.413199297583E+03   -0.23002E-01   -0.23915E-02  5129   0.129E-01    0.635E-01
RMM:   5    -0.413175826279E+03    0.23471E-01   -0.11552E-02  4803   0.105E-01    0.463E-02
RMM:   6    -0.413175949018E+03   -0.12274E-03   -0.19976E-03  5813   0.428E-02    0.286E-02
RMM:   7    -0.413175945021E+03    0.39968E-05   -0.24853E-04  5616   0.161E-02    0.148E-02
RMM:   8    -0.413175941304E+03    0.37170E-05   -0.50912E-05  4971   0.741E-03    0.993E-03
RMM:   9    -0.413175937018E+03    0.42862E-05   -0.10710E-05  3796   0.374E-03    0.742E-03
RMM:  10    -0.413175935521E+03    0.14977E-05   -0.17257E-06  2542   0.222E-03    0.451E-03
RMM:  11    -0.413175933812E+03    0.17082E-05   -0.16825E-06  2544   0.204E-03    0.228E-03
RMM:  12    -0.413175931338E+03    0.24749E-05   -0.12968E-06  2496   0.181E-03    0.897E-04
RMM:  13    -0.413175930424E+03    0.91396E-06   -0.43067E-07  2253   0.116E-03
   24 T=    63. E= -.41286701E+03 F= -.41317593E+03 E0= -.41315408E+03  EK= 0.30892E+00 SP= 0.00E+00 SK= 0.00E+00
       N       E                     dE             d eps       ncg     rms          rms(c)
RMM:   1    -0.413176623535E+03   -0.69220E-03   -0.92171E+00  4297   0.728E-01    0.907E-01
RMM:   2    -0.413181133666E+03   -0.45101E-02   -0.11418E-01  4285   0.958E-02    0.661E-01
RMM:   3    -0.413177218366E+03    0.39153E-02   -0.16857E-02  4729   0.503E-02    0.921E-02
RMM:   4    -0.413197401250E+03   -0.20183E-01   -0.20751E-02  5135   0.120E-01    0.596E-01
RMM:   5    -0.413176835878E+03    0.20565E-01   -0.10146E-02  4809   0.986E-02    0.455E-02
RMM:   6    -0.413176942594E+03   -0.10672E-03   -0.17824E-03  5827   0.399E-02    0.280E-02
RMM:   7    -0.413176938105E+03    0.44891E-05   -0.21977E-04  5611   0.153E-02    0.144E-02
RMM:   8    -0.413176933355E+03    0.47495E-05   -0.45291E-05  4931   0.705E-03    0.962E-03
RMM:   9    -0.413176928765E+03    0.45902E-05   -0.92540E-06  3644   0.356E-03    0.720E-03
RMM:  10    -0.413176926350E+03    0.24145E-05   -0.15833E-06  2528   0.217E-03    0.431E-03
RMM:  11    -0.413176923233E+03    0.31172E-05   -0.16833E-06  2541   0.205E-03    0.214E-03
RMM:  12    -0.413176919467E+03    0.37663E-05   -0.11264E-06  2480   0.171E-03    0.857E-04
RMM:  13    -0.413176918322E+03    0.11450E-05   -0.39789E-07  2210   0.111E-03    0.588E-04
RMM:  14    -0.413176917726E+03    0.59596E-06   -0.18775E-07  1688   0.789E-04
   25 T=    63. E= -.41286677E+03 F= -.41317692E+03 E0= -.41315512E+03  EK= 0.31015E+00 SP= 0.00E+00 SK= 0.00E+00
       N       E                     dE             d eps       ncg     rms          rms(c)
RMM:   1    -0.413177711538E+03   -0.79322E-03   -0.92151E+00  4294   0.724E-01    0.918E-01
RMM:   2    -0.413182015436E+03   -0.43039E-02   -0.11356E-01  4286   0.975E-02    0.656E-01
RMM:   3    -0.413178689011E+03    0.33264E-02   -0.16389E-02  4824   0.518E-02    0.114E-01
RMM:   4    -0.413206948521E+03   -0.28260E-01   -0.29733E-02  5132   0.143E-01    0.702E-01
RMM:   5    -0.413178096482E+03    0.28852E-01   -0.14177E-02  4796   0.117E-01    0.501E-02
RMM:   6    -0.413178254934E+03   -0.15845E-03   -0.25062E-03  5807   0.479E-02    0.347E-02
RMM:   7    -0.413178241216E+03    0.13718E-04   -0.41305E-04  5614   0.199E-02    0.213E-02
RMM:   8    -0.413178227600E+03    0.13616E-04   -0.68690E-05  5079   0.931E-03    0.109E-02
RMM:   9    -0.413178220341E+03    0.72586E-05   -0.13264E-05  3956   0.420E-03    0.785E-03
RMM:  10    -0.413178214520E+03    0.58214E-05   -0.20825E-06  2571   0.237E-03    0.472E-03
RMM:  11    -0.413178209598E+03    0.49219E-05   -0.13025E-06  2520   0.184E-03    0.257E-03
RMM:  12    -0.413178201798E+03    0.78001E-05   -0.16442E-06  2538   0.201E-03    0.108E-03
RMM:  13    -0.413178197655E+03    0.41428E-05   -0.55789E-07  2362   0.133E-03    0.765E-04
RMM:  14    -0.413178197726E+03   -0.71515E-07   -0.25725E-07  1948   0.880E-04
   26 T=    63. E= -.41286664E+03 F= -.41317820E+03 E0= -.41315645E+03  EK= 0.31155E+00 SP= 0.00E+00 SK= 0.00E+00
       N       E                     dE             d eps       ncg     rms          rms(c)
RMM:   1    -0.413179397157E+03   -0.11995E-02   -0.92070E+00  4291   0.742E-01    0.898E-01
RMM:   2    -0.413183990111E+03   -0.45930E-02   -0.11522E-01  4283   0.100E-01    0.657E-01
RMM:   3    -0.413180313956E+03    0.36762E-02   -0.16659E-02  4703   0.509E-02    0.899E-02
RMM:   4    -0.413199097800E+03   -0.18784E-01   -0.19274E-02  5145   0.116E-01    0.575E-01
RMM:   5    -0.413179984004E+03    0.19114E-01   -0.95423E-03  4811   0.948E-02    0.450E-02
RMM:   6    -0.413180076048E+03   -0.92044E-04   -0.16642E-03  5833   0.380E-02    0.275E-02
RMM:   7    -0.413180072011E+03    0.40373E-05   -0.19167E-04  5498   0.144E-02    0.128E-02
RMM:   8    -0.413180066538E+03    0.54727E-05   -0.29278E-05  4608   0.575E-03    0.842E-03
RMM:   9    -0.413180063128E+03    0.34101E-05   -0.60693E-06  3134   0.294E-03    0.572E-03
RMM:  10    -0.413180061840E+03    0.12878E-05   -0.14432E-06  2535   0.197E-03    0.391E-03
RMM:  11    -0.413180057811E+03    0.40296E-05   -0.19009E-06  2547   0.223E-03    0.196E-03
RMM:  12    -0.413180054422E+03    0.33892E-05   -0.10924E-06  2469   0.171E-03    0.120E-03
RMM:  13    -0.413180053682E+03    0.73923E-06   -0.34074E-07  2257   0.107E-03
   27 T=    64. E= -.41286691E+03 F= -.41318005E+03 E0= -.41315836E+03  EK= 0.31315E+00 SP= 0.00E+00 SK= 0.00E+00
       N       E                     dE             d eps       ncg     rms          rms(c)
RMM:   1    -0.413181669599E+03   -0.16152E-02   -0.93239E+00  4293   0.755E-01    0.909E-01
RMM:   2    -0.413185235236E+03   -0.35656E-02   -0.11599E-01  4277   0.100E-01    0.667E-01
RMM:   3    -0.413181358456E+03    0.38768E-02   -0.17454E-02  4616   0.515E-02    0.801E-02
RMM:   4    -0.413195388223E+03   -0.14030E-01   -0.14243E-02  5141   0.998E-02    0.499E-01
RMM:   5    -0.413181121313E+03    0.14267E-01   -0.71728E-03  4819   0.819E-02    0.431E-02
RMM:   6    -0.413181182667E+03   -0.61354E-04   -0.12949E-03  5851   0.330E-02    0.253E-02
RMM:   7    -0.413181180030E+03    0.26368E-05   -0.14028E-04  5476   0.127E-02    0.117E-02
RMM:   8    -0.413181174287E+03    0.57425E-05   -0.22103E-05  4379   0.502E-03    0.772E-03
RMM:   9    -0.413181173690E+03    0.59775E-06   -0.57563E-06  3137   0.290E-03
   28 T=    64. E= -.41286659E+03 F= -.41318117E+03 E0= -.41315953E+03  EK= 0.31458E+00 SP= 0.00E+00 SK= 0.00E+00
       N       E                     dE             d eps       ncg     rms          rms(c)
RMM:   1    -0.413183363728E+03   -0.21894E-02   -0.93330E+00  4295   0.755E-01    0.927E-01
RMM:   2    -0.413187113683E+03   -0.37500E-02   -0.11582E-01  4324   0.103E-01    0.663E-01
RMM:   3    -0.413188612471E+03   -0.14988E-02   -0.20500E-02  5100   0.857E-02    0.319E-01
RMM:   4    -0.413210629567E+03   -0.22017E-01   -0.41857E-02  5073   0.174E-01    0.682E-01
RMM:   5    -0.413183156341E+03    0.27473E-01   -0.10644E-02  4698   0.111E-01    0.580E-02
RMM:   6    -0.413183224758E+03   -0.68417E-04   -0.22066E-03  5642   0.452E-02    0.345E-02
RMM:   7    -0.413183220592E+03    0.41664E-05   -0.38851E-04  5795   0.184E-02    0.215E-02
RMM:   8    -0.413183210535E+03    0.10057E-04   -0.72396E-05  5094   0.975E-03    0.914E-03
RMM:   9    -0.413183201821E+03    0.87137E-05   -0.10178E-05  3630   0.402E-03    0.471E-03
RMM:  10    -0.413183196811E+03    0.50095E-05   -0.20290E-06  2572   0.225E-03    0.301E-03
RMM:  11    -0.413183190457E+03    0.63544E-05   -0.11453E-06  2500   0.177E-03    0.154E-03
RMM:  12    -0.413183183009E+03    0.74482E-05   -0.79067E-07  2457   0.146E-03    0.531E-04
RMM:  13    -0.413183179333E+03    0.36760E-05   -0.39828E-07  2218   0.106E-03    0.346E-04
RMM:  14    -0.413183177041E+03    0.22919E-05   -0.21475E-07  1710   0.809E-04    0.264E-04
RMM:  15    -0.413183169949E+03    0.70914E-05   -0.19717E-07  1661   0.789E-04    0.268E-04
RMM:  16    -0.413183166588E+03    0.33618E-05   -0.10098E-07  1158   0.641E-04    0.191E-04
RMM:  17    -0.413183162301E+03    0.42871E-05   -0.92015E-08  1198   0.641E-04    0.994E-05
RMM:  18    -0.413183160261E+03    0.20393E-05   -0.59654E-08  1051   0.599E-04    0.480E-05
RMM:  19    -0.413183157924E+03    0.23376E-05   -0.47665E-08  1020   0.588E-04    0.613E-05
RMM:  20    -0.413183157797E+03    0.12669E-06   -0.19192E-08   738   0.537E-04
   29 T=    64. E= -.41286678E+03 F= -.41318316E+03 E0= -.41316156E+03  EK= 0.31638E+00 SP= 0.00E+00 SK= 0.00E+00
       N       E                     dE             d eps       ncg     rms          rms(c)
RMM:   1    -0.413189432766E+03   -0.62748E-02   -0.93500E+00  4288   0.826E-01    0.907E-01
RMM:   2    -0.413189382874E+03    0.49892E-04   -0.11899E-01  4273   0.114E-01    0.660E-01
RMM:   3    -0.413185170748E+03    0.42121E-02   -0.16642E-02  4538   0.553E-02    0.819E-02
RMM:   4    -0.413196362483E+03   -0.11192E-01   -0.11352E-02  5138   0.893E-02    0.446E-01
RMM:   5    -0.413185023769E+03    0.11339E-01   -0.57806E-03  4827   0.733E-02    0.427E-02
RMM:   6    -0.413185068604E+03   -0.44835E-04   -0.10829E-03  5828   0.306E-02    0.267E-02
RMM:   7    -0.413185071512E+03   -0.29086E-05   -0.24231E-04  5412   0.159E-02    0.176E-02
RMM:   8    -0.413185054626E+03    0.16886E-04   -0.30161E-05  4671   0.666E-03    0.810E-03
RMM:   9    -0.413185052809E+03    0.18172E-05   -0.57407E-06  3038   0.297E-03    0.580E-03
RMM:  10    -0.413185049714E+03    0.30955E-05   -0.16133E-06  2507   0.211E-03    0.315E-03
RMM:  11    -0.413185046678E+03    0.30358E-05   -0.10732E-06  2489   0.171E-03    0.160E-03
RMM:  12    -0.413185043530E+03    0.31481E-05   -0.65594E-07  2403   0.134E-03    0.840E-04
RMM:  13    -0.413185041952E+03    0.15781E-05   -0.30209E-07  2021   0.950E-04    0.364E-04
RMM:  14    -0.413185040330E+03    0.16214E-05   -0.16485E-07  1531   0.744E-04    0.229E-04
RMM:  15    -0.413185037619E+03    0.27115E-05   -0.11025E-07  1308   0.681E-04    0.116E-04
RMM:  16    -0.413185035372E+03    0.22465E-05   -0.65065E-08  1003   0.627E-04    0.864E-05
RMM:  17    -0.413185033585E+03    0.17869E-05   -0.44889E-08   927   0.599E-04    0.559E-05
RMM:  18    -0.413185030342E+03    0.32428E-05   -0.59400E-08  1107   0.619E-04    0.373E-05
RMM:  19    -0.413185029603E+03    0.73946E-06   -0.22611E-08   786   0.555E-04
   30 T=    65. E= -.41286679E+03 F= -.41318503E+03 E0= -.41316348E+03  EK= 0.31824E+00 SP= 0.00E+00 SK= 0.00E+00
       N       E                     dE             d eps       ncg     rms          rms(c)
RMM:   1    -0.413186006339E+03   -0.97600E-03   -0.94242E+00  4291   0.769E-01    0.911E-01
RMM:   2    -0.413191515854E+03   -0.55095E-02   -0.11863E-01  4277   0.112E-01    0.672E-01
RMM:   3    -0.413186846138E+03    0.46697E-02   -0.18013E-02  4530   0.608E-02    0.763E-02
RMM:   4    -0.413198685896E+03   -0.11840E-01   -0.11934E-02  5138   0.919E-02    0.459E-01
RMM:   5    -0.413186652074E+03    0.12034E-01   -0.60932E-03  4825   0.753E-02    0.427E-02
RMM:   6    -0.413186706366E+03   -0.54292E-04   -0.11336E-03  5829   0.312E-02    0.266E-02
RMM:   7    -0.413186714313E+03   -0.79474E-05   -0.24232E-04  5428   0.158E-02    0.175E-02
RMM:   8    -0.413186698225E+03    0.16088E-04   -0.31838E-05  4702   0.676E-03    0.813E-03
RMM:   9    -0.413186697299E+03    0.92610E-06   -0.60680E-06  3085   0.303E-03
   31 T=    65. E= -.41286655E+03 F= -.41318670E+03 E0= -.41316520E+03  EK= 0.32015E+00 SP= 0.00E+00 SK= 0.00E+00
       N       E                     dE             d eps       ncg     rms          rms(c)
RMM:   1    -0.413190146571E+03   -0.34483E-02   -0.94719E+00  4294   0.810E-01    0.933E-01
RMM:   2    -0.413193702613E+03   -0.35560E-02   -0.12006E-01  4307   0.118E-01    0.670E-01
RMM:   3    -0.413191985500E+03    0.17171E-02   -0.18855E-02  4997   0.810E-02    0.232E-01
RMM:   4    -0.413228414021E+03   -0.36429E-01   -0.47984E-02  5097   0.184E-01    0.812E-01
RMM:   5    -0.413189116601E+03    0.39297E-01   -0.17447E-02  4762   0.134E-01    0.571E-02
RMM:   6    -0.413189298206E+03   -0.18161E-03   -0.33272E-03  5781   0.550E-02    0.372E-02
RMM:   7    -0.413189294181E+03    0.40253E-05   -0.50134E-04  5683   0.209E-02    0.240E-02
RMM:   8    -0.413189284159E+03    0.10021E-04   -0.97515E-05  5211   0.108E-02    0.121E-02
RMM:   9    -0.413189273416E+03    0.10744E-04   -0.14873E-05  4082   0.477E-03    0.678E-03
RMM:  10    -0.413189267182E+03    0.62341E-05   -0.32307E-06  2735   0.262E-03    0.428E-03
RMM:  11    -0.413189262591E+03    0.45903E-05   -0.11725E-06  2496   0.183E-03    0.243E-03
RMM:  12    -0.413189253911E+03    0.86802E-05   -0.13908E-06  2503   0.192E-03    0.939E-04
RMM:  13    -0.413189249073E+03    0.48384E-05   -0.65214E-07  2399   0.137E-03    0.671E-04
RMM:  14    -0.413189248123E+03    0.94969E-06   -0.29745E-07  2054   0.942E-04
   32 T=    66. E= -.41286677E+03 F= -.41318925E+03 E0= -.41316780E+03  EK= 0.32248E+00 SP= 0.00E+00 SK= 0.00E+00
       N       E                     dE             d eps       ncg     rms          rms(c)
RMM:   1    -0.413192011465E+03   -0.27624E-02   -0.94508E+00  4296   0.825E-01    0.920E-01
RMM:   2    -0.413195393289E+03   -0.33818E-02   -0.12135E-01  4286   0.120E-01    0.666E-01
RMM:   3    -0.413191223195E+03    0.41701E-02   -0.16930E-02  4278   0.635E-02    0.718E-02
RMM:   4    -0.413191266478E+03   -0.43284E-04   -0.48661E-04  4838   0.137E-02    0.413E-02
RMM:   5    -0.413191477575E+03   -0.21110E-03   -0.36568E-04  5158   0.178E-02    0.715E-02
RMM:   6    -0.413191304202E+03    0.17337E-03   -0.34288E-04  5235   0.177E-02    0.380E-02
RMM:   7    -0.413191221610E+03    0.82592E-04   -0.22085E-04  4976   0.157E-02    0.126E-02
RMM:   8    -0.413191219209E+03    0.24007E-05   -0.28132E-05  4718   0.560E-03    0.489E-03
RMM:   9    -0.413191216971E+03    0.22376E-05   -0.33170E-06  2539   0.214E-03    0.207E-03
RMM:  10    -0.413191210413E+03    0.65582E-05   -0.95122E-07  2414   0.148E-03    0.957E-04
RMM:  11    -0.413191205174E+03    0.52395E-05   -0.38011E-07  1954   0.970E-04    0.648E-04
RMM:  12    -0.413191200069E+03    0.51045E-05   -0.18637E-07  1532   0.752E-04    0.414E-04
RMM:  13    -0.413191196131E+03    0.39378E-05   -0.91785E-08  1147   0.641E-04    0.292E-04
RMM:  14    -0.413191189609E+03    0.65219E-05   -0.13573E-07  1501   0.705E-04    0.260E-04
RMM:  15    -0.413191187293E+03    0.23164E-05   -0.40196E-08   780   0.567E-04    0.172E-04
RMM:  16    -0.413191182676E+03    0.46170E-05   -0.51601E-08   988   0.595E-04    0.799E-05
RMM:  17    -0.413191180255E+03    0.24215E-05   -0.29578E-08   844   0.552E-04    0.801E-05
RMM:  18    -0.413191179477E+03    0.77712E-06   -0.11702E-08   640   0.512E-04
   33 T=    66. E= -.41286650E+03 F= -.41319118E+03 E0= -.41316978E+03  EK= 0.32468E+00 SP= 0.00E+00 SK= 0.00E+00
       N       E                     dE             d eps       ncg     rms          rms(c)
RMM:   1    -0.413194608837E+03   -0.34286E-02   -0.95708E+00  4302   0.827E-01    0.917E-01
RMM:   2    -0.413197937680E+03   -0.33288E-02   -0.12287E-01  4278   0.124E-01    0.677E-01
RMM:   3    -0.413193592034E+03    0.43456E-02   -0.18240E-02  4366   0.686E-02    0.639E-02
RMM:   4    -0.413196887639E+03   -0.32956E-02   -0.35119E-03  5155   0.500E-02    0.245E-01
RMM:   5    -0.413193560105E+03    0.33275E-02   -0.17395E-03  4830   0.407E-02    0.408E-02
RMM:   6    -0.413193593906E+03   -0.33801E-04   -0.60927E-04  5614   0.232E-02    0.297E-02
RMM:   7    -0.413193569938E+03    0.23968E-04   -0.24383E-04  5111   0.159E-02    0.189E-02
RMM:   8    -0.413193559893E+03    0.10045E-04   -0.23067E-05  4257   0.551E-03    0.696E-03
RMM:   9    -0.413193558820E+03    0.10730E-05   -0.26188E-06  2589   0.224E-03    0.443E-03
RMM:  10    -0.413193556967E+03    0.18531E-05   -0.11915E-06  2485   0.176E-03    0.230E-03
RMM:  11    -0.413193555418E+03    0.15489E-05   -0.72238E-07  2400   0.132E-03    0.104E-03
RMM:  12    -0.413193553502E+03    0.19157E-05   -0.41289E-07  2135   0.104E-03    0.417E-04
RMM:  13    -0.413193551868E+03    0.16339E-05   -0.21838E-07  1686   0.801E-04    0.267E-04
RMM:  14    -0.413193549881E+03    0.19877E-05   -0.11140E-07  1144   0.668E-04    0.202E-04
RMM:  15    -0.413193546940E+03    0.29409E-05   -0.91176E-08  1078   0.649E-04    0.783E-05
RMM:  16    -0.413193545352E+03    0.15882E-05   -0.54559E-08   959   0.608E-04    0.717E-05
RMM:  17    -0.413193542666E+03    0.26859E-05   -0.52059E-08   976   0.602E-04    0.390E-05
RMM:  18    -0.413193541413E+03    0.12528E-05   -0.26229E-08   767   0.558E-04    0.292E-05
RMM:  19    -0.413193540717E+03    0.69575E-06   -0.13769E-08   643   0.538E-04
   34 T=    67. E= -.41286651E+03 F= -.41319354E+03 E0= -.41317219E+03  EK= 0.32703E+00 SP= 0.00E+00 SK= 0.00E+00
       N       E                     dE             d eps       ncg     rms          rms(c)
RMM:   1    -0.413204867666E+03   -0.11326E-01   -0.97012E+00  4303   0.920E-01    0.937E-01
RMM:   2    -0.413200278237E+03    0.45894E-02   -0.13379E-01  4272   0.133E-01    0.680E-01
RMM:   3    -0.413196259195E+03    0.40190E-02   -0.16768E-02  4279   0.684E-02    0.827E-02
RMM:   4    -0.413196918063E+03   -0.65887E-03   -0.11540E-03  5181   0.268E-02    0.111E-01
RMM:   5    -0.413196313153E+03    0.60491E-03   -0.40143E-04  4810   0.200E-02    0.427E-02
RMM:   6    -0.413196339111E+03   -0.25958E-04   -0.44607E-04  5368   0.207E-02    0.317E-02
RMM:   7    -0.413196292899E+03    0.46212E-04   -0.20703E-04  4847   0.152E-02    0.180E-02
RMM:   8    -0.413196286680E+03    0.62187E-05   -0.28577E-05  4612   0.557E-03    0.648E-03
RMM:   9    -0.413196285174E+03    0.15063E-05   -0.37207E-06  2504   0.222E-03    0.270E-03
RMM:  10    -0.413196279970E+03    0.52041E-05   -0.91138E-07  2335   0.156E-03    0.131E-03
RMM:  11    -0.413196276029E+03    0.39411E-05   -0.38242E-07  2053   0.989E-04    0.549E-04
RMM:  12    -0.413196271786E+03    0.42426E-05   -0.22680E-07  1577   0.808E-04    0.262E-04
RMM:  13    -0.413196268053E+03    0.37331E-05   -0.12727E-07  1205   0.696E-04    0.224E-04
RMM:  14    -0.413196264473E+03    0.35805E-05   -0.78296E-08   898   0.636E-04    0.130E-04
RMM:  15    -0.413196259293E+03    0.51794E-05   -0.83893E-08  1060   0.640E-04    0.819E-05
RMM:  16    -0.413196255742E+03    0.35516E-05   -0.50070E-08   881   0.593E-04    0.770E-05
RMM:  17    -0.413196254200E+03    0.15421E-05   -0.22403E-08   641   0.544E-04    0.468E-05
RMM:  18    -0.413196253509E+03    0.69101E-06   -0.14492E-08   550   0.529E-04
   35 T=    67. E= -.41286673E+03 F= -.41319625E+03 E0= -.41317495E+03  EK= 0.32952E+00 SP= 0.00E+00 SK= 0.00E+00
       N       E                     dE             d eps       ncg     rms          rms(c)
RMM:   1    -0.413200859327E+03   -0.46051E-02   -0.96343E+00  4301   0.880E-01    0.936E-01
RMM:   2    -0.413202260834E+03   -0.14015E-02   -0.12580E-01  4265   0.132E-01    0.674E-01
RMM:   3    -0.413198456518E+03    0.38043E-02   -0.17204E-02  4391   0.697E-02    0.826E-02
RMM:   4    -0.413203048553E+03   -0.45920E-02   -0.48427E-03  5177   0.590E-02    0.289E-01
RMM:   5    -0.413198456459E+03    0.45921E-02   -0.24096E-03  4823   0.481E-02    0.429E-02
RMM:   6    -0.413198477674E+03   -0.21215E-04   -0.70301E-04  5635   0.263E-02    0.320E-02
RMM:   7    -0.413198448069E+03    0.29605E-04   -0.27630E-04  5139   0.171E-02    0.186E-02
RMM:   8    -0.413198436672E+03    0.11397E-04   -0.28105E-05  4767   0.622E-03    0.796E-03
RMM:   9    -0.413198434328E+03    0.23437E-05   -0.39951E-06  2731   0.246E-03    0.442E-03
RMM:  10    -0.413198429100E+03    0.52287E-05   -0.12599E-06  2490   0.187E-03    0.238E-03
RMM:  11    -0.413198424103E+03    0.49966E-05   -0.75309E-07  2427   0.139E-03    0.108E-03
RMM:  12    -0.413198419323E+03    0.47803E-05   -0.41703E-07  2203   0.107E-03    0.474E-04
RMM:  13    -0.413198415655E+03    0.36682E-05   -0.22369E-07  1744   0.822E-04    0.266E-04
RMM:  14    -0.413198412231E+03    0.34237E-05   -0.11060E-07  1196   0.675E-04    0.188E-04
RMM:  15    -0.413198407467E+03    0.47637E-05   -0.75750E-08  1066   0.640E-04    0.927E-05
RMM:  16    -0.413198404140E+03    0.33268E-05   -0.55732E-08  1027   0.616E-04    0.666E-05
RMM:  17    -0.413198401227E+03    0.29134E-05   -0.45740E-08  1041   0.598E-04    0.469E-05
RMM:  18    -0.413198397916E+03    0.33108E-05   -0.39039E-08  1013   0.584E-04    0.316E-05
RMM:  19    -0.413198397377E+03    0.53881E-06   -0.13910E-08   668   0.520E-04
   36 T=    68. E= -.41286654E+03 F= -.41319840E+03 E0= -.41317713E+03  EK= 0.33186E+00 SP= 0.00E+00 SK= 0.00E+00
       N       E                     dE             d eps       ncg     rms          rms(c)
RMM:   1    -0.413205653768E+03   -0.72559E-02   -0.97316E+00  4307   0.920E-01    0.925E-01
RMM:   2    -0.413205939590E+03   -0.28582E-03   -0.12950E-01  4263   0.132E-01    0.682E-01
RMM:   3    -0.413201402476E+03    0.45371E-02   -0.17937E-02  4506   0.664E-02    0.798E-02
RMM:   4    -0.413212257536E+03   -0.10855E-01   -0.10992E-02  5161   0.883E-02    0.441E-01
RMM:   5    -0.413201292601E+03    0.10965E-01   -0.55799E-03  4825   0.731E-02    0.444E-02
RMM:   6    -0.413201311643E+03   -0.19042E-04   -0.11683E-03  5767   0.325E-02    0.307E-02
RMM:   7    -0.413201315495E+03   -0.38519E-05   -0.32659E-04  5344   0.178E-02    0.201E-02
RMM:   8    -0.413201298992E+03    0.16503E-04   -0.35872E-05  4865   0.721E-03    0.905E-03
RMM:   9    -0.413201297826E+03    0.11655E-05   -0.62427E-06  3033   0.305E-03    0.562E-03
RMM:  10    -0.413201295721E+03    0.21053E-05   -0.16480E-06  2527   0.217E-03    0.299E-03
RMM:  11    -0.413201293170E+03    0.25513E-05   -0.11635E-06  2498   0.174E-03    0.149E-03
RMM:  12    -0.413201290394E+03    0.27757E-05   -0.68612E-07  2409   0.135E-03    0.757E-04
RMM:  13    -0.413201288757E+03    0.16374E-05   -0.32790E-07  2022   0.963E-04    0.372E-04
RMM:  14    -0.413201287049E+03    0.17080E-05   -0.16849E-07  1514   0.744E-04    0.225E-04
RMM:  15    -0.413201284111E+03    0.29378E-05   -0.10533E-07  1228   0.670E-04    0.115E-04
RMM:  16    -0.413201281809E+03    0.23016E-05   -0.65756E-08  1002   0.625E-04    0.785E-05
RMM:  17    -0.413201279878E+03    0.19310E-05   -0.44576E-08   931   0.600E-04    0.497E-05
RMM:  18    -0.413201276645E+03    0.32332E-05   -0.50736E-08  1071   0.613E-04    0.281E-05
RMM:  19    -0.413201275743E+03    0.90188E-06   -0.20531E-08   769   0.556E-04
   37 T=    68. E= -.41286683E+03 F= -.41320128E+03 E0= -.41318005E+03  EK= 0.33445E+00 SP= 0.00E+00 SK= 0.00E+00
       N       E                     dE             d eps       ncg     rms          rms(c)
RMM:   1    -0.413211587745E+03   -0.10311E-01   -0.98545E+00  4308   0.965E-01    0.942E-01
RMM:   2    -0.413208682635E+03    0.29051E-02   -0.13707E-01  4262   0.129E-01    0.689E-01
RMM:   3    -0.413204301796E+03    0.43808E-02   -0.17385E-02  4761   0.629E-02    0.122E-01
RMM:   4    -0.413236644403E+03   -0.32343E-01   -0.33551E-02  5138   0.153E-01    0.750E-01
RMM:   5    -0.413203781444E+03    0.32863E-01   -0.16468E-02  4797   0.125E-01    0.521E-02
RMM:   6    -0.413203846088E+03   -0.64643E-04   -0.27391E-03  5843   0.495E-02    0.334E-02
RMM:   7    -0.413203856138E+03   -0.10050E-04   -0.35911E-04  5637   0.182E-02    0.178E-02
RMM:   8    -0.413203847492E+03    0.86460E-05   -0.54176E-05  4955   0.778E-03    0.101E-02
RMM:   9    -0.413203847149E+03    0.34226E-06   -0.19407E-05  4474   0.473E-03    0.794E-03
RMM:  10    -0.413203841846E+03    0.53033E-05   -0.27686E-06  2668   0.268E-03    0.440E-03
RMM:  11    -0.413203839397E+03    0.24491E-05   -0.13608E-06  2500   0.189E-03    0.275E-03
RMM:  12    -0.413203832955E+03    0.64418E-05   -0.20022E-06  2563   0.225E-03    0.138E-03
RMM:  13    -0.413203829972E+03    0.29838E-05   -0.69455E-07  2410   0.148E-03    0.868E-04
RMM:  14    -0.413203829548E+03    0.42317E-06   -0.26908E-07  2051   0.935E-04
   38 T=    69. E= -.41286681E+03 F= -.41320383E+03 E0= -.41318265E+03  EK= 0.33702E+00 SP= 0.00E+00 SK= 0.00E+00
       N       E                     dE             d eps       ncg     rms          rms(c)
RMM:   1    -0.413210216944E+03   -0.63870E-02   -0.98289E+00  4308   0.973E-01    0.953E-01
RMM:   2    -0.413211113029E+03   -0.89608E-03   -0.13123E-01  4265   0.124E-01    0.684E-01
RMM:   3    -0.413206950494E+03    0.41625E-02   -0.17557E-02  4866   0.601E-02    0.136E-01
RMM:   4    -0.413243831832E+03   -0.36881E-01   -0.39191E-02  5133   0.165E-01    0.800E-01
RMM:   5    -0.413206239647E+03    0.37592E-01   -0.18661E-02  4794   0.133E-01    0.548E-02
RMM:   6    -0.413206325617E+03   -0.85970E-04   -0.31299E-03  5826   0.527E-02    0.351E-02
RMM:   7    -0.413206335019E+03   -0.94020E-05   -0.41471E-04  5682   0.192E-02    0.192E-02
RMM:   8    -0.413206323313E+03    0.11706E-04   -0.65469E-05  5044   0.844E-03    0.109E-02
RMM:   9    -0.413206320701E+03    0.26127E-05   -0.21907E-05  4587   0.505E-03    0.808E-03
RMM:  10    -0.413206313005E+03    0.76952E-05   -0.29711E-06  2676   0.276E-03    0.453E-03
RMM:  11    -0.413206308804E+03    0.42013E-05   -0.13713E-06  2501   0.192E-03    0.281E-03
RMM:  12    -0.413206298199E+03    0.10605E-04   -0.19289E-06  2550   0.223E-03    0.139E-03
RMM:  13    -0.413206293146E+03    0.50530E-05   -0.71853E-07  2424   0.150E-03    0.899E-04
RMM:  14    -0.413206292509E+03    0.63670E-06   -0.28425E-07  2100   0.959E-04
   39 T=    69. E= -.41286665E+03 F= -.41320629E+03 E0= -.41318515E+03  EK= 0.33965E+00 SP= 0.00E+00 SK= 0.00E+00
       N       E                     dE             d eps       ncg     rms          rms(c)
RMM:   1    -0.413220026603E+03   -0.13733E-01   -0.99298E+00  4310   0.105E+00    0.933E-01
RMM:   2    -0.413214638611E+03    0.53880E-02   -0.14314E-01  4265   0.129E-01    0.689E-01
RMM:   3    -0.413210381275E+03    0.42573E-02   -0.17301E-02  4937   0.644E-02    0.161E-01
RMM:   4    -0.413256086623E+03   -0.45705E-01   -0.50280E-02  5129   0.187E-01    0.888E-01
RMM:   5    -0.413209227992E+03    0.46859E-01   -0.22900E-02  4786   0.148E-01    0.578E-02
RMM:   6    -0.413209360697E+03   -0.13271E-03   -0.38276E-03  5827   0.580E-02    0.360E-02
RMM:   7    -0.413209369390E+03   -0.86921E-05   -0.45670E-04  5698   0.198E-02    0.192E-02
RMM:   8    -0.413209366958E+03    0.24317E-05   -0.72288E-05  5061   0.840E-03    0.112E-02
RMM:   9    -0.413209360596E+03    0.63618E-05   -0.23222E-05  4564   0.505E-03    0.779E-03
RMM:  10    -0.413209356789E+03    0.38071E-05   -0.46141E-06  2918   0.302E-03    0.458E-03
RMM:  11    -0.413209353616E+03    0.31730E-05   -0.17053E-06  2518   0.214E-03    0.281E-03
RMM:  12    -0.413209345914E+03    0.77024E-05   -0.18634E-06  2525   0.222E-03    0.110E-03
RMM:  13    -0.413209341768E+03    0.41456E-05   -0.73237E-07  2438   0.150E-03    0.888E-04
RMM:  14    -0.413209341580E+03    0.18787E-06   -0.30381E-07  2136   0.975E-04
   40 T=    70. E= -.41286687E+03 F= -.41320934E+03 E0= -.41318824E+03  EK= 0.34247E+00 SP= 0.00E+00 SK= 0.00E+00
       N       E                     dE             d eps       ncg     rms          rms(c)
RMM:   1    -0.413219925450E+03   -0.10584E-01   -0.10030E+01  4311   0.108E+00    0.949E-01
RMM:   2    -0.413216854413E+03    0.30710E-02   -0.13760E-01  4267   0.136E-01    0.698E-01
RMM:   3    -0.413212996643E+03    0.38578E-02   -0.19128E-02  4969   0.689E-02    0.180E-01
RMM:   4    -0.413260115006E+03   -0.47118E-01   -0.54173E-02  5128   0.194E-01    0.905E-01
RMM:   5    -0.413211333287E+03    0.48782E-01   -0.23306E-02  4785   0.151E-01    0.591E-02
RMM:   6    -0.413211477485E+03   -0.14420E-03   -0.39680E-03  5823   0.590E-02    0.364E-02
RMM:   7    -0.413211489520E+03   -0.12035E-04   -0.48610E-04  5753   0.204E-02    0.207E-02
RMM:   8    -0.413211490541E+03   -0.10211E-05   -0.10258E-04  5208   0.100E-02    0.133E-02
RMM:   9    -0.413211479600E+03    0.10941E-04   -0.25044E-05  4644   0.565E-03    0.754E-03
RMM:  10    -0.413211475793E+03    0.38067E-05   -0.41762E-06  2806   0.294E-03    0.453E-03
RMM:  11    -0.413211472888E+03    0.29054E-05   -0.14826E-06  2503   0.204E-03    0.275E-03
RMM:  12    -0.413211466225E+03    0.66628E-05   -0.16781E-06  2528   0.210E-03    0.111E-03
RMM:  13    -0.413211461877E+03    0.43480E-05   -0.71976E-07  2438   0.147E-03    0.768E-04
RMM:  14    -0.413211461276E+03    0.60079E-06   -0.30341E-07  2121   0.970E-04
   41 T=    70. E= -.41286648E+03 F= -.41321146E+03 E0= -.41319039E+03  EK= 0.34498E+00 SP= 0.00E+00 SK= 0.00E+00
       N       E                     dE             d eps       ncg     rms          rms(c)
RMM:   1    -0.413235132281E+03   -0.23670E-01   -0.10168E+01  4311   0.121E+00    0.968E-01
RMM:   2    -0.413218894997E+03    0.16237E-01   -0.14399E-01  4297   0.136E-01    0.694E-01
RMM:   3    -0.413216725245E+03    0.21698E-02   -0.19125E-02  5053   0.746E-02    0.242E-01
RMM:   4    -0.413260087613E+03   -0.43362E-01   -0.56038E-02  5104   0.199E-01    0.881E-01
RMM:   5    -0.413213924028E+03    0.46164E-01   -0.21075E-02  4761   0.146E-01    0.619E-02
RMM:   6    -0.413214042679E+03   -0.11865E-03   -0.37191E-03  5780   0.575E-02    0.376E-02
RMM:   7    -0.413214047762E+03   -0.50831E-05   -0.49350E-04  5723   0.208E-02    0.226E-02
RMM:   8    -0.413214045649E+03    0.21128E-05   -0.13011E-04  5235   0.115E-02    0.142E-02
RMM:   9    -0.413214029967E+03    0.15683E-04   -0.23656E-05  4575   0.594E-03    0.654E-03
RMM:  10    -0.413214023897E+03    0.60692E-05   -0.52118E-06  2992   0.297E-03    0.404E-03
RMM:  11    -0.413214019072E+03    0.48249E-05   -0.13007E-06  2498   0.197E-03    0.234E-03
RMM:  12    -0.413214009616E+03    0.94569E-05   -0.11371E-06  2479   0.182E-03    0.928E-04
RMM:  13    -0.413214003452E+03    0.61637E-05   -0.54003E-07  2375   0.129E-03    0.542E-04
RMM:  14    -0.413214002191E+03    0.12609E-05   -0.26370E-07  2007   0.901E-04    0.374E-04
RMM:  15    -0.413213999525E+03    0.26661E-05   -0.13727E-07  1472   0.715E-04    0.221E-04
RMM:  16    -0.413213991906E+03    0.76188E-05   -0.12348E-07  1488   0.722E-04    0.253E-04
RMM:  17    -0.413213989999E+03    0.19067E-05   -0.54803E-08   975   0.597E-04    0.158E-04
RMM:  18    -0.413213984333E+03    0.56659E-05   -0.69400E-08  1326   0.643E-04    0.134E-04
RMM:  19    -0.413213982276E+03    0.20575E-05   -0.35190E-08   970   0.564E-04    0.632E-05
RMM:  20    -0.413213980832E+03    0.14443E-05   -0.27675E-08   931   0.556E-04    0.412E-05
RMM:  21    -0.413213980638E+03    0.19358E-06   -0.13497E-08   718   0.523E-04
   42 T=    71. E= -.41286656E+03 F= -.41321398E+03 E0= -.41319294E+03  EK= 0.34742E+00 SP= 0.00E+00 SK= 0.00E+00
       N       E                     dE             d eps       ncg     rms          rms(c)
RMM:   1    -0.413237425056E+03   -0.23444E-01   -0.10142E+01  4312   0.125E+00    0.944E-01
RMM:   2    -0.413221117670E+03    0.16307E-01   -0.15931E-01  4313   0.145E-01    0.695E-01
RMM:   3    -0.413220219389E+03    0.89828E-03   -0.18708E-02  5066   0.821E-02    0.298E-01
RMM:   4    -0.413260064570E+03   -0.39845E-01   -0.57944E-02  5097   0.203E-01    0.861E-01
RMM:   5    -0.413216005501E+03    0.44059E-01   -0.19324E-02  4744   0.143E-01    0.633E-02
RMM:   6    -0.413216101308E+03   -0.95806E-04   -0.35012E-03  5751   0.559E-02    0.373E-02
RMM:   7    -0.413216107498E+03   -0.61900E-05   -0.52029E-04  5746   0.209E-02    0.244E-02
RMM:   8    -0.413216104338E+03    0.31599E-05   -0.13229E-04  5208   0.120E-02    0.132E-02
RMM:   9    -0.413216092357E+03    0.11981E-04   -0.20661E-05  4454   0.579E-03    0.550E-03
RMM:  10    -0.413216089057E+03    0.33005E-05   -0.47436E-06  2905   0.277E-03    0.350E-03
RMM:  11    -0.413216085794E+03    0.32630E-05   -0.12953E-06  2496   0.191E-03    0.192E-03
RMM:  12    -0.413216080380E+03    0.54132E-05   -0.91719E-07  2469   0.160E-03    0.734E-04
RMM:  13    -0.413216076899E+03    0.34810E-05   -0.44801E-07  2261   0.115E-03    0.367E-04
RMM:  14    -0.413216075309E+03    0.15901E-05   -0.23421E-07  1841   0.852E-04    0.259E-04
RMM:  15    -0.413216072289E+03    0.30200E-05   -0.13832E-07  1413   0.718E-04    0.126E-04
RMM:  16    -0.413216068917E+03    0.33719E-05   -0.92447E-08  1165   0.665E-04    0.104E-04
RMM:  17    -0.413216066750E+03    0.21679E-05   -0.66101E-08  1114   0.634E-04    0.724E-05
RMM:  18    -0.413216063835E+03    0.29148E-05   -0.53671E-08  1104   0.620E-04    0.439E-05
RMM:  19    -0.413216061549E+03    0.22859E-05   -0.41805E-08  1058   0.596E-04    0.301E-05
RMM:  20    -0.413216060863E+03    0.68594E-06   -0.20311E-08   799   0.552E-04
   43 T=    71. E= -.41286661E+03 F= -.41321606E+03 E0= -.41319505E+03  EK= 0.34945E+00 SP= 0.00E+00 SK= 0.00E+00
       N       E                     dE             d eps       ncg     rms          rms(c)
RMM:   1    -0.413229717340E+03   -0.13656E-01   -0.10159E+01  4314   0.127E+00    0.949E-01
RMM:   2    -0.413222622522E+03    0.70948E-02   -0.15508E-01  4318   0.154E-01    0.707E-01
RMM:   3    -0.413222561390E+03    0.61132E-04   -0.21265E-02  5062   0.912E-02    0.324E-01
RMM:   4    -0.413258585045E+03   -0.36024E-01   -0.57533E-02  5088   0.204E-01    0.834E-01
RMM:   5    -0.413217184715E+03    0.41400E-01   -0.17483E-02  4721   0.138E-01    0.624E-02
RMM:   6    -0.413217253826E+03   -0.69111E-04   -0.32025E-03  5730   0.537E-02    0.359E-02
RMM:   7    -0.413217256873E+03   -0.30469E-05   -0.48341E-04  5759   0.204E-02    0.237E-02
RMM:   8    -0.413217253861E+03    0.30114E-05   -0.12707E-04  5187   0.117E-02    0.125E-02
RMM:   9    -0.413217243287E+03    0.10575E-04   -0.19133E-05  4394   0.563E-03    0.510E-03
RMM:  10    -0.413217240940E+03    0.23467E-05   -0.42616E-06  2829   0.266E-03    0.323E-03
RMM:  11    -0.413217238390E+03    0.25497E-05   -0.12872E-06  2495   0.188E-03    0.173E-03
RMM:  12    -0.413217234344E+03    0.40466E-05   -0.85703E-07  2464   0.153E-03    0.708E-04
RMM:  13    -0.413217231666E+03    0.26781E-05   -0.42267E-07  2175   0.110E-03    0.325E-04
RMM:  14    -0.413217229980E+03    0.16860E-05   -0.22528E-07  1729   0.828E-04    0.212E-04
RMM:  15    -0.413217226496E+03    0.34839E-05   -0.15479E-07  1382   0.732E-04    0.125E-04
RMM:  16    -0.413217224430E+03    0.20654E-05   -0.91452E-08  1129   0.662E-04    0.898E-05
RMM:  17    -0.413217222370E+03    0.20599E-05   -0.70691E-08  1130   0.644E-04    0.570E-05
RMM:  18    -0.413217219678E+03    0.26919E-05   -0.61060E-08  1179   0.631E-04    0.354E-05
RMM:  19    -0.413217217833E+03    0.18449E-05   -0.39727E-08  1005   0.586E-04    0.273E-05
RMM:  20    -0.413217217197E+03    0.63646E-06   -0.20563E-08   793   0.551E-04
   44 T=    71. E= -.41286636E+03 F= -.41321722E+03 E0= -.41319623E+03  EK= 0.35085E+00 SP= 0.00E+00 SK= 0.00E+00
       N       E                     dE             d eps       ncg     rms          rms(c)
RMM:   1    -0.413254230234E+03   -0.37012E-01   -0.10358E+01  4312   0.145E+00    0.972E-01
RMM:   2    -0.413223462179E+03    0.30768E-01   -0.17145E-01  4330   0.167E-01    0.705E-01
RMM:   3    -0.413226370882E+03   -0.29087E-02   -0.21535E-02  5103   0.101E-01    0.403E-01
RMM:   4    -0.413249520140E+03   -0.23149E-01   -0.50843E-02  5061   0.193E-01    0.729E-01
RMM:   5    -0.413218532500E+03    0.30988E-01   -0.12329E-02  4680   0.121E-01    0.625E-02
RMM:   6    -0.413218536811E+03   -0.43113E-05   -0.24136E-03  5647   0.473E-02    0.364E-02
RMM:   7    -0.413218535367E+03    0.14442E-05   -0.41254E-04  5675   0.194E-02    0.241E-02
RMM:   8    -0.413218527737E+03    0.76300E-05   -0.12587E-04  5115   0.120E-02    0.116E-02
RMM:   9    -0.413218515226E+03    0.12511E-04   -0.17268E-05  4388   0.570E-03    0.464E-03
RMM:  10    -0.413218511445E+03    0.37807E-05   -0.35321E-06  2776   0.246E-03    0.279E-03
RMM:  11    -0.413218506052E+03    0.53930E-05   -0.12557E-06  2494   0.184E-03    0.152E-03
RMM:  12    -0.413218499915E+03    0.61372E-05   -0.68133E-07  2435   0.141E-03    0.675E-04
RMM:  13    -0.413218496111E+03    0.38034E-05   -0.33307E-07  2007   0.990E-04    0.313E-04
RMM:  14    -0.413218492772E+03    0.33396E-05   -0.18757E-07  1560   0.778E-04    0.184E-04
RMM:  15    -0.413218487804E+03    0.49676E-05   -0.13486E-07  1371   0.716E-04    0.126E-04
RMM:  16    -0.413218484649E+03    0.31555E-05   -0.85099E-08  1137   0.654E-04    0.906E-05
RMM:  17    -0.413218480352E+03    0.42969E-05   -0.81639E-08  1331   0.658E-04    0.573E-05
RMM:  18    -0.413218477841E+03    0.25111E-05   -0.50047E-08  1062   0.588E-04    0.463E-05
RMM:  19    -0.413218475813E+03    0.20276E-05   -0.34218E-08   954   0.565E-04    0.238E-05
RMM:  20    -0.413218475502E+03    0.31149E-06   -0.18032E-08   742   0.530E-04
   45 T=    72. E= -.41286669E+03 F= -.41321848E+03 E0= -.41319751E+03  EK= 0.35178E+00 SP= 0.00E+00 SK= 0.00E+00
       N       E                     dE             d eps       ncg     rms          rms(c)
RMM:   1    -0.413245508356E+03   -0.27033E-01   -0.10166E+01  4312   0.148E+00    0.954E-01
RMM:   2    -0.413223189628E+03    0.22319E-01   -0.16070E-01  4345   0.175E-01    0.698E-01
RMM:   3    -0.413229128573E+03   -0.59389E-02   -0.24650E-02  5105   0.115E-01    0.461E-01
RMM:   4    -0.413241946174E+03   -0.12818E-01   -0.46606E-02  5046   0.187E-01    0.639E-01
RMM:   5    -0.413218207214E+03    0.23739E-01   -0.85180E-03  4636   0.107E-01    0.595E-02
RMM:   6    -0.413218175548E+03    0.31667E-04   -0.18295E-03  5532   0.413E-02    0.341E-02
RMM:   7    -0.413218173982E+03    0.15661E-05   -0.33941E-04  5579   0.180E-02    0.226E-02
RMM:   8    -0.413218164732E+03    0.92493E-05   -0.12574E-04  5086   0.118E-02    0.107E-02
RMM:   9    -0.413218152766E+03    0.11967E-04   -0.14810E-05  4252   0.540E-03    0.437E-03
RMM:  10    -0.413218149448E+03    0.33175E-05   -0.27988E-06  2702   0.229E-03    0.255E-03
RMM:  11    -0.413218144357E+03    0.50910E-05   -0.11688E-06  2486   0.177E-03    0.135E-03
RMM:  12    -0.413218139138E+03    0.52198E-05   -0.61877E-07  2402   0.133E-03    0.662E-04
RMM:  13    -0.413218135668E+03    0.34699E-05   -0.29888E-07  1903   0.939E-04    0.310E-04
RMM:  14    -0.413218132415E+03    0.32525E-05   -0.16881E-07  1432   0.740E-04    0.172E-04
RMM:  15    -0.413218127962E+03    0.44535E-05   -0.12140E-07  1246   0.692E-04    0.119E-04
RMM:  16    -0.413218125138E+03    0.28242E-05   -0.81876E-08  1114   0.645E-04    0.888E-05
RMM:  17    -0.413218120267E+03    0.48700E-05   -0.84981E-08  1335   0.663E-04    0.656E-05
RMM:  18    -0.413218118485E+03    0.17826E-05   -0.44745E-08  1012   0.575E-04    0.421E-05
RMM:  19    -0.413218116943E+03    0.15420E-05   -0.33611E-08   927   0.551E-04    0.231E-05
RMM:  20    -0.413218116453E+03    0.49023E-06   -0.18523E-08   742   0.519E-04
   46 T=    72. E= -.41286656E+03 F= -.41321812E+03 E0= -.41319716E+03  EK= 0.35155E+00 SP= 0.00E+00 SK= 0.00E+00
       N       E                     dE             d eps       ncg     rms          rms(c)
RMM:   1    -0.413232504182E+03   -0.14387E-01   -0.10062E+01  4312   0.149E+00    0.945E-01
RMM:   2    -0.413222299468E+03    0.10205E-01   -0.15637E-01  4369   0.180E-01    0.707E-01
RMM:   3    -0.413230742372E+03   -0.84429E-02   -0.28241E-02  5099   0.128E-01    0.506E-01
RMM:   4    -0.413238805584E+03   -0.80632E-02   -0.47674E-02  5030   0.191E-01    0.610E-01
RMM:   5    -0.413216993009E+03    0.21813E-01   -0.73624E-03  4616   0.103E-01    0.585E-02
RMM:   6    -0.413216939856E+03    0.53153E-04   -0.15577E-03  5439   0.387E-02    0.319E-02
RMM:   7    -0.413216942164E+03   -0.23077E-05   -0.29296E-04  5595   0.169E-02    0.214E-02
RMM:   8    -0.413216936858E+03    0.53057E-05   -0.12914E-04  5086   0.119E-02    0.104E-02
RMM:   9    -0.413216926071E+03    0.10787E-04   -0.14055E-05  4175   0.535E-03    0.422E-03
RMM:  10    -0.413216923842E+03    0.22288E-05   -0.28551E-06  2712   0.227E-03    0.243E-03
RMM:  11    -0.413216920181E+03    0.36614E-05   -0.12230E-06  2492   0.178E-03    0.126E-03
RMM:  12    -0.413216916835E+03    0.33456E-05   -0.61023E-07  2383   0.132E-03    0.664E-04
RMM:  13    -0.413216914173E+03    0.26627E-05   -0.30207E-07  1833   0.933E-04    0.312E-04
RMM:  14    -0.413216911506E+03    0.26666E-05   -0.17476E-07  1399   0.743E-04    0.168E-04
RMM:  15    -0.413216908313E+03    0.31926E-05   -0.12804E-07  1258   0.692E-04    0.111E-04
RMM:  16    -0.413216906167E+03    0.21463E-05   -0.86602E-08  1156   0.644E-04    0.851E-05
RMM:  17    -0.413216902272E+03    0.38956E-05   -0.90639E-08  1312   0.661E-04    0.587E-05
RMM:  18    -0.413216900872E+03    0.13992E-05   -0.43096E-08   951   0.570E-04    0.385E-05
RMM:  19    -0.413216899674E+03    0.11983E-05   -0.30372E-08   887   0.549E-04    0.241E-05
RMM:  20    -0.413216899022E+03    0.65233E-06   -0.17881E-08   740   0.525E-04
   47 T=    71. E= -.41286669E+03 F= -.41321690E+03 E0= -.41319596E+03  EK= 0.35021E+00 SP= 0.00E+00 SK= 0.00E+00
       N       E                     dE             d eps       ncg     rms          rms(c)
RMM:   1    -0.413243529219E+03   -0.26630E-01   -0.10075E+01  4307   0.165E+00    0.961E-01
RMM:   2    -0.413219743621E+03    0.23786E-01   -0.16935E-01  4418   0.195E-01    0.704E-01
RMM:   3    -0.413234935584E+03   -0.15192E-01   -0.31885E-02  5134   0.144E-01    0.618E-01
RMM:   4    -0.413228808671E+03    0.61269E-02   -0.44131E-02  4993   0.187E-01    0.500E-01
RMM:   5    -0.413214692452E+03    0.14116E-01   -0.48140E-03  4553   0.914E-02    0.594E-02
RMM:   6    -0.413214580766E+03    0.11169E-03   -0.82911E-04  4978   0.316E-02    0.313E-02
RMM:   7    -0.413214572832E+03    0.79337E-05   -0.18841E-04  5663   0.136E-02    0.154E-02
RMM:   8    -0.413214576610E+03   -0.37781E-05   -0.11545E-04  5238   0.108E-02    0.126E-02
RMM:   9    -0.413214559591E+03    0.17019E-04   -0.23752E-05  4599   0.619E-03    0.457E-03
RMM:  10    -0.413214556982E+03    0.26093E-05   -0.36188E-06  2786   0.254E-03    0.247E-03
RMM:  11    -0.413214551081E+03    0.59010E-05   -0.15697E-06  2457   0.204E-03    0.139E-03
RMM:  12    -0.413214547216E+03    0.38644E-05   -0.67239E-07  2374   0.143E-03    0.818E-04
RMM:  13    -0.413214543007E+03    0.42091E-05   -0.32287E-07  1930   0.101E-03    0.437E-04
RMM:  14    -0.413214538689E+03    0.43178E-05   -0.16178E-07  1527   0.750E-04    0.248E-04
RMM:  15    -0.413214534736E+03    0.39530E-05   -0.94298E-08  1099   0.632E-04    0.142E-04
RMM:  16    -0.413214531701E+03    0.30354E-05   -0.69472E-08  1037   0.603E-04    0.114E-04
RMM:  17    -0.413214527787E+03    0.39134E-05   -0.72353E-08  1185   0.618E-04    0.840E-05
RMM:  18    -0.413214525378E+03    0.24098E-05   -0.37171E-08   890   0.560E-04    0.618E-05
RMM:  19    -0.413214524263E+03    0.11149E-05   -0.20297E-08   708   0.523E-04    0.400E-05
RMM:  20    -0.413214523051E+03    0.12116E-05   -0.18343E-08   725   0.522E-04    0.205E-05
RMM:  21    -0.413214522527E+03    0.52403E-06   -0.12524E-08   626   0.505E-04
   48 T=    71. E= -.41286700E+03 F= -.41321452E+03 E0= -.41319359E+03  EK= 0.34752E+00 SP= 0.00E+00 SK= 0.00E+00
       N       E                     dE             d eps       ncg     rms          rms(c)
RMM:   1    -0.413241506410E+03   -0.26983E-01   -0.98804E+00  4306   0.177E+00    0.949E-01
RMM:   2    -0.413214780829E+03    0.26726E-01   -0.16744E-01  4491   0.205E-01    0.693E-01
RMM:   3    -0.413237964886E+03   -0.23184E-01   -0.37937E-02  5147   0.163E-01    0.721E-01
RMM:   4    -0.413219179917E+03    0.18785E-01   -0.42796E-02  4960   0.188E-01    0.411E-01
RMM:   5    -0.413210044654E+03    0.91353E-02   -0.39738E-03  4603   0.875E-02    0.639E-02
RMM:   6    -0.413209867834E+03    0.17682E-03   -0.45217E-04  4678   0.289E-02    0.330E-02
RMM:   7    -0.413209880954E+03   -0.13119E-04   -0.31227E-04  5776   0.185E-02    0.238E-02
RMM:   8    -0.413209849578E+03    0.31376E-04   -0.10274E-04  5037   0.116E-02    0.101E-02
RMM:   9    -0.413209843955E+03    0.56230E-05   -0.21155E-05  5116   0.591E-03    0.492E-03
RMM:  10    -0.413209840021E+03    0.39339E-05   -0.24967E-06  2641   0.246E-03    0.263E-03
RMM:  11    -0.413209834297E+03    0.57238E-05   -0.15877E-06  2499   0.205E-03    0.196E-03
RMM:  12    -0.413209830504E+03    0.37929E-05   -0.47517E-07  2415   0.129E-03    0.103E-03
RMM:  13    -0.413209826397E+03    0.41074E-05   -0.26371E-07  2036   0.887E-04    0.492E-04
RMM:  14    -0.413209820813E+03    0.55834E-05   -0.22733E-07  1837   0.813E-04    0.370E-04
RMM:  15    -0.413209815897E+03    0.49167E-05   -0.11315E-07  1128   0.643E-04    0.155E-04
RMM:  16    -0.413209813114E+03    0.27824E-05   -0.67732E-08  1000   0.599E-04    0.881E-05
RMM:  17    -0.413209808875E+03    0.42390E-05   -0.75525E-08  1218   0.627E-04    0.733E-05
RMM:  18    -0.413209807013E+03    0.18621E-05   -0.39263E-08   940   0.553E-04    0.605E-05
RMM:  19    -0.413209805451E+03    0.15625E-05   -0.29440E-08   899   0.536E-04    0.339E-05
RMM:  20    -0.413209804226E+03    0.12247E-05   -0.22770E-08   834   0.517E-04    0.193E-05
[...]
       N       E                     dE             d eps       ncg     rms          rms(c)
RMM:   1    -0.413157929091E+03    0.73951E-02   -0.10143E+01  4264   0.942E-01    0.873E-01
RMM:   2    -0.413166264673E+03   -0.83356E-02   -0.12074E-01  4372   0.107E-01    0.617E-01
RMM:   3    -0.413166006697E+03    0.25798E-03   -0.80421E-03  5087   0.538E-02    0.196E-01
RMM:   4    -0.413204986644E+03   -0.38980E-01   -0.44620E-02  5144   0.177E-01    0.827E-01
RMM:   5    -0.413164809967E+03    0.40177E-01   -0.19245E-02  4793   0.140E-01    0.574E-02
RMM:   6    -0.413164826484E+03   -0.16517E-04   -0.31861E-03  5708   0.554E-02    0.227E-02
RMM:   7    -0.413164858256E+03   -0.31772E-04   -0.43052E-04  6035   0.180E-02    0.171E-02
RMM:   8    -0.413164863822E+03   -0.55659E-05   -0.74336E-05  5243   0.828E-03    0.884E-03
RMM:   9    -0.413164866493E+03   -0.26710E-05   -0.12619E-05  3548   0.396E-03    0.383E-03
RMM:  10    -0.413164869056E+03   -0.25637E-05   -0.25815E-06  2609   0.221E-03    0.245E-03
RMM:  11    -0.413164873397E+03   -0.43409E-05   -0.12274E-06  2510   0.177E-03    0.140E-03
RMM:  12    -0.413164875887E+03   -0.24896E-05   -0.54210E-07  2403   0.124E-03    0.602E-04
RMM:  13    -0.413164877802E+03   -0.19155E-05   -0.29022E-07  1861   0.912E-04    0.285E-04
RMM:  14    -0.413164879382E+03   -0.15796E-05   -0.18072E-07  1463   0.773E-04    0.159E-04
RMM:  15    -0.413164881788E+03   -0.24059E-05   -0.15211E-07  1444   0.744E-04    0.105E-04
RMM:  16    -0.413164882825E+03   -0.10376E-05   -0.96710E-08  1234   0.665E-04    0.688E-05
RMM:  17    -0.413164884321E+03   -0.14956E-05   -0.83957E-08  1299   0.649E-04    0.435E-05
RMM:  18    -0.413164885683E+03   -0.13623E-05   -0.63015E-08  1131   0.604E-04    0.222E-05
RMM:  19    -0.413164885994E+03   -0.31056E-06   -0.33207E-08   879   0.553E-04
  139 T=    61. E= -.41286685E+03 F= -.41316489E+03 E0= -.41314413E+03  EK= 0.29804E+00 SP= 0.00E+00 SK= 0.00E+00
       N       E                     dE             d eps       ncg     rms          rms(c)
RMM:   1    -0.413157040849E+03    0.78448E-02   -0.99962E+00  4264   0.928E-01    0.870E-01
RMM:   2    -0.413165264135E+03   -0.82233E-02   -0.11824E-01  4369   0.106E-01    0.609E-01
RMM:   3    -0.413164669056E+03    0.59508E-03   -0.80614E-03  5076   0.520E-02    0.184E-01
RMM:   4    -0.413202419684E+03   -0.37751E-01   -0.42208E-02  5149   0.172E-01    0.812E-01
RMM:   5    -0.413163700381E+03    0.38719E-01   -0.18718E-02  4791   0.138E-01    0.563E-02
RMM:   6    -0.413163724321E+03   -0.23940E-04   -0.31175E-03  5714   0.544E-02    0.240E-02
RMM:   7    -0.413163753168E+03   -0.28847E-04   -0.42508E-04  6031   0.178E-02    0.175E-02
RMM:   8    -0.413163756925E+03   -0.37579E-05   -0.76321E-05  5234   0.851E-03    0.881E-03
RMM:   9    -0.413163757604E+03   -0.67822E-06   -0.12186E-05  3523   0.391E-03    0.387E-03
RMM:  10    -0.413163759423E+03   -0.18191E-05   -0.25373E-06  2612   0.219E-03    0.250E-03
RMM:  11    -0.413163762434E+03   -0.30108E-05   -0.12118E-06  2511   0.175E-03    0.139E-03
RMM:  12    -0.413163764279E+03   -0.18450E-05   -0.56256E-07  2389   0.125E-03    0.555E-04
RMM:  13    -0.413163765643E+03   -0.13640E-05   -0.30293E-07  1919   0.929E-04    0.268E-04
RMM:  14    -0.413163766761E+03   -0.11187E-05   -0.18315E-07  1481   0.774E-04    0.160E-04
RMM:  15    -0.413163768616E+03   -0.18551E-05   -0.15102E-07  1370   0.739E-04    0.938E-05
RMM:  16    -0.413163769385E+03   -0.76816E-06   -0.96347E-08  1220   0.665E-04
  140 T=    61. E= -.41286652E+03 F= -.41316377E+03 E0= -.41314303E+03  EK= 0.29725E+00 SP= 0.00E+00 SK= 0.00E+00
       N       E                     dE             d eps       ncg     rms          rms(c)
RMM:   1    -0.413156946886E+03    0.68217E-02   -0.98873E+00  4264   0.929E-01    0.848E-01
RMM:   2    -0.413165649178E+03   -0.87023E-02   -0.11943E-01  4365   0.106E-01    0.617E-01
RMM:   3    -0.413164491459E+03    0.11577E-02   -0.80531E-03  5060   0.513E-02    0.164E-01
RMM:   4    -0.413202950833E+03   -0.38459E-01   -0.42077E-02  5150   0.171E-01    0.817E-01
RMM:   5    -0.413163670751E+03    0.39280E-01   -0.19113E-02  4802   0.138E-01    0.542E-02
RMM:   6    -0.413163705431E+03   -0.34680E-04   -0.31467E-03  5726   0.542E-02    0.231E-02
RMM:   7    -0.413163736797E+03   -0.31366E-04   -0.41974E-04  6023   0.175E-02    0.168E-02
RMM:   8    -0.413163744902E+03   -0.81046E-05   -0.75301E-05  5230   0.846E-03    0.861E-03
RMM:   9    -0.413163749416E+03   -0.45140E-05   -0.11879E-05  3459   0.382E-03    0.380E-03
RMM:  10    -0.413163754046E+03   -0.46302E-05   -0.25029E-06  2601   0.217E-03    0.249E-03
RMM:  11    -0.413163761024E+03   -0.69783E-05   -0.11794E-06  2507   0.171E-03    0.136E-03
RMM:  12    -0.413163765753E+03   -0.47289E-05   -0.58356E-07  2364   0.126E-03    0.529E-04
RMM:  13    -0.413163768817E+03   -0.30634E-05   -0.31549E-07  1939   0.938E-04    0.280E-04
RMM:  14    -0.413163771212E+03   -0.23953E-05   -0.19304E-07  1493   0.782E-04    0.176E-04
RMM:  15    -0.413163775763E+03   -0.45510E-05   -0.18345E-07  1494   0.773E-04    0.118E-04
RMM:  16    -0.413163777026E+03   -0.12631E-05   -0.10522E-07  1247   0.666E-04    0.830E-05
RMM:  17    -0.413163779393E+03   -0.23666E-05   -0.10097E-07  1366   0.664E-04    0.511E-05
RMM:  18    -0.413163780973E+03   -0.15799E-05   -0.68924E-08  1126   0.597E-04    0.286E-05
RMM:  19    -0.413163781200E+03   -0.22748E-06   -0.34721E-08   872   0.544E-04
  141 T=    60. E= -.41286690E+03 F= -.41316378E+03 E0= -.41314306E+03  EK= 0.29688E+00 SP= 0.00E+00 SK= 0.00E+00
       N       E                     dE             d eps       ncg     rms          rms(c)
RMM:   1    -0.413156982833E+03    0.67981E-02   -0.98403E+00  4264   0.937E-01    0.864E-01
RMM:   2    -0.413164608268E+03   -0.76254E-02   -0.11808E-01  4373   0.105E-01    0.619E-01
RMM:   3    -0.413163584727E+03    0.10235E-02   -0.83822E-03  5070   0.485E-02    0.157E-01
RMM:   4    -0.413199940021E+03   -0.36355E-01   -0.39263E-02  5147   0.166E-01    0.794E-01
RMM:   5    -0.413162909255E+03    0.37031E-01   -0.18150E-02  4810   0.134E-01    0.534E-02
RMM:   6    -0.413162935517E+03   -0.26262E-04   -0.29589E-03  5734   0.526E-02    0.244E-02
RMM:   7    -0.413162963964E+03   -0.28447E-04   -0.40678E-04  6017   0.173E-02    0.172E-02
RMM:   8    -0.413162969935E+03   -0.59709E-05   -0.75793E-05  5233   0.863E-03    0.856E-03
RMM:   9    -0.413162972140E+03   -0.22051E-05   -0.11233E-05  3445   0.377E-03    0.383E-03
RMM:  10    -0.413162975517E+03   -0.33769E-05   -0.23900E-06  2599   0.214E-03    0.254E-03
RMM:  11    -0.413162980471E+03   -0.49541E-05   -0.11572E-06  2507   0.170E-03    0.136E-03
RMM:  12    -0.413162984080E+03   -0.36085E-05   -0.58385E-07  2346   0.126E-03    0.491E-04
RMM:  13    -0.413162986272E+03   -0.21926E-05   -0.32044E-07  1962   0.946E-04    0.263E-04
RMM:  14    -0.413162987925E+03   -0.16526E-05   -0.19192E-07  1491   0.779E-04    0.172E-04
RMM:  15    -0.413162991082E+03   -0.31567E-05   -0.16494E-07  1363   0.750E-04    0.967E-05
RMM:  16    -0.413162992028E+03   -0.94587E-06   -0.10221E-07  1243   0.670E-04
  142 T=    60. E= -.41286670E+03 F= -.41316299E+03 E0= -.41314228E+03  EK= 0.29630E+00 SP= 0.00E+00 SK= 0.00E+00
       N       E                     dE             d eps       ncg     rms          rms(c)
RMM:   1    -0.413156568519E+03    0.64226E-02   -0.97087E+00  4264   0.914E-01    0.873E-01
RMM:   2    -0.413163781907E+03   -0.72134E-02   -0.11465E-01  4375   0.104E-01    0.611E-01
RMM:   3    -0.413162640706E+03    0.11412E-02   -0.86295E-03  5056   0.463E-02    0.149E-01
RMM:   4    -0.413194111414E+03   -0.31471E-01   -0.33287E-02  5151   0.153E-01    0.740E-01
RMM:   5    -0.413162190093E+03    0.31921E-01   -0.15805E-02  4815   0.124E-01    0.517E-02
RMM:   6    -0.413162208925E+03   -0.18833E-04   -0.25907E-03  5734   0.495E-02    0.265E-02
RMM:   7    -0.413162230833E+03   -0.21908E-04   -0.37355E-04  5981   0.168E-02    0.175E-02
RMM:   8    -0.413162233010E+03   -0.21765E-05   -0.75038E-05  5213   0.881E-03    0.836E-03
RMM:   9    -0.413162232317E+03    0.69249E-06   -0.99046E-06  3371   0.366E-03
  143 T=    60. E= -.41286658E+03 F= -.41316223E+03 E0= -.41314153E+03  EK= 0.29566E+00 SP= 0.00E+00 SK= 0.00E+00
       N       E                     dE             d eps       ncg     rms          rms(c)
RMM:   1    -0.413156965052E+03    0.52680E-02   -0.95444E+00  4265   0.928E-01    0.846E-01
RMM:   2    -0.413164247833E+03   -0.72828E-02   -0.11592E-01  4386   0.105E-01    0.613E-01
RMM:   3    -0.413163357218E+03    0.89061E-03   -0.92717E-03  5095   0.549E-02    0.179E-01
RMM:   4    -0.413201438656E+03   -0.38081E-01   -0.43817E-02  5142   0.175E-01    0.817E-01
RMM:   5    -0.413162178485E+03    0.39260E-01   -0.18787E-02  4805   0.138E-01    0.603E-02
RMM:   6    -0.413162155984E+03    0.22502E-04   -0.31197E-03  5693   0.545E-02    0.254E-02
RMM:   7    -0.413162192546E+03   -0.36562E-04   -0.43843E-04  6056   0.181E-02    0.175E-02
RMM:   8    -0.413162201475E+03   -0.89296E-05   -0.85619E-05  5350   0.923E-03    0.889E-03
RMM:   9    -0.413162204973E+03   -0.34976E-05   -0.13097E-05  3682   0.411E-03    0.381E-03
RMM:  10    -0.413162209079E+03   -0.41065E-05   -0.26209E-06  2616   0.221E-03    0.252E-03
RMM:  11    -0.413162216339E+03   -0.72596E-05   -0.14797E-06  2521   0.190E-03    0.152E-03
RMM:  12    -0.413162220758E+03   -0.44187E-05   -0.67241E-07  2465   0.136E-03    0.634E-04
RMM:  13    -0.413162223707E+03   -0.29495E-05   -0.34591E-07  1959   0.970E-04    0.332E-04
RMM:  14    -0.413162226359E+03   -0.26515E-05   -0.21876E-07  1536   0.807E-04    0.198E-04
RMM:  15    -0.413162230438E+03   -0.40795E-05   -0.20685E-07  1543   0.787E-04    0.134E-04
RMM:  16    -0.413162232234E+03   -0.17960E-05   -0.13009E-07  1373   0.682E-04    0.932E-05
RMM:  17    -0.413162234483E+03   -0.22484E-05   -0.11390E-07  1358   0.656E-04    0.546E-05
RMM:  18    -0.413162236537E+03   -0.20541E-05   -0.90123E-08  1225   0.613E-04    0.414E-05
RMM:  19    -0.413162236799E+03   -0.26191E-06   -0.41255E-08   894   0.541E-04
  144 T=    60. E= -.41286682E+03 F= -.41316224E+03 E0= -.41314155E+03  EK= 0.29541E+00 SP= 0.00E+00 SK= 0.00E+00
       N       E                     dE             d eps       ncg     rms          rms(c)
RMM:   1    -0.413156001275E+03    0.62353E-02   -0.95008E+00  4264   0.909E-01    0.855E-01
RMM:   2    -0.413163364729E+03   -0.73635E-02   -0.11420E-01  4379   0.102E-01    0.621E-01
RMM:   3    -0.413161513489E+03    0.18512E-02   -0.92739E-03  5015   0.444E-02    0.114E-01
RMM:   4    -0.413182331675E+03   -0.20818E-01   -0.21665E-02  5153   0.123E-01    0.604E-01
RMM:   5    -0.413161292778E+03    0.21039E-01   -0.10548E-02  4825   0.101E-01    0.450E-02
RMM:   6    -0.413161285871E+03    0.69066E-05   -0.17328E-03  5733   0.405E-02    0.256E-02
RMM:   7    -0.413161304170E+03   -0.18298E-04   -0.27308E-04  5888   0.147E-02    0.154E-02
RMM:   8    -0.413161310698E+03   -0.65281E-05   -0.61262E-05  5130   0.821E-03    0.724E-03
RMM:   9    -0.413161312723E+03   -0.20245E-05   -0.72536E-06  3138   0.321E-03    0.365E-03
RMM:  10    -0.413161316772E+03   -0.40495E-05   -0.15285E-06  2549   0.188E-03    0.236E-03
RMM:  11    -0.413161322718E+03   -0.59461E-05   -0.97731E-07  2485   0.156E-03    0.123E-03
RMM:  12    -0.413161327260E+03   -0.45418E-05   -0.54286E-07  2299   0.119E-03    0.423E-04
RMM:  13    -0.413161329624E+03   -0.23640E-05   -0.28506E-07  1851   0.896E-04    0.258E-04
RMM:  14    -0.413161331763E+03   -0.21390E-05   -0.17670E-07  1437   0.757E-04    0.172E-04
RMM:  15    -0.413161334892E+03   -0.31289E-05   -0.15366E-07  1377   0.725E-04    0.975E-05
RMM:  16    -0.413161336610E+03   -0.17180E-05   -0.10333E-07  1239   0.658E-04    0.755E-05
RMM:  17    -0.413161338361E+03   -0.17512E-05   -0.85534E-08  1221   0.636E-04    0.603E-05
RMM:  18    -0.413161339335E+03   -0.97383E-06   -0.54600E-08  1011   0.582E-04
  145 T=    60. E= -.41286647E+03 F= -.41316134E+03 E0= -.41314066E+03  EK= 0.29487E+00 SP= 0.00E+00 SK= 0.00E+00
       N       E                     dE             d eps       ncg     rms          rms(c)
RMM:   1    -0.413156711038E+03    0.46273E-02   -0.93756E+00  4264   0.902E-01    0.872E-01
RMM:   2    -0.413162978446E+03   -0.62674E-02   -0.11101E-01  4382   0.997E-02    0.613E-01
RMM:   3    -0.413161293188E+03    0.16853E-02   -0.95573E-03  4996   0.414E-02    0.115E-01
RMM:   4    -0.413174957818E+03   -0.13665E-01   -0.14275E-02  5162   0.101E-01    0.492E-01
RMM:   5    -0.413161197604E+03    0.13760E-01   -0.69995E-03  4838   0.822E-02    0.435E-02
RMM:   6    -0.413161183619E+03    0.13984E-04   -0.12155E-03  5718   0.345E-02    0.276E-02
RMM:   7    -0.413161190481E+03   -0.68618E-05   -0.23894E-04  5744   0.142E-02    0.152E-02
RMM:   8    -0.413161189796E+03    0.68504E-06   -0.54600E-05  5086   0.809E-03    0.704E-03
RMM:   9    -0.413161189407E+03    0.38880E-06   -0.53957E-06  3007   0.285E-03
  146 T=    60. E= -.41286669E+03 F= -.41316119E+03 E0= -.41314052E+03  EK= 0.29450E+00 SP= 0.00E+00 SK= 0.00E+00
       N       E                     dE             d eps       ncg     rms          rms(c)
RMM:   1    -0.413156535160E+03    0.46546E-02   -0.91789E+00  4266   0.910E-01    0.847E-01
RMM:   2    -0.413163114498E+03   -0.65793E-02   -0.10986E-01  4382   0.103E-01    0.610E-01
RMM:   3    -0.413161649075E+03    0.14654E-02   -0.10223E-02  5094   0.508E-02    0.150E-01
RMM:   4    -0.413196662526E+03   -0.35013E-01   -0.38828E-02  5145   0.165E-01    0.781E-01
RMM:   5    -0.413160876802E+03    0.35786E-01   -0.17382E-02  4815   0.131E-01    0.584E-02
RMM:   6    -0.413160857894E+03    0.18908E-04   -0.28690E-03  5701   0.521E-02    0.275E-02
RMM:   7    -0.413160889472E+03   -0.31578E-04   -0.42197E-04  6055   0.174E-02    0.173E-02
RMM:   8    -0.413160896318E+03   -0.68463E-05   -0.82033E-05  5325   0.927E-03    0.893E-03
RMM:   9    -0.413160897504E+03   -0.11863E-05   -0.11360E-05  3545   0.393E-03    0.393E-03
RMM:  10    -0.413160901177E+03   -0.36724E-05   -0.27304E-06  2639   0.225E-03    0.264E-03
RMM:  11    -0.413160906726E+03   -0.55493E-05   -0.14406E-06  2512   0.188E-03    0.151E-03
RMM:  12    -0.413160910868E+03   -0.41418E-05   -0.72410E-07  2450   0.139E-03    0.560E-04
RMM:  13    -0.413160913245E+03   -0.23773E-05   -0.36905E-07  2022   0.993E-04    0.321E-04
RMM:  14    -0.413160915398E+03   -0.21529E-05   -0.23153E-07  1593   0.817E-04    0.210E-04
RMM:  15    -0.413160918569E+03   -0.31708E-05   -0.20583E-07  1475   0.775E-04    0.116E-04
RMM:  16    -0.413160920251E+03   -0.16826E-05   -0.13945E-07  1422   0.694E-04    0.843E-05
RMM:  17    -0.413160922498E+03   -0.22462E-05   -0.13136E-07  1418   0.672E-04    0.622E-05
RMM:  18    -0.413160923684E+03   -0.11861E-05   -0.77543E-08  1120   0.589E-04    0.420E-05
RMM:  19    -0.413160924204E+03   -0.51990E-06   -0.43519E-08   908   0.544E-04
  147 T=    60. E= -.41286665E+03 F= -.41316092E+03 E0= -.41314026E+03  EK= 0.29428E+00 SP= 0.00E+00 SK= 0.00E+00
       N       E                     dE             d eps       ncg     rms          rms(c)
RMM:   1    -0.413156118405E+03    0.48053E-02   -0.91366E+00  4264   0.894E-01    0.849E-01
RMM:   2    -0.413162818897E+03   -0.67005E-02   -0.11015E-01  4371   0.101E-01    0.621E-01
RMM:   3    -0.413160263523E+03    0.25554E-02   -0.10752E-02  4845   0.420E-02    0.771E-02
RMM:   4    -0.413163781044E+03   -0.35175E-02   -0.40122E-03  5183   0.541E-02    0.251E-01
RMM:   5    -0.413160271776E+03    0.35093E-02   -0.18364E-03  4861   0.427E-02    0.374E-02
RMM:   6    -0.413160261567E+03    0.10208E-04   -0.41608E-04  5547   0.211E-02    0.258E-02
RMM:   7    -0.413160274824E+03   -0.13257E-04   -0.16917E-04  5459   0.119E-02    0.144E-02
RMM:   8    -0.413160274653E+03    0.17048E-06   -0.32106E-05  4829   0.674E-03    0.708E-03
RMM:   9    -0.413160276195E+03   -0.15414E-05   -0.40351E-06  2767   0.246E-03    0.317E-03
RMM:  10    -0.413160279930E+03   -0.37351E-05   -0.10335E-06  2494   0.162E-03    0.183E-03
RMM:  11    -0.413160288317E+03   -0.83871E-05   -0.82752E-07  2477   0.143E-03    0.927E-04
RMM:  12    -0.413160291511E+03   -0.31936E-05   -0.34341E-07  2015   0.973E-04    0.395E-04
RMM:  13    -0.413160294996E+03   -0.34856E-05   -0.22792E-07  1583   0.807E-04    0.213E-04
RMM:  14    -0.413160298538E+03   -0.35412E-05   -0.17222E-07  1420   0.736E-04    0.146E-04
RMM:  15    -0.413160301472E+03   -0.29343E-05   -0.13478E-07  1384   0.688E-04    0.131E-04
RMM:  16    -0.413160303926E+03   -0.24544E-05   -0.10872E-07  1296   0.640E-04    0.530E-05
RMM:  17    -0.413160305649E+03   -0.17229E-05   -0.75669E-08  1142   0.587E-04    0.495E-05
RMM:  18    -0.413160306098E+03   -0.44849E-06   -0.33830E-08   841   0.523E-04
  148 T=    60. E= -.41286643E+03 F= -.41316031E+03 E0= -.41313964E+03  EK= 0.29387E+00 SP= 0.00E+00 SK= 0.00E+00
       N       E                     dE             d eps       ncg     rms          rms(c)
RMM:   1    -0.413157287355E+03    0.30183E-02   -0.90105E+00  4264   0.895E-01    0.869E-01
RMM:   2    -0.413162654975E+03   -0.53676E-02   -0.10725E-01  4369   0.100E-01    0.616E-01
RMM:   3    -0.413160525744E+03    0.21292E-02   -0.10961E-02  4817   0.406E-02    0.878E-02
RMM:   4    -0.413160985252E+03   -0.45951E-03   -0.11203E-03  5235   0.277E-02    0.940E-02
RMM:   5    -0.413160574889E+03    0.41036E-03   -0.33211E-04  4960   0.187E-02    0.422E-02
RMM:   6    -0.413160552081E+03    0.22808E-04   -0.23978E-04  5297   0.163E-02    0.277E-02
RMM:   7    -0.413160548941E+03    0.31393E-05   -0.16088E-04  5147   0.116E-02    0.154E-02
RMM:   8    -0.413160543115E+03    0.58260E-05   -0.17924E-05  4320   0.577E-03    0.746E-03
RMM:   9    -0.413160543722E+03   -0.60664E-06   -0.49209E-06  2797   0.264E-03
  149 T=    60. E= -.41286672E+03 F= -.41316054E+03 E0= -.41313988E+03  EK= 0.29383E+00 SP= 0.00E+00 SK= 0.00E+00
       N       E                     dE             d eps       ncg     rms          rms(c)
RMM:   1    -0.413156900891E+03    0.36422E-02   -0.88086E+00  4264   0.891E-01    0.850E-01
RMM:   2    -0.413162579700E+03   -0.56788E-02   -0.10547E-01  4387   0.994E-02    0.610E-01
RMM:   3    -0.413160028315E+03    0.25514E-02   -0.11287E-02  4889   0.417E-02    0.820E-02
RMM:   4    -0.413164036768E+03   -0.40085E-02   -0.45989E-03  5187   0.581E-02    0.268E-01
RMM:   5    -0.413160035191E+03    0.40016E-02   -0.21104E-03  4861   0.458E-02    0.413E-02
RMM:   6    -0.413160017014E+03    0.18177E-04   -0.50961E-04  5523   0.233E-02    0.285E-02
RMM:   7    -0.413160022565E+03   -0.55510E-05   -0.18769E-04  5463   0.122E-02    0.149E-02
RMM:   8    -0.413160020694E+03    0.18707E-05   -0.30221E-05  4845   0.651E-03    0.728E-03
RMM:   9    -0.413160021955E+03   -0.12610E-05   -0.44200E-06  2758   0.245E-03    0.323E-03
RMM:  10    -0.413160024704E+03   -0.27488E-05   -0.10595E-06  2497   0.165E-03    0.189E-03
RMM:  11    -0.413160030183E+03   -0.54795E-05   -0.95895E-07  2493   0.150E-03    0.987E-04
RMM:  12    -0.413160032478E+03   -0.22945E-05   -0.40088E-07  2093   0.104E-03    0.452E-04
RMM:  13    -0.413160035047E+03   -0.25695E-05   -0.27676E-07  1755   0.852E-04    0.233E-04
RMM:  14    -0.413160037802E+03   -0.27542E-05   -0.21413E-07  1517   0.765E-04    0.166E-04
RMM:  15    -0.413160040034E+03   -0.22328E-05   -0.16206E-07  1423   0.704E-04    0.126E-04
RMM:  16    -0.413160042159E+03   -0.21247E-05   -0.14194E-07  1379   0.670E-04    0.596E-05
RMM:  17    -0.413160043776E+03   -0.16163E-05   -0.97160E-08  1187   0.605E-04    0.551E-05
RMM:  18    -0.413160044474E+03   -0.69816E-06   -0.49677E-08   953   0.537E-04
  150 T=    60. E= -.41286649E+03 F= -.41316004E+03 E0= -.41313939E+03  EK= 0.29356E+00 SP= 0.00E+00 SK= 0.00E+00
