       N       E                     dE             d eps       ncg     rms          rms(c)
RMM:   1     0.220103740542E+04    0.22010E+04   -0.52444E+04  2132   0.654E+02
RMM:   2     0.705413431666E+03   -0.14956E+04   -0.16261E+04  2132   0.177E+02
RMM:   3     0.137825259955E+03   -0.56759E+03   -0.65661E+03  2132   0.117E+02
RMM:   4    -0.159283728166E+03   -0.29711E+03   -0.27881E+03  2132   0.936E+01
RMM:   5    -0.287467784632E+03   -0.12818E+03   -0.11444E+03  2132   0.595E+01
RMM:   6    -0.349827748228E+03   -0.62360E+02   -0.55144E+02  2132   0.423E+01
RMM:   7    -0.382726107043E+03   -0.32898E+02   -0.30436E+02  2132   0.293E+01
RMM:   8    -0.404252720714E+03   -0.21527E+02   -0.18445E+02  2132   0.233E+01
RMM:   9    -0.436045487781E+03   -0.31793E+02   -0.30731E+02  6107   0.173E+01
RMM:  10    -0.441286845977E+03   -0.52414E+01   -0.62637E+01  6395   0.538E+00
RMM:  11    -0.442515447163E+03   -0.12286E+01   -0.11230E+01  6217   0.173E+00
RMM:  12    -0.442887427270E+03   -0.37198E+00   -0.27462E+00  6366   0.602E-01    0.134E+02
RMM:  13    -0.425595483694E+03    0.17292E+02   -0.80975E+01  4673   0.119E+01    0.712E+01
RMM:  14    -0.499273328427E+03   -0.73678E+02   -0.53888E+02  5416   0.232E+01    0.307E+01
RMM:  15    -0.416635352969E+03    0.82638E+02   -0.20136E+02  5114   0.164E+01    0.752E+00
RMM:  16    -0.414033972566E+03    0.26014E+01   -0.39755E+01  6094   0.613E+00    0.432E+00
RMM:  17    -0.413207682993E+03    0.82629E+00   -0.25898E+00  5390   0.191E+00    0.243E+00
RMM:  18    -0.413176986270E+03    0.30697E-01   -0.75428E-01  5988   0.891E-01    0.170E+00
RMM:  19    -0.413171395670E+03    0.55906E-02   -0.26134E-01  5683   0.555E-01    0.898E-01
RMM:  20    -0.413190422915E+03   -0.19027E-01   -0.29641E-01  5588   0.563E-01    0.638E-01
RMM:  21    -0.413168695331E+03    0.21728E-01   -0.35223E-02  4994   0.244E-01    0.299E-01
RMM:  22    -0.413165155065E+03    0.35403E-02   -0.23949E-02  5872   0.149E-01    0.136E-01
RMM:  23    -0.413164373073E+03    0.78199E-03   -0.55057E-03  6021   0.653E-02    0.850E-02
RMM:  24    -0.413163255338E+03    0.11177E-02   -0.17078E-03  5332   0.414E-02    0.530E-02
RMM:  25    -0.413162705100E+03    0.55024E-03   -0.86162E-04  5017   0.288E-02    0.405E-02
RMM:  26    -0.413162843618E+03   -0.13852E-03   -0.11131E-03  5794   0.340E-02    0.344E-02
RMM:  27    -0.413163264797E+03   -0.42118E-03   -0.20179E-04  4579   0.197E-02    0.202E-02
RMM:  28    -0.413163712923E+03   -0.44813E-03   -0.16722E-04  5123   0.179E-02    0.921E-03
RMM:  29    -0.413164120145E+03   -0.40722E-03   -0.11672E-04  4629   0.157E-02    0.465E-03
RMM:  30    -0.413164356515E+03   -0.23637E-03   -0.80048E-05  4387   0.105E-02    0.450E-03
RMM:  31    -0.413164504217E+03   -0.14770E-03   -0.59299E-05  3268   0.761E-03    0.370E-03
RMM:  32    -0.413164532328E+03   -0.28111E-04   -0.22961E-05  2991   0.324E-03    0.201E-03
RMM:  33    -0.413164545670E+03   -0.13342E-04   -0.93572E-06  2833   0.234E-03    0.722E-04
RMM:  34    -0.413164548941E+03   -0.32708E-05   -0.51175E-06  2647   0.168E-03    0.545E-04
RMM:  35    -0.413164549538E+03   -0.59650E-06   -0.24437E-06  2428   0.134E-03
    1 T=    61. E= -.41286674E+03 F= -.41316455E+03 E0= -.41314205E+03  EK= 0.29781E+00 SP= 0.00E+00 SK= 0.00E+00
       N       E                     dE             d eps       ncg     rms          rms(c)
RMM:   1    -0.413158315097E+03    0.62338E-02   -0.10259E+01  3999   0.669E-01    0.885E-01
RMM:   2    -0.413166922210E+03   -0.86071E-02   -0.12589E-01  3929   0.938E-02    0.645E-01
RMM:   3    -0.413164421988E+03    0.25002E-02   -0.95600E-03  4690   0.395E-02    0.116E-01
RMM:   4    -0.413180574355E+03   -0.16152E-01   -0.16973E-02  5213   0.108E-01    0.533E-01
RMM:   5    -0.413164162522E+03    0.16412E-01   -0.81897E-03  4856   0.892E-02    0.381E-02
RMM:   6    -0.413164275051E+03   -0.11253E-03   -0.14124E-03  5805   0.363E-02    0.261E-02
RMM:   7    -0.413164279589E+03   -0.45379E-05   -0.26355E-04  5702   0.148E-02    0.153E-02
RMM:   8    -0.413164281188E+03   -0.15992E-05   -0.32449E-05  4617   0.614E-03    0.655E-03
RMM:   9    -0.413164284972E+03   -0.37838E-05   -0.68724E-06  3139   0.287E-03    0.518E-03
RMM:  10    -0.413164290051E+03   -0.50797E-05   -0.14287E-06  2536   0.182E-03    0.322E-03
RMM:  11    -0.413164296483E+03   -0.64315E-05   -0.12799E-06  2521   0.165E-03    0.147E-03
RMM:  12    -0.413164302912E+03   -0.64288E-05   -0.10991E-06  2478   0.145E-03    0.657E-04
RMM:  13    -0.413164303609E+03   -0.69703E-06   -0.42523E-07  2038   0.953E-04
    2 T=    61. E= -.41286648E+03 F= -.41316430E+03 E0= -.41314180E+03  EK= 0.29783E+00 SP= 0.00E+00 SK= 0.00E+00
       N       E                     dE             d eps       ncg     rms          rms(c)
RMM:   1    -0.413159310423E+03    0.49925E-02   -0.10280E+01  4186   0.670E-01    0.908E-01
RMM:   2    -0.413166919647E+03   -0.76092E-02   -0.12365E-01  3960   0.924E-02    0.639E-01
RMM:   3    -0.413164996499E+03    0.19231E-02   -0.96109E-03  4803   0.389E-02    0.133E-01
RMM:   4    -0.413187089054E+03   -0.22093E-01   -0.22620E-02  5185   0.126E-01    0.622E-01
RMM:   5    -0.413164680387E+03    0.22409E-01   -0.10969E-02  4837   0.104E-01    0.417E-02
RMM:   6    -0.413164829876E+03   -0.14949E-03   -0.18734E-03  5812   0.419E-02    0.275E-02
RMM:   7    -0.413164829704E+03    0.17158E-06   -0.30647E-04  5739   0.162E-02    0.171E-02
RMM:   8    -0.413164824395E+03    0.53094E-05   -0.48702E-05  4966   0.743E-03    0.800E-03
RMM:   9    -0.413164823343E+03    0.10516E-05   -0.99556E-06  3596   0.355E-03    0.620E-03
RMM:  10    -0.413164824004E+03   -0.66061E-06   -0.15200E-06  2551   0.199E-03
    3 T=    61. E= -.41286673E+03 F= -.41316482E+03 E0= -.41314233E+03  EK= 0.29810E+00 SP= 0.00E+00 SK= 0.00E+00
       N       E                     dE             d eps       ncg     rms          rms(c)
RMM:   1    -0.413158743783E+03    0.60796E-02   -0.10196E+01  4223   0.671E-01    0.892E-01
RMM:   2    -0.413166727052E+03   -0.79833E-02   -0.12291E-01  4131   0.937E-02    0.633E-01
RMM:   3    -0.413167347838E+03   -0.62079E-03   -0.11382E-02  5124   0.630E-02    0.252E-01
RMM:   4    -0.413199156626E+03   -0.31809E-01   -0.44033E-02  5141   0.177E-01    0.768E-01
RMM:   5    -0.413164464364E+03    0.34692E-01   -0.14965E-02  4760   0.128E-01    0.579E-02
RMM:   6    -0.413164569129E+03   -0.10477E-03   -0.26090E-03  5602   0.508E-02    0.274E-02
RMM:   7    -0.413164591639E+03   -0.22509E-04   -0.39704E-04  6054   0.169E-02    0.174E-02
RMM:   8    -0.413164591391E+03    0.24778E-06   -0.67841E-05  5279   0.868E-03    0.787E-03
RMM:   9    -0.413164589429E+03    0.19614E-05   -0.10783E-05  3536   0.375E-03    0.385E-03
RMM:  10    -0.413164590815E+03   -0.13854E-05   -0.24856E-06  2624   0.222E-03    0.266E-03
RMM:  11    -0.413164592513E+03   -0.16980E-05   -0.13564E-06  2530   0.181E-03    0.145E-03
RMM:  12    -0.413164593543E+03   -0.10304E-05   -0.76304E-07  2489   0.140E-03    0.485E-04
RMM:  13    -0.413164594076E+03   -0.53298E-06   -0.37423E-07  2030   0.985E-04
    4 T=    61. E= -.41286653E+03 F= -.41316459E+03 E0= -.41314211E+03  EK= 0.29807E+00 SP= 0.00E+00 SK= 0.00E+00
       N       E                     dE             d eps       ncg     rms          rms(c)
RMM:   1    -0.413158692499E+03    0.59010E-02   -0.10243E+01  4235   0.678E-01    0.883E-01
RMM:   2    -0.413167330155E+03   -0.86377E-02   -0.12571E-01  4035   0.936E-02    0.644E-01
RMM:   3    -0.413165053653E+03    0.22765E-02   -0.96322E-03  4884   0.413E-02    0.129E-01
RMM:   4    -0.413192718254E+03   -0.27665E-01   -0.28538E-02  5163   0.141E-01    0.694E-01
RMM:   5    -0.413164580276E+03    0.28138E-01   -0.13605E-02  4817   0.116E-01    0.432E-02
RMM:   6    -0.413164766077E+03   -0.18580E-03   -0.23224E-03  5780   0.463E-02    0.274E-02
RMM:   7    -0.413164775530E+03   -0.94535E-05   -0.34402E-04  5796   0.165E-02    0.175E-02
RMM:   8    -0.413164776443E+03   -0.91303E-06   -0.54407E-05  4992   0.764E-03    0.825E-03
RMM:   9    -0.413164778306E+03   -0.18622E-05   -0.11288E-05  3732   0.379E-03    0.617E-03
RMM:  10    -0.413164782523E+03   -0.42172E-05   -0.16210E-06  2563   0.199E-03    0.403E-03
RMM:  11    -0.413164788030E+03   -0.55070E-05   -0.14651E-06  2542   0.187E-03    0.186E-03
RMM:  12    -0.413164793540E+03   -0.55102E-05   -0.13929E-06  2543   0.170E-03    0.778E-04
RMM:  13    -0.413164794026E+03   -0.48586E-06   -0.37013E-07  2183   0.105E-03
    5 T=    61. E= -.41286663E+03 F= -.41316479E+03 E0= -.41314232E+03  EK= 0.29816E+00 SP= 0.00E+00 SK= 0.00E+00
       N       E                     dE             d eps       ncg     rms          rms(c)
RMM:   1    -0.413159635246E+03    0.51583E-02   -0.10271E+01  4250   0.682E-01    0.903E-01
RMM:   2    -0.413167386490E+03   -0.77512E-02   -0.12381E-01  4095   0.950E-02    0.641E-01
RMM:   3    -0.413165431465E+03    0.19550E-02   -0.96112E-03  4733   0.401E-02    0.129E-01
RMM:   4    -0.413185809073E+03   -0.20378E-01   -0.20715E-02  5161   0.120E-01    0.598E-01
RMM:   5    -0.413165116643E+03    0.20692E-01   -0.10170E-02  4830   0.993E-02    0.403E-02
RMM:   6    -0.413165248042E+03   -0.13140E-03   -0.17149E-03  5805   0.397E-02    0.261E-02
RMM:   7    -0.413165249675E+03   -0.16331E-05   -0.27718E-04  5711   0.156E-02    0.165E-02
RMM:   8    -0.413165244261E+03    0.54139E-05   -0.47274E-05  4903   0.737E-03    0.785E-03
RMM:   9    -0.413165243188E+03    0.10731E-05   -0.93592E-06  3550   0.353E-03    0.616E-03
RMM:  10    -0.413165243762E+03   -0.57408E-06   -0.13867E-06  2540   0.198E-03
    6 T=    61. E= -.41286684E+03 F= -.41316524E+03 E0= -.41314278E+03  EK= 0.29841E+00 SP= 0.00E+00 SK= 0.00E+00
       N       E                     dE             d eps       ncg     rms          rms(c)
RMM:   1    -0.413159363735E+03    0.58795E-02   -0.10216E+01  4256   0.685E-01    0.899E-01
RMM:   2    -0.413167049928E+03   -0.76862E-02   -0.12299E-01  4168   0.926E-02    0.634E-01
RMM:   3    -0.413167330021E+03   -0.28009E-03   -0.11176E-02  5101   0.598E-02    0.236E-01
RMM:   4    -0.413201585738E+03   -0.34256E-01   -0.44894E-02  5127   0.178E-01    0.790E-01
RMM:   5    -0.413164889199E+03    0.36697E-01   -0.16214E-02  4768   0.131E-01    0.572E-02
RMM:   6    -0.413165015073E+03   -0.12587E-03   -0.27526E-03  5615   0.521E-02    0.281E-02
RMM:   7    -0.413165033707E+03   -0.18634E-04   -0.41026E-04  6040   0.171E-02    0.178E-02
RMM:   8    -0.413165031802E+03    0.19048E-05   -0.67299E-05  5257   0.858E-03    0.801E-03
RMM:   9    -0.413165028195E+03    0.36067E-05   -0.11054E-05  3567   0.376E-03    0.404E-03
RMM:  10    -0.413165028210E+03   -0.14923E-07   -0.25910E-06  2623   0.225E-03
    7 T=    61. E= -.41286653E+03 F= -.41316503E+03 E0= -.41314258E+03  EK= 0.29850E+00 SP= 0.00E+00 SK= 0.00E+00
       N       E                     dE             d eps       ncg     rms          rms(c)
RMM:   1    -0.413159567844E+03    0.54604E-02   -0.10221E+01  4264   0.691E-01    0.882E-01
RMM:   2    -0.413168084036E+03   -0.85162E-02   -0.12510E-01  4156   0.928E-02    0.642E-01
RMM:   3    -0.413166770497E+03    0.13135E-02   -0.10299E-02  5057   0.520E-02    0.183E-01
RMM:   4    -0.413209185594E+03   -0.42415E-01   -0.48240E-02  5137   0.183E-01    0.860E-01
RMM:   5    -0.413165318765E+03    0.43867E-01   -0.20430E-02  4802   0.143E-01    0.530E-02
RMM:   6    -0.413165528322E+03   -0.20956E-03   -0.33057E-03  5739   0.569E-02    0.284E-02
RMM:   7    -0.413165548366E+03   -0.20044E-04   -0.46581E-04  5974   0.183E-02    0.192E-02
RMM:   8    -0.413165550623E+03   -0.22573E-05   -0.75106E-05  5249   0.869E-03    0.921E-03
RMM:   9    -0.413165550382E+03    0.24131E-06   -0.14598E-05  3950   0.418E-03    0.536E-03
RMM:  10    -0.413165553844E+03   -0.34620E-05   -0.27060E-06  2633   0.221E-03    0.361E-03
RMM:  11    -0.413165557114E+03   -0.32701E-05   -0.11943E-06  2522   0.169E-03    0.184E-03
RMM:  12    -0.413165560777E+03   -0.36630E-05   -0.12220E-06  2532   0.162E-03    0.570E-04
RMM:  13    -0.413165562058E+03   -0.12807E-05   -0.52844E-07  2232   0.114E-03    0.470E-04
RMM:  14    -0.413165561977E+03    0.80945E-07   -0.22141E-07  1678   0.805E-04
    8 T=    61. E= -.41286673E+03 F= -.41316556E+03 E0= -.41314313E+03  EK= 0.29883E+00 SP= 0.00E+00 SK= 0.00E+00
       N       E                     dE             d eps       ncg     rms          rms(c)
RMM:   1    -0.413160259589E+03    0.53025E-02   -0.10273E+01  4281   0.704E-01    0.898E-01
RMM:   2    -0.413168150126E+03   -0.78905E-02   -0.12458E-01  4158   0.944E-02    0.644E-01
RMM:   3    -0.413166060721E+03    0.20894E-02   -0.97540E-03  4846   0.415E-02    0.133E-01
RMM:   4    -0.413193170227E+03   -0.27110E-01   -0.27996E-02  5148   0.139E-01    0.688E-01
RMM:   5    -0.413165562680E+03    0.27608E-01   -0.13465E-02  4813   0.114E-01    0.437E-02
RMM:   6    -0.413165743255E+03   -0.18058E-03   -0.22914E-03  5783   0.459E-02    0.283E-02
RMM:   7    -0.413165746155E+03   -0.28993E-05   -0.34620E-04  5735   0.167E-02    0.179E-02
RMM:   8    -0.413165742299E+03    0.38554E-05   -0.52930E-05  4997   0.762E-03    0.837E-03
RMM:   9    -0.413165740841E+03    0.14582E-05   -0.10942E-05  3680   0.373E-03    0.630E-03
RMM:  10    -0.413165741629E+03   -0.78806E-06   -0.15612E-06  2554   0.199E-03
    9 T=    61. E= -.41286664E+03 F= -.41316574E+03 E0= -.41314333E+03  EK= 0.29910E+00 SP= 0.00E+00 SK= 0.00E+00
       N       E                     dE             d eps       ncg     rms          rms(c)
RMM:   1    -0.413160355979E+03    0.53849E-02   -0.10247E+01  4292   0.698E-01    0.906E-01
RMM:   2    -0.413167845394E+03   -0.74894E-02   -0.12306E-01  4257   0.935E-02    0.636E-01
RMM:   3    -0.413168656465E+03   -0.81107E-03   -0.11769E-02  5087   0.652E-02    0.257E-01
RMM:   4    -0.413199284267E+03   -0.30628E-01   -0.43189E-02  5115   0.175E-01    0.757E-01
RMM:   5    -0.413165704488E+03    0.33580E-01   -0.14525E-02  4748   0.125E-01    0.568E-02
RMM:   6    -0.413165810661E+03   -0.10617E-03   -0.25019E-03  5595   0.496E-02    0.282E-02
RMM:   7    -0.413165823621E+03   -0.12960E-04   -0.37970E-04  6011   0.168E-02    0.177E-02
RMM:   8    -0.413165819501E+03    0.41199E-05   -0.65677E-05  5242   0.861E-03    0.788E-03
RMM:   9    -0.413165814476E+03    0.50249E-05   -0.10279E-05  3495   0.372E-03    0.390E-03
RMM:  10    -0.413165813296E+03    0.11807E-05   -0.23836E-06  2600   0.222E-03    0.269E-03
RMM:  11    -0.413165811524E+03    0.17720E-05   -0.12563E-06  2520   0.177E-03    0.142E-03
RMM:  12    -0.413165809651E+03    0.18726E-05   -0.74684E-07  2471   0.138E-03    0.461E-04
RMM:  13    -0.413165808736E+03    0.91467E-06   -0.36146E-07  2027   0.976E-04
   10 T=    61. E= -.41286647E+03 F= -.41316581E+03 E0= -.41314342E+03  EK= 0.29934E+00 SP= 0.00E+00 SK= 0.00E+00
       N       E                     dE             d eps       ncg     rms          rms(c)
RMM:   1    -0.413160617782E+03    0.51919E-02   -0.10201E+01  4291   0.702E-01    0.883E-01
RMM:   2    -0.413168949238E+03   -0.83315E-02   -0.12442E-01  4211   0.933E-02    0.639E-01
RMM:   3    -0.413166961506E+03    0.19877E-02   -0.96122E-03  4881   0.433E-02    0.136E-01
RMM:   4    -0.413197830975E+03   -0.30869E-01   -0.32143E-02  5140   0.149E-01    0.732E-01
RMM:   5    -0.413166367110E+03    0.31464E-01   -0.15264E-02  4800   0.122E-01    0.452E-02
RMM:   6    -0.413166565847E+03   -0.19874E-03   -0.25789E-03  5768   0.488E-02    0.284E-02
RMM:   7    -0.413166572155E+03   -0.63082E-05   -0.37399E-04  5770   0.172E-02    0.183E-02
RMM:   8    -0.413166569154E+03    0.30019E-05   -0.60146E-05  5029   0.799E-03    0.885E-03
RMM:   9    -0.413166567633E+03    0.15208E-05   -0.12699E-05  3868   0.400E-03    0.649E-03
RMM:  10    -0.413166568844E+03   -0.12109E-05   -0.17576E-06  2562   0.205E-03    0.422E-03
RMM:  11    -0.413166570494E+03   -0.16501E-05   -0.15997E-06  2553   0.194E-03    0.195E-03
RMM:  12    -0.413166572011E+03   -0.15169E-05   -0.14102E-06  2534   0.175E-03    0.794E-04
RMM:  13    -0.413166572112E+03   -0.10095E-06   -0.39175E-07  2205   0.109E-03
   11 T=    61. E= -.41286679E+03 F= -.41316657E+03 E0= -.41314421E+03  EK= 0.29978E+00 SP= 0.00E+00 SK= 0.00E+00
       N       E                     dE             d eps       ncg     rms          rms(c)
RMM:   1    -0.413160737516E+03    0.58345E-02   -0.10272E+01  4297   0.709E-01    0.894E-01
RMM:   2    -0.413169011392E+03   -0.82739E-02   -0.12540E-01  4226   0.953E-02    0.646E-01
RMM:   3    -0.413166783123E+03    0.22283E-02   -0.97646E-03  4806   0.418E-02    0.128E-01
RMM:   4    -0.413191985698E+03   -0.25203E-01   -0.25946E-02  5139   0.134E-01    0.663E-01
RMM:   5    -0.413166374019E+03    0.25612E-01   -0.12526E-02  4808   0.110E-01    0.422E-02
RMM:   6    -0.413166539959E+03   -0.16594E-03   -0.21275E-03  5801   0.439E-02    0.268E-02
RMM:   7    -0.413166545249E+03   -0.52903E-05   -0.31037E-04  5734   0.162E-02    0.171E-02
RMM:   8    -0.413166541391E+03    0.38582E-05   -0.56247E-05  4974   0.781E-03    0.853E-03
RMM:   9    -0.413166539867E+03    0.15237E-05   -0.11523E-05  3810   0.388E-03    0.650E-03
RMM:  10    -0.413166540892E+03   -0.10253E-05   -0.15283E-06  2546   0.200E-03    0.420E-03
RMM:  11    -0.413166542275E+03   -0.13824E-05   -0.15464E-06  2547   0.194E-03    0.195E-03
RMM:  12    -0.413166543386E+03   -0.11115E-05   -0.12337E-06  2508   0.167E-03    0.719E-04
RMM:  13    -0.413166543449E+03   -0.62289E-07   -0.36668E-07  2171   0.104E-03
   12 T=    61. E= -.41286657E+03 F= -.41316654E+03 E0= -.41314421E+03  EK= 0.29997E+00 SP= 0.00E+00 SK= 0.00E+00
       N       E                     dE             d eps       ncg     rms          rms(c)
RMM:   1    -0.413161787793E+03    0.47556E-02   -0.10268E+01  4294   0.711E-01    0.910E-01
RMM:   2    -0.413168990315E+03   -0.72025E-02   -0.12330E-01  4244   0.936E-02    0.638E-01
RMM:   3    -0.413167377425E+03    0.16129E-02   -0.98665E-03  4848   0.403E-02    0.139E-01
RMM:   4    -0.413193805953E+03   -0.26429E-01   -0.27266E-02  5139   0.137E-01    0.679E-01
RMM:   5    -0.413166921259E+03    0.26885E-01   -0.13169E-02  4806   0.113E-01    0.442E-02
RMM:   6    -0.413167089697E+03   -0.16844E-03   -0.22482E-03  5808   0.453E-02    0.286E-02
RMM:   7    -0.413167086916E+03    0.27805E-05   -0.33510E-04  5709   0.170E-02    0.181E-02
RMM:   8    -0.413167077480E+03    0.94360E-05   -0.57892E-05  4982   0.799E-03    0.891E-03
RMM:   9    -0.413167072531E+03    0.49493E-05   -0.11609E-05  3798   0.389E-03    0.677E-03
RMM:  10    -0.413167069647E+03    0.28844E-05   -0.15935E-06  2550   0.205E-03    0.431E-03
RMM:  11    -0.413167066241E+03    0.34057E-05   -0.14818E-06  2536   0.192E-03    0.205E-03
RMM:  12    -0.413167062130E+03    0.41109E-05   -0.13364E-06  2522   0.175E-03    0.774E-04
RMM:  13    -0.413167061407E+03    0.72247E-06   -0.39989E-07  2230   0.110E-03
   13 T=    61. E= -.41286664E+03 F= -.41316706E+03 E0= -.41314476E+03  EK= 0.30042E+00 SP= 0.00E+00 SK= 0.00E+00
       N       E                     dE             d eps       ncg     rms          rms(c)
RMM:   1    -0.413161882636E+03    0.51795E-02   -0.10192E+01  4294   0.715E-01    0.886E-01
RMM:   2    -0.413170067839E+03   -0.81852E-02   -0.12414E-01  4239   0.930E-02    0.638E-01
RMM:   3    -0.413168027603E+03    0.20402E-02   -0.95790E-03  4819   0.407E-02    0.131E-01
RMM:   4    -0.413193322002E+03   -0.25294E-01   -0.26084E-02  5137   0.134E-01    0.664E-01
RMM:   5    -0.413167592886E+03    0.25729E-01   -0.12578E-02  4807   0.110E-01    0.427E-02
RMM:   6    -0.413167758668E+03   -0.16578E-03   -0.21678E-03  5800   0.440E-02    0.272E-02
RMM:   7    -0.413167762667E+03   -0.39996E-05   -0.31516E-04  5723   0.163E-02    0.173E-02
RMM:   8    -0.413167756694E+03    0.59734E-05   -0.57206E-05  4973   0.789E-03    0.864E-03
RMM:   9    -0.413167753769E+03    0.29251E-05   -0.11711E-05  3836   0.391E-03    0.660E-03
RMM:  10    -0.413167753350E+03    0.41866E-06   -0.15395E-06  2546   0.201E-03
   14 T=    61. E= -.41286673E+03 F= -.41316775E+03 E0= -.41314548E+03  EK= 0.30102E+00 SP= 0.00E+00 SK= 0.00E+00
       N       E                     dE             d eps       ncg     rms          rms(c)
RMM:   1    -0.413162680189E+03    0.50736E-02   -0.10286E+01  4304   0.732E-01    0.890E-01
RMM:   2    -0.413170474423E+03   -0.77942E-02   -0.12777E-01  4288   0.977E-02    0.649E-01
RMM:   3    -0.413170999619E+03   -0.52520E-03   -0.12131E-02  5103   0.668E-02    0.264E-01
RMM:   4    -0.413204514595E+03   -0.33515E-01   -0.47833E-02  5107   0.184E-01    0.790E-01
RMM:   5    -0.413167643380E+03    0.36871E-01   -0.15888E-02  4745   0.130E-01    0.572E-02
RMM:   6    -0.413167752321E+03   -0.10894E-03   -0.26516E-03  5617   0.512E-02    0.269E-02
RMM:   7    -0.413167772354E+03   -0.20032E-04   -0.39393E-04  6017   0.169E-02    0.174E-02
RMM:   8    -0.413167773345E+03   -0.99111E-06   -0.69494E-05  5243   0.875E-03    0.804E-03
RMM:   9    -0.413167771110E+03    0.22351E-05   -0.11467E-05  3607   0.388E-03    0.373E-03
RMM:  10    -0.413167772401E+03   -0.12916E-05   -0.26090E-06  2622   0.223E-03    0.260E-03
RMM:  11    -0.413167773682E+03   -0.12806E-05   -0.13376E-06  2520   0.179E-03    0.140E-03
RMM:  12    -0.413167774266E+03   -0.58410E-06   -0.75617E-07  2467   0.138E-03
   15 T=    61. E= -.41286636E+03 F= -.41316777E+03 E0= -.41314554E+03  EK= 0.30142E+00 SP= 0.00E+00 SK= 0.00E+00
       N       E                     dE             d eps       ncg     rms          rms(c)
RMM:   1    -0.413164108550E+03    0.36651E-02   -0.10300E+01  4297   0.736E-01    0.912E-01
RMM:   2    -0.413170990298E+03   -0.68817E-02   -0.12399E-01  4260   0.958E-02    0.642E-01
RMM:   3    -0.413169387049E+03    0.16032E-02   -0.10179E-02  4936   0.450E-02    0.154E-01
RMM:   4    -0.413205358202E+03   -0.35971E-01   -0.38064E-02  5134   0.162E-01    0.790E-01
RMM:   5    -0.413168611188E+03    0.36747E-01   -0.17738E-02  4792   0.132E-01    0.490E-02
RMM:   6    -0.413168825494E+03   -0.21431E-03   -0.30277E-03  5757   0.530E-02    0.309E-02
RMM:   7    -0.413168823908E+03    0.15861E-05   -0.43228E-04  5794   0.185E-02    0.201E-02
RMM:   8    -0.413168814792E+03    0.91152E-05   -0.70305E-05  5119   0.862E-03    0.995E-03
RMM:   9    -0.413168808134E+03    0.66585E-05   -0.14367E-05  4045   0.425E-03    0.700E-03
RMM:  10    -0.413168804393E+03    0.37410E-05   -0.21167E-06  2584   0.217E-03    0.449E-03
RMM:  11    -0.413168800849E+03    0.35439E-05   -0.14125E-06  2526   0.186E-03    0.231E-03
RMM:  12    -0.413168795471E+03    0.53777E-05   -0.16086E-06  2555   0.192E-03    0.853E-04
RMM:  13    -0.413168793942E+03    0.15296E-05   -0.48119E-07  2320   0.122E-03    0.596E-04
RMM:  14    -0.413168793976E+03   -0.34612E-07   -0.22018E-07  1824   0.829E-04
   16 T=    62. E= -.41286669E+03 F= -.41316879E+03 E0= -.41314660E+03  EK= 0.30210E+00 SP= 0.00E+00 SK= 0.00E+00
       N       E                     dE             d eps       ncg     rms          rms(c)
RMM:   1    -0.413163614497E+03    0.51794E-02   -0.10209E+01  4300   0.723E-01    0.892E-01
RMM:   2    -0.413171614585E+03   -0.80001E-02   -0.12408E-01  4259   0.942E-02    0.638E-01
RMM:   3    -0.413169576608E+03    0.20380E-02   -0.96761E-03  4872   0.413E-02    0.137E-01
RMM:   4    -0.413198047015E+03   -0.28470E-01   -0.29544E-02  5134   0.143E-01    0.704E-01
RMM:   5    -0.413169079205E+03    0.28968E-01   -0.14147E-02  4795   0.117E-01    0.448E-02
RMM:   6    -0.413169257160E+03   -0.17795E-03   -0.24215E-03  5789   0.469E-02    0.287E-02
RMM:   7    -0.413169257144E+03    0.15098E-07   -0.35554E-04  5713   0.171E-02    0.183E-02
RMM:   8    -0.413169249599E+03    0.75459E-05   -0.60600E-05  5017   0.810E-03    0.902E-03
RMM:   9    -0.413169244919E+03    0.46800E-05   -0.12374E-05  3867   0.399E-03    0.670E-03
RMM:  10    -0.413169242778E+03    0.21408E-05   -0.16451E-06  2550   0.205E-03    0.431E-03
RMM:  11    -0.413169240176E+03    0.26014E-05   -0.15113E-06  2535   0.193E-03    0.201E-03
RMM:  12    -0.413169236977E+03    0.31997E-05   -0.13111E-06  2519   0.175E-03    0.772E-04
RMM:  13    -0.413169236415E+03    0.56142E-06   -0.38891E-07  2202   0.110E-03
   17 T=    62. E= -.41286663E+03 F= -.41316924E+03 E0= -.41314708E+03  EK= 0.30261E+00 SP= 0.00E+00 SK= 0.00E+00
       N       E                     dE             d eps       ncg     rms          rms(c)
RMM:   1    -0.413163969368E+03    0.52676E-02   -0.10281E+01  4299   0.733E-01    0.889E-01
RMM:   2    -0.413172409530E+03   -0.84402E-02   -0.12657E-01  4264   0.957E-02    0.649E-01
RMM:   3    -0.413170059921E+03    0.23496E-02   -0.10078E-02  4871   0.431E-02    0.130E-01
RMM:   4    -0.413199771660E+03   -0.29712E-01   -0.30944E-02  5133   0.146E-01    0.718E-01
RMM:   5    -0.413169512873E+03    0.30259E-01   -0.14802E-02  4794   0.120E-01    0.444E-02
RMM:   6    -0.413169695983E+03   -0.18311E-03   -0.24876E-03  5797   0.478E-02    0.278E-02
RMM:   7    -0.413169703059E+03   -0.70761E-05   -0.34919E-04  5752   0.170E-02    0.179E-02
RMM:   8    -0.413169699123E+03    0.39355E-05   -0.64326E-05  5025   0.820E-03    0.916E-03
RMM:   9    -0.413169696134E+03    0.29887E-05   -0.13213E-05  4000   0.413E-03    0.670E-03
RMM:  10    -0.413169696345E+03   -0.21102E-06   -0.17906E-06  2560   0.206E-03
   18 T=    62. E= -.41286653E+03 F= -.41316970E+03 E0= -.41314758E+03  EK= 0.30316E+00 SP= 0.00E+00 SK= 0.00E+00
       N       E                     dE             d eps       ncg     rms          rms(c)
RMM:   1    -0.413165644715E+03    0.40514E-02   -0.10309E+01  4307   0.734E-01    0.911E-01
RMM:   2    -0.413173181862E+03   -0.75371E-02   -0.12484E-01  4308   0.990E-02    0.645E-01
RMM:   3    -0.413174686797E+03   -0.15049E-02   -0.12815E-02  5105   0.703E-02    0.285E-01
RMM:   4    -0.413202310296E+03   -0.27623E-01   -0.43339E-02  5088   0.175E-01    0.732E-01
RMM:   5    -0.413170882322E+03    0.31428E-01   -0.13186E-02  4715   0.121E-01    0.562E-02
RMM:   6    -0.413170963031E+03   -0.80709E-04   -0.23226E-03  5573   0.478E-02    0.283E-02
RMM:   7    -0.413170970496E+03   -0.74651E-05   -0.35749E-04  5998   0.165E-02    0.178E-02
RMM:   8    -0.413170964018E+03    0.64780E-05   -0.65263E-05  5207   0.866E-03    0.790E-03
RMM:   9    -0.413170956847E+03    0.71705E-05   -0.10241E-05  3525   0.378E-03    0.380E-03
RMM:  10    -0.413170954323E+03    0.25241E-05   -0.21664E-06  2573   0.216E-03    0.258E-03
RMM:  11    -0.413170950292E+03    0.40309E-05   -0.12241E-06  2515   0.176E-03    0.142E-03
RMM:  12    -0.413170946700E+03    0.35918E-05   -0.65915E-07  2449   0.135E-03    0.459E-04
RMM:  13    -0.413170944793E+03    0.19070E-05   -0.32179E-07  1995   0.950E-04    0.282E-04
RMM:  14    -0.413170943113E+03    0.16801E-05   -0.19056E-07  1507   0.772E-04    0.196E-04
RMM:  15    -0.413170940363E+03    0.27502E-05   -0.16143E-07  1351   0.725E-04    0.953E-05
RMM:  16    -0.413170937999E+03    0.23641E-05   -0.13097E-07  1371   0.689E-04    0.101E-04
RMM:  17    -0.413170935316E+03    0.26829E-05   -0.11964E-07  1389   0.661E-04    0.569E-05
RMM:  18    -0.413170933623E+03    0.16925E-05   -0.71653E-08  1082   0.582E-04    0.287E-05
RMM:  19    -0.413170932981E+03    0.64213E-06   -0.35113E-08   832   0.535E-04
   19 T=    62. E= -.41286694E+03 F= -.41317093E+03 E0= -.41314886E+03  EK= 0.30400E+00 SP= 0.00E+00 SK= 0.00E+00
       N       E                     dE             d eps       ncg     rms          rms(c)
RMM:   1    -0.413165947658E+03    0.49860E-02   -0.10243E+01  4297   0.735E-01    0.901E-01
RMM:   2    -0.413173460879E+03   -0.75132E-02   -0.12418E-01  4268   0.991E-02    0.639E-01
RMM:   3    -0.413171906694E+03    0.15542E-02   -0.10068E-02  4918   0.457E-02    0.154E-01
RMM:   4    -0.413208448258E+03   -0.36542E-01   -0.38866E-02  5134   0.163E-01    0.795E-01
RMM:   5    -0.413171118691E+03    0.37330E-01   -0.18130E-02  4788   0.133E-01    0.493E-02
RMM:   6    -0.413171328594E+03   -0.20990E-03   -0.30684E-03  5758   0.536E-02    0.310E-02
RMM:   7    -0.413171327258E+03    0.13351E-05   -0.44100E-04  5753   0.186E-02    0.201E-02
RMM:   8    -0.413171318132E+03    0.91265E-05   -0.71423E-05  5168   0.871E-03    0.991E-03
RMM:   9    -0.413171311348E+03    0.67839E-05   -0.14903E-05  4128   0.432E-03    0.688E-03
RMM:  10    -0.413171307678E+03    0.36699E-05   -0.20821E-06  2578   0.215E-03    0.446E-03
RMM:  11    -0.413171304191E+03    0.34871E-05   -0.13379E-06  2517   0.184E-03    0.227E-03
RMM:  12    -0.413171299306E+03    0.48853E-05   -0.14308E-06  2521   0.187E-03    0.798E-04
RMM:  13    -0.413171297898E+03    0.14078E-05   -0.46388E-07  2307   0.121E-03    0.570E-04
RMM:  14    -0.413171297926E+03   -0.27918E-07   -0.21988E-07  1826   0.826E-04
   20 T=    62. E= -.41286667E+03 F= -.41317130E+03 E0= -.41314926E+03  EK= 0.30463E+00 SP= 0.00E+00 SK= 0.00E+00
       N       E                     dE             d eps       ncg     rms          rms(c)
RMM:   1    -0.413166837353E+03    0.44605E-02   -0.10287E+01  4295   0.750E-01    0.889E-01
RMM:   2    -0.413175210338E+03   -0.83730E-02   -0.12740E-01  4279   0.973E-02    0.650E-01
RMM:   3    -0.413172758659E+03    0.24517E-02   -0.10109E-02  4835   0.436E-02    0.128E-01
RMM:   4    -0.413200347717E+03   -0.27589E-01   -0.28612E-02  5126   0.140E-01    0.693E-01
RMM:   5    -0.413172269434E+03    0.28078E-01   -0.13794E-02  4796   0.115E-01    0.437E-02
RMM:   6    -0.413172435193E+03   -0.16576E-03   -0.23070E-03  5802   0.461E-02    0.276E-02
RMM:   7    -0.413172440146E+03   -0.49536E-05   -0.33038E-04  5712   0.167E-02    0.174E-02
RMM:   8    -0.413172435148E+03    0.49987E-05   -0.62460E-05  5003   0.814E-03    0.903E-03
RMM:   9    -0.413172431427E+03    0.37206E-05   -0.12833E-05  3960   0.408E-03    0.665E-03
RMM:  10    -0.413172430847E+03    0.58042E-06   -0.16316E-06  2552   0.202E-03
   21 T=    62. E= -.41286678E+03 F= -.41317243E+03 E0= -.41315044E+03  EK= 0.30565E+00 SP= 0.00E+00 SK= 0.00E+00
       N       E                     dE             d eps       ncg     rms          rms(c)
RMM:   1    -0.413168350349E+03    0.40811E-02   -0.10342E+01  4296   0.755E-01    0.909E-01
RMM:   2    -0.413175991631E+03   -0.76413E-02   -0.12619E-01  4297   0.970E-02    0.650E-01
RMM:   3    -0.413176529950E+03   -0.53832E-03   -0.12343E-02  5089   0.657E-02    0.261E-01
RMM:   4    -0.413209657681E+03   -0.33128E-01   -0.46825E-02  5103   0.181E-01    0.784E-01
RMM:   5    -0.413173374498E+03    0.36283E-01   -0.15802E-02  4741   0.130E-01    0.564E-02
RMM:   6    -0.413173490410E+03   -0.11591E-03   -0.26914E-03  5634   0.515E-02    0.288E-02
RMM:   7    -0.413173499536E+03   -0.91261E-05   -0.39842E-04  5968   0.173E-02    0.185E-02
RMM:   8    -0.413173493290E+03    0.62457E-05   -0.70217E-05  5214   0.885E-03    0.833E-03
RMM:   9    -0.413173486147E+03    0.71429E-05   -0.11771E-05  3674   0.396E-03    0.410E-03
RMM:  10    -0.413173483435E+03    0.27119E-05   -0.25317E-06  2618   0.224E-03    0.285E-03
RMM:  11    -0.413173479777E+03    0.36585E-05   -0.11085E-06  2499   0.171E-03    0.146E-03
RMM:  12    -0.413173475777E+03    0.40001E-05   -0.69673E-07  2450   0.137E-03    0.439E-04
RMM:  13    -0.413173473692E+03    0.20846E-05   -0.34233E-07  2032   0.979E-04    0.279E-04
RMM:  14    -0.413173472193E+03    0.14992E-05   -0.19198E-07  1538   0.774E-04    0.180E-04
RMM:  15    -0.413173469486E+03    0.27073E-05   -0.15352E-07  1352   0.723E-04    0.975E-05
RMM:  16    -0.413173467062E+03    0.24239E-05   -0.11824E-07  1313   0.684E-04    0.112E-04
RMM:  17    -0.413173464897E+03    0.21643E-05   -0.93635E-08  1284   0.643E-04    0.667E-05
RMM:  18    -0.413173462766E+03    0.21316E-05   -0.71257E-08  1117   0.598E-04    0.319E-05
RMM:  19    -0.413173461914E+03    0.85186E-06   -0.34342E-08   865   0.548E-04
   22 T=    62. E= -.41286676E+03 F= -.41317346E+03 E0= -.41315152E+03  EK= 0.30670E+00 SP= 0.00E+00 SK= 0.00E+00
       N       E                     dE             d eps       ncg     rms          rms(c)
RMM:   1    -0.413168875011E+03    0.45878E-02   -0.10310E+01  4295   0.748E-01    0.911E-01
RMM:   2    -0.413176532995E+03   -0.76580E-02   -0.12524E-01  4276   0.988E-02    0.643E-01
RMM:   3    -0.413174658285E+03    0.18747E-02   -0.10313E-02  4878   0.469E-02    0.150E-01
RMM:   4    -0.413209009365E+03   -0.34351E-01   -0.36092E-02  5133   0.158E-01    0.771E-01
RMM:   5    -0.413173970609E+03    0.35039E-01   -0.17092E-02  4789   0.129E-01    0.485E-02
RMM:   6    -0.413174170919E+03   -0.20031E-03   -0.29361E-03  5775   0.519E-02    0.311E-02
RMM:   7    -0.413174168910E+03    0.20094E-05   -0.41079E-04  5720   0.185E-02    0.197E-02
RMM:   8    -0.413174158647E+03    0.10263E-04   -0.72915E-05  5127   0.885E-03    0.103E-02
RMM:   9    -0.413174150595E+03    0.80525E-05   -0.15058E-05  4149   0.439E-03    0.729E-03
RMM:  10    -0.413174145768E+03    0.48265E-05   -0.20306E-06  2577   0.218E-03    0.471E-03
RMM:  11    -0.413174141032E+03    0.47361E-05   -0.14301E-06  2520   0.190E-03    0.243E-03
RMM:  12    -0.413174134296E+03    0.67358E-05   -0.15164E-06  2522   0.195E-03    0.854E-04
RMM:  13    -0.413174132423E+03    0.18736E-05   -0.48604E-07  2323   0.124E-03    0.596E-04
RMM:  14    -0.413174132389E+03    0.34150E-07   -0.22948E-07  1846   0.842E-04
   23 T=    63. E= -.41286654E+03 F= -.41317413E+03 E0= -.41315224E+03  EK= 0.30759E+00 SP= 0.00E+00 SK= 0.00E+00
       N       E                     dE             d eps       ncg     rms          rms(c)
RMM:   1    -0.413177338199E+03   -0.32058E-02   -0.10379E+01  4297   0.814E-01    0.892E-01
RMM:   2    -0.413178656167E+03   -0.13180E-02   -0.12760E-01  4280   0.102E-01    0.649E-01
RMM:   3    -0.413175971044E+03    0.26851E-02   -0.10184E-02  4724   0.447E-02    0.123E-01
RMM:   4    -0.413198272398E+03   -0.22301E-01   -0.22853E-02  5136   0.126E-01    0.624E-01
RMM:   5    -0.413175614830E+03    0.22658E-01   -0.11243E-02  4805   0.104E-01    0.417E-02
RMM:   6    -0.413175740062E+03   -0.12523E-03   -0.18945E-03  5816   0.411E-02    0.259E-02
RMM:   7    -0.413175741655E+03   -0.15925E-05   -0.25269E-04  5696   0.153E-02    0.148E-02
RMM:   8    -0.413175737281E+03    0.43737E-05   -0.56162E-05  4977   0.768E-03    0.893E-03
RMM:   9    -0.413175732367E+03    0.49137E-05   -0.11190E-05  3889   0.393E-03    0.664E-03
RMM:  10    -0.413175730761E+03    0.16063E-05   -0.14940E-06  2544   0.203E-03    0.425E-03
RMM:  11    -0.413175728414E+03    0.23475E-05   -0.16108E-06  2531   0.204E-03    0.198E-03
RMM:  12    -0.413175725752E+03    0.26620E-05   -0.10629E-06  2469   0.165E-03    0.651E-04
RMM:  13    -0.413175725218E+03    0.53324E-06   -0.35901E-07  2125   0.104E-03
   24 T=    63. E= -.41286691E+03 F= -.41317573E+03 E0= -.41315388E+03  EK= 0.30881E+00 SP= 0.00E+00 SK= 0.00E+00
       N       E                     dE             d eps       ncg     rms          rms(c)
RMM:   1    -0.413176955401E+03   -0.12296E-02   -0.10439E+01  4296   0.816E-01    0.905E-01
RMM:   2    -0.413179611020E+03   -0.26556E-02   -0.13963E-01  4276   0.106E-01    0.656E-01
RMM:   3    -0.413176855725E+03    0.27553E-02   -0.97389E-03  4585   0.426E-02    0.134E-01
RMM:   4    -0.413190051869E+03   -0.13196E-01   -0.13686E-02  5141   0.975E-02    0.483E-01
RMM:   5    -0.413176670389E+03    0.13381E-01   -0.67076E-03  4822   0.799E-02    0.382E-02
RMM:   6    -0.413176720128E+03   -0.49739E-04   -0.11192E-03  5825   0.313E-02    0.221E-02
RMM:   7    -0.413176723923E+03   -0.37952E-05   -0.17442E-04  5595   0.130E-02    0.129E-02
RMM:   8    -0.413176711914E+03    0.12009E-04   -0.34339E-05  4774   0.633E-03    0.695E-03
RMM:   9    -0.413176710468E+03    0.14466E-05   -0.70797E-06  3333   0.324E-03    0.558E-03
RMM:  10    -0.413176707798E+03    0.26695E-05   -0.10866E-06  2507   0.188E-03    0.334E-03
RMM:  11    -0.413176704448E+03    0.33497E-05   -0.10066E-06  2497   0.165E-03    0.167E-03
RMM:  12    -0.413176700808E+03    0.36402E-05   -0.68607E-07  2390   0.132E-03    0.628E-04
RMM:  13    -0.413176699867E+03    0.94133E-06   -0.25816E-07  1941   0.887E-04
   25 T=    63. E= -.41286678E+03 F= -.41317670E+03 E0= -.41315490E+03  EK= 0.30992E+00 SP= 0.00E+00 SK= 0.00E+00
       N       E                     dE             d eps       ncg     rms          rms(c)
RMM:   1    -0.413173053365E+03    0.36474E-02   -0.10386E+01  4293   0.765E-01    0.920E-01
RMM:   2    -0.413180345646E+03   -0.72923E-02   -0.12641E-01  4276   0.102E-01    0.648E-01
RMM:   3    -0.413178228892E+03    0.21168E-02   -0.10369E-02  4637   0.450E-02    0.131E-01
RMM:   4    -0.413195619164E+03   -0.17390E-01   -0.17709E-02  5143   0.111E-01    0.553E-01
RMM:   5    -0.413178019493E+03    0.17600E-01   -0.88554E-03  4816   0.915E-02    0.410E-02
RMM:   6    -0.413178087196E+03   -0.67703E-04   -0.14383E-03  5814   0.359E-02    0.243E-02
RMM:   7    -0.413178077185E+03    0.10010E-04   -0.17315E-04  5583   0.132E-02    0.113E-02
RMM:   8    -0.413178070463E+03    0.67227E-05   -0.31966E-05  4758   0.586E-03    0.780E-03
RMM:   9    -0.413178065162E+03    0.53004E-05   -0.70359E-06  3320   0.308E-03    0.601E-03
RMM:  10    -0.413178061109E+03    0.40531E-05   -0.12715E-06  2526   0.195E-03    0.381E-03
RMM:  11    -0.413178053133E+03    0.79758E-05   -0.17093E-06  2540   0.208E-03    0.179E-03
RMM:  12    -0.413178045887E+03    0.72461E-05   -0.87227E-07  2441   0.156E-03    0.839E-04
RMM:  13    -0.413178045187E+03    0.70052E-06   -0.28308E-07  2097   0.956E-04
   26 T=    63. E= -.41286682E+03 F= -.41317805E+03 E0= -.41315630E+03  EK= 0.31122E+00 SP= 0.00E+00 SK= 0.00E+00
       N       E                     dE             d eps       ncg     rms          rms(c)
RMM:   1    -0.413174399816E+03    0.36461E-02   -0.10344E+01  4294   0.781E-01    0.897E-01
RMM:   2    -0.413182400023E+03   -0.80002E-02   -0.12785E-01  4277   0.103E-01    0.650E-01
RMM:   3    -0.413179932011E+03    0.24680E-02   -0.10278E-02  4584   0.445E-02    0.119E-01
RMM:   4    -0.413193315538E+03   -0.13384E-01   -0.13696E-02  5144   0.977E-02    0.486E-01
RMM:   5    -0.413179777830E+03    0.13538E-01   -0.68356E-03  4825   0.801E-02    0.382E-02
RMM:   6    -0.413179820214E+03   -0.42384E-04   -0.11244E-03  5837   0.311E-02    0.218E-02
RMM:   7    -0.413179818199E+03    0.20147E-05   -0.14185E-04  5565   0.120E-02    0.109E-02
RMM:   8    -0.413179810249E+03    0.79500E-05   -0.27665E-05  4668   0.556E-03    0.697E-03
RMM:   9    -0.413179808893E+03    0.13558E-05   -0.63851E-06  3260   0.307E-03    0.566E-03
RMM:  10    -0.413179805683E+03    0.32105E-05   -0.10451E-06  2506   0.186E-03    0.335E-03
RMM:  11    -0.413179801532E+03    0.41507E-05   -0.11366E-06  2503   0.174E-03    0.166E-03
RMM:  12    -0.413179797331E+03    0.42016E-05   -0.70814E-07  2380   0.135E-03    0.608E-04
RMM:  13    -0.413179796302E+03    0.10285E-05   -0.25457E-07  1941   0.883E-04    0.409E-04
RMM:  14    -0.413179795464E+03    0.83806E-06   -0.11712E-07  1315   0.684E-04
   27 T=    64. E= -.41286704E+03 F= -.41317980E+03 E0= -.41315810E+03  EK= 0.31276E+00 SP= 0.00E+00 SK= 0.00E+00
       N       E                     dE             d eps       ncg     rms          rms(c)
RMM:   1    -0.413176778314E+03    0.30180E-02   -0.10462E+01  4291   0.811E-01    0.906E-01
RMM:   2    -0.413183745802E+03   -0.69675E-02   -0.13235E-01  4273   0.107E-01    0.661E-01
RMM:   3    -0.413181120518E+03    0.26253E-02   -0.10590E-02  4653   0.464E-02    0.122E-01
RMM:   4    -0.413198803848E+03   -0.17683E-01   -0.18010E-02  5145   0.113E-01    0.557E-01
RMM:   5    -0.413180887246E+03    0.17917E-01   -0.89563E-03  4816   0.919E-02    0.400E-02
RMM:   6    -0.413180958145E+03   -0.70900E-04   -0.14491E-03  5850   0.359E-02    0.241E-02
RMM:   7    -0.413180957849E+03    0.29672E-06   -0.17956E-04  5565   0.133E-02    0.113E-02
RMM:   8    -0.413180950822E+03    0.70265E-05   -0.28444E-05  4636   0.562E-03    0.700E-03
RMM:   9    -0.413180950565E+03    0.25757E-06   -0.83134E-06  3543   0.324E-03
   28 T=    64. E= -.41286670E+03 F= -.41318095E+03 E0= -.41315930E+03  EK= 0.31425E+00 SP= 0.00E+00 SK= 0.00E+00
       N       E                     dE             d eps       ncg     rms          rms(c)
RMM:   1    -0.413178152471E+03    0.27984E-02   -0.10481E+01  4293   0.788E-01    0.928E-01
RMM:   2    -0.413185375837E+03   -0.72234E-02   -0.12850E-01  4325   0.105E-01    0.655E-01
RMM:   3    -0.413188637683E+03   -0.32618E-02   -0.15159E-02  5102   0.856E-02    0.342E-01
RMM:   4    -0.413208646909E+03   -0.20009E-01   -0.39904E-02  5066   0.171E-01    0.663E-01
RMM:   5    -0.413182961072E+03    0.25686E-01   -0.98997E-03  4693   0.109E-01    0.561E-02
RMM:   6    -0.413182988364E+03   -0.27292E-04   -0.19566E-03  5606   0.427E-02    0.299E-02
RMM:   7    -0.413182988147E+03    0.21731E-06   -0.31941E-04  5936   0.165E-02    0.187E-02
RMM:   8    -0.413182978211E+03    0.99357E-05   -0.66241E-05  5096   0.904E-03    0.796E-03
RMM:   9    -0.413182968186E+03    0.10025E-04   -0.10126E-05  3671   0.399E-03    0.385E-03
RMM:  10    -0.413182963949E+03    0.42370E-05   -0.17412E-06  2551   0.208E-03    0.248E-03
RMM:  11    -0.413182956055E+03    0.78932E-05   -0.12637E-06  2513   0.180E-03    0.147E-03
RMM:  12    -0.413182950197E+03    0.58582E-05   -0.58915E-07  2440   0.132E-03    0.533E-04
RMM:  13    -0.413182946436E+03    0.37610E-05   -0.29355E-07  1935   0.925E-04    0.292E-04
RMM:  14    -0.413182943329E+03    0.31078E-05   -0.16612E-07  1439   0.748E-04    0.190E-04
RMM:  15    -0.413182937402E+03    0.59270E-05   -0.14763E-07  1397   0.726E-04    0.125E-04
RMM:  16    -0.413182933348E+03    0.40538E-05   -0.11021E-07  1332   0.669E-04    0.117E-04
RMM:  17    -0.413182928787E+03    0.45610E-05   -0.10436E-07  1386   0.655E-04    0.668E-05
RMM:  18    -0.413182926835E+03    0.19518E-05   -0.52926E-08   972   0.564E-04    0.503E-05
RMM:  19    -0.413182926119E+03    0.71586E-06   -0.29415E-08   811   0.532E-04
   29 T=    64. E= -.41286683E+03 F= -.41318293E+03 E0= -.41316133E+03  EK= 0.31610E+00 SP= 0.00E+00 SK= 0.00E+00
       N       E                     dE             d eps       ncg     rms          rms(c)
RMM:   1    -0.413179611028E+03    0.33158E-02   -0.10428E+01  4286   0.798E-01    0.907E-01
RMM:   2    -0.413187643209E+03   -0.80322E-02   -0.12970E-01  4269   0.112E-01    0.653E-01
RMM:   3    -0.413184969759E+03    0.26734E-02   -0.10700E-02  4472   0.509E-02    0.120E-01
RMM:   4    -0.413194631279E+03   -0.96615E-02   -0.10020E-02  5156   0.843E-02    0.415E-01
RMM:   5    -0.413184867844E+03    0.97634E-02   -0.49757E-03  4829   0.682E-02    0.379E-02
RMM:   6    -0.413184893590E+03   -0.25746E-04   -0.87043E-04  5838   0.277E-02    0.237E-02
RMM:   7    -0.413184892333E+03    0.12571E-05   -0.21763E-04  5412   0.146E-02    0.155E-02
RMM:   8    -0.413184876474E+03    0.15859E-04   -0.25493E-05  4550   0.620E-03    0.667E-03
RMM:   9    -0.413184874265E+03    0.22095E-05   -0.48453E-06  2979   0.277E-03    0.485E-03
RMM:  10    -0.413184870713E+03    0.35516E-05   -0.13400E-06  2492   0.193E-03    0.269E-03
RMM:  11    -0.413184866961E+03    0.37524E-05   -0.85462E-07  2466   0.156E-03    0.134E-03
RMM:  12    -0.413184863446E+03    0.35149E-05   -0.51400E-07  2320   0.120E-03    0.657E-04
RMM:  13    -0.413184861920E+03    0.15259E-05   -0.22933E-07  1848   0.846E-04    0.286E-04
RMM:  14    -0.413184860039E+03    0.18806E-05   -0.12767E-07  1336   0.698E-04    0.176E-04
RMM:  15    -0.413184857138E+03    0.29015E-05   -0.92479E-08  1210   0.663E-04    0.784E-05
RMM:  16    -0.413184855653E+03    0.14850E-05   -0.52518E-08   985   0.613E-04    0.664E-05
RMM:  17    -0.413184853649E+03    0.20037E-05   -0.48138E-08  1013   0.604E-04    0.435E-05
RMM:  18    -0.413184851187E+03    0.24617E-05   -0.48203E-08  1086   0.600E-04    0.298E-05
RMM:  19    -0.413184850702E+03    0.48547E-06   -0.16573E-08   720   0.533E-04
   30 T=    65. E= -.41286694E+03 F= -.41318485E+03 E0= -.41316330E+03  EK= 0.31791E+00 SP= 0.00E+00 SK= 0.00E+00
       N       E                     dE             d eps       ncg     rms          rms(c)
RMM:   1    -0.413183989752E+03    0.86144E-03   -0.10570E+01  4292   0.847E-01    0.908E-01
RMM:   2    -0.413189915968E+03   -0.59262E-02   -0.13896E-01  4278   0.121E-01    0.667E-01
RMM:   3    -0.413186461904E+03    0.34541E-02   -0.10887E-02  4404   0.532E-02    0.118E-01
RMM:   4    -0.413192931214E+03   -0.64693E-02   -0.69438E-03  5154   0.703E-02    0.339E-01
RMM:   5    -0.413186456806E+03    0.64744E-02   -0.32752E-03  4822   0.556E-02    0.362E-02
RMM:   6    -0.413186478325E+03   -0.21519E-04   -0.65256E-04  5799   0.240E-02    0.235E-02
RMM:   7    -0.413186475232E+03    0.30926E-05   -0.20698E-04  5304   0.142E-02    0.151E-02
RMM:   8    -0.413186462674E+03    0.12558E-04   -0.17945E-05  4237   0.554E-03    0.641E-03
RMM:   9    -0.413186461428E+03    0.12468E-05   -0.31956E-06  2743   0.239E-03    0.428E-03
RMM:  10    -0.413186459557E+03    0.18707E-05   -0.13311E-06  2490   0.184E-03    0.227E-03
RMM:  11    -0.413186457714E+03    0.18428E-05   -0.78541E-07  2448   0.147E-03    0.108E-03
RMM:  12    -0.413186455963E+03    0.17515E-05   -0.42074E-07  2191   0.108E-03    0.518E-04
RMM:  13    -0.413186454864E+03    0.10984E-05   -0.20830E-07  1671   0.798E-04    0.253E-04
RMM:  14    -0.413186453386E+03    0.14781E-05   -0.12063E-07  1248   0.688E-04    0.155E-04
RMM:  15    -0.413186451144E+03    0.22422E-05   -0.95111E-08  1156   0.661E-04    0.764E-05
RMM:  16    -0.413186450191E+03    0.95287E-06   -0.49337E-08   919   0.600E-04
   31 T=    65. E= -.41286672E+03 F= -.41318645E+03 E0= -.41316495E+03  EK= 0.31973E+00 SP= 0.00E+00 SK= 0.00E+00
       N       E                     dE             d eps       ncg     rms          rms(c)
RMM:   1    -0.413184693802E+03    0.17573E-02   -0.10595E+01  4290   0.829E-01    0.934E-01
RMM:   2    -0.413191913732E+03   -0.72199E-02   -0.13222E-01  4284   0.123E-01    0.663E-01
RMM:   3    -0.413189092713E+03    0.28210E-02   -0.11228E-02  4307   0.537E-02    0.122E-01
RMM:   4    -0.413191331488E+03   -0.22388E-02   -0.29175E-03  5136   0.453E-02    0.200E-01
RMM:   5    -0.413189130682E+03    0.22008E-02   -0.11503E-03  4819   0.335E-02    0.370E-02
RMM:   6    -0.413189139028E+03   -0.83463E-05   -0.38896E-04  5552   0.196E-02    0.268E-02
RMM:   7    -0.413189107686E+03    0.31342E-04   -0.19000E-04  5043   0.137E-02    0.144E-02
RMM:   8    -0.413189101459E+03    0.62267E-05   -0.16261E-05  4026   0.483E-03    0.553E-03
RMM:   9    -0.413189099358E+03    0.21016E-05   -0.21184E-06  2536   0.207E-03    0.326E-03
RMM:  10    -0.413189092734E+03    0.66239E-05   -0.88791E-07  2465   0.155E-03    0.164E-03
RMM:  11    -0.413189088100E+03    0.46338E-05   -0.48002E-07  2223   0.109E-03    0.678E-04
RMM:  12    -0.413189083055E+03    0.50448E-05   -0.28244E-07  1937   0.896E-04    0.258E-04
RMM:  13    -0.413189079938E+03    0.31174E-05   -0.13636E-07  1358   0.708E-04    0.186E-04
RMM:  14    -0.413189075875E+03    0.40624E-05   -0.92256E-08  1154   0.660E-04    0.121E-04
RMM:  15    -0.413189070872E+03    0.50037E-05   -0.92397E-08  1327   0.665E-04    0.886E-05
RMM:  16    -0.413189068806E+03    0.20661E-05   -0.44611E-08   920   0.574E-04    0.681E-05
RMM:  17    -0.413189065424E+03    0.33813E-05   -0.52026E-08  1056   0.585E-04    0.311E-05
RMM:  18    -0.413189064834E+03    0.59083E-06   -0.20799E-08   717   0.520E-04
   32 T=    66. E= -.41286709E+03 F= -.41318906E+03 E0= -.41316762E+03  EK= 0.32198E+00 SP= 0.00E+00 SK= 0.00E+00
       N       E                     dE             d eps       ncg     rms          rms(c)
RMM:   1    -0.413186294290E+03    0.27711E-02   -0.10551E+01  4289   0.839E-01    0.920E-01
RMM:   2    -0.413193939475E+03   -0.76452E-02   -0.13298E-01  4284   0.126E-01    0.659E-01
RMM:   3    -0.413190969050E+03    0.29704E-02   -0.10983E-02  4232   0.518E-02    0.121E-01
RMM:   4    -0.413191562471E+03   -0.59342E-03   -0.13636E-03  5054   0.298E-02    0.100E-01
RMM:   5    -0.413191068420E+03    0.49405E-03   -0.30667E-04  4756   0.178E-02    0.371E-02
RMM:   6    -0.413191069315E+03   -0.89535E-06   -0.26477E-04  5369   0.163E-02    0.265E-02
RMM:   7    -0.413191038548E+03    0.30768E-04   -0.17332E-04  4860   0.126E-02    0.153E-02
RMM:   8    -0.413191033593E+03    0.49545E-05   -0.16009E-05  3939   0.457E-03    0.538E-03
RMM:   9    -0.413191032245E+03    0.13480E-05   -0.26621E-06  2396   0.205E-03    0.234E-03
RMM:  10    -0.413191025661E+03    0.65841E-05   -0.85469E-07  2314   0.144E-03    0.984E-04
RMM:  11    -0.413191021960E+03    0.37009E-05   -0.31608E-07  1889   0.923E-04    0.431E-04
RMM:  12    -0.413191017725E+03    0.42350E-05   -0.18768E-07  1515   0.778E-04    0.200E-04
RMM:  13    -0.413191014451E+03    0.32746E-05   -0.10058E-07  1102   0.663E-04    0.143E-04
RMM:  14    -0.413191010126E+03    0.43245E-05   -0.74078E-08  1016   0.638E-04    0.103E-04
RMM:  15    -0.413191005368E+03    0.47579E-05   -0.74302E-08  1112   0.634E-04    0.594E-05
RMM:  16    -0.413191003102E+03    0.22659E-05   -0.35783E-08   783   0.553E-04    0.504E-05
RMM:  17    -0.413191001852E+03    0.12505E-05   -0.18134E-08   582   0.518E-04    0.217E-05
RMM:  18    -0.413191001311E+03    0.54094E-06   -0.12592E-08   534   0.509E-04
   33 T=    66. E= -.41286690E+03 F= -.41319100E+03 E0= -.41316960E+03  EK= 0.32410E+00 SP= 0.00E+00 SK= 0.00E+00
       N       E                     dE             d eps       ncg     rms          rms(c)
RMM:   1    -0.413197794145E+03   -0.67923E-02   -0.10743E+01  4297   0.918E-01    0.912E-01
RMM:   2    -0.413196620687E+03    0.11735E-02   -0.15445E-01  4284   0.133E-01    0.674E-01
RMM:   3    -0.413193437434E+03    0.31833E-02   -0.10446E-02  4229   0.547E-02    0.137E-01
RMM:   4    -0.413194261754E+03   -0.82432E-03   -0.18613E-03  5073   0.346E-02    0.122E-01
RMM:   5    -0.413193497747E+03    0.76401E-03   -0.42497E-04  4753   0.209E-02    0.359E-02
RMM:   6    -0.413193501097E+03   -0.33500E-05   -0.26491E-04  5442   0.164E-02    0.251E-02
RMM:   7    -0.413193478659E+03    0.22438E-04   -0.17444E-04  4887   0.128E-02    0.153E-02
RMM:   8    -0.413193473714E+03    0.49446E-05   -0.14911E-05  3657   0.437E-03    0.495E-03
RMM:   9    -0.413193473108E+03    0.60635E-06   -0.21682E-06  2456   0.200E-03
   34 T=    66. E= -.41286691E+03 F= -.41319347E+03 E0= -.41317212E+03  EK= 0.32657E+00 SP= 0.00E+00 SK= 0.00E+00
       N       E                     dE             d eps       ncg     rms          rms(c)
RMM:   1    -0.413193484628E+03   -0.10913E-04   -0.10746E+01  4300   0.889E-01    0.938E-01
RMM:   2    -0.413199017986E+03   -0.55334E-02   -0.13828E-01  4268   0.129E-01    0.673E-01
RMM:   3    -0.413196176195E+03    0.28418E-02   -0.11341E-02  4300   0.558E-02    0.122E-01
RMM:   4    -0.413196769589E+03   -0.59339E-03   -0.14813E-03  5113   0.296E-02    0.101E-01
RMM:   5    -0.413196260197E+03    0.50939E-03   -0.33249E-04  4801   0.186E-02    0.398E-02
RMM:   6    -0.413196247554E+03    0.12643E-04   -0.25166E-04  5325   0.161E-02    0.289E-02
RMM:   7    -0.413196218154E+03    0.29399E-04   -0.19238E-04  4762   0.123E-02    0.164E-02
RMM:   8    -0.413196212303E+03    0.58513E-05   -0.15602E-05  3886   0.448E-03    0.599E-03
RMM:   9    -0.413196210798E+03    0.15054E-05   -0.33473E-06  2399   0.200E-03    0.231E-03
RMM:  10    -0.413196200563E+03    0.10235E-04   -0.11099E-06  2305   0.152E-03    0.740E-04
RMM:  11    -0.413196195923E+03    0.46394E-05   -0.33242E-07  1868   0.939E-04    0.321E-04
RMM:  12    -0.413196192330E+03    0.35932E-05   -0.17305E-07  1465   0.759E-04    0.243E-04
RMM:  13    -0.413196187278E+03    0.50520E-05   -0.10858E-07  1094   0.666E-04    0.119E-04
RMM:  14    -0.413196180099E+03    0.71786E-05   -0.10687E-07  1178   0.670E-04    0.138E-04
RMM:  15    -0.413196174973E+03    0.51267E-05   -0.74028E-08  1082   0.618E-04    0.818E-05
RMM:  16    -0.413196172556E+03    0.24168E-05   -0.36008E-08   749   0.542E-04    0.426E-05
RMM:  17    -0.413196171560E+03    0.99643E-06   -0.15518E-08   548   0.509E-04
   35 T=    67. E= -.41286700E+03 F= -.41319617E+03 E0= -.41317486E+03  EK= 0.32917E+00 SP= 0.00E+00 SK= 0.00E+00
       N       E                     dE             d eps       ncg     rms          rms(c)
RMM:   1    -0.413195401470E+03    0.77109E-03   -0.10734E+01  4299   0.917E-01    0.937E-01
RMM:   2    -0.413200794650E+03   -0.53932E-02   -0.13770E-01  4261   0.131E-01    0.667E-01
RMM:   3    -0.413198307866E+03    0.24868E-02   -0.11487E-02  4544   0.578E-02    0.135E-01
RMM:   4    -0.413213326084E+03   -0.15018E-01   -0.15261E-02  5169   0.104E-01    0.516E-01
RMM:   5    -0.413198210566E+03    0.15116E-01   -0.76591E-03  4811   0.855E-02    0.426E-02
RMM:   6    -0.413198217182E+03   -0.66159E-05   -0.13569E-03  5824   0.353E-02    0.283E-02
RMM:   7    -0.413198219304E+03   -0.21227E-05   -0.29368E-04  5491   0.166E-02    0.176E-02
RMM:   8    -0.413198201396E+03    0.17908E-04   -0.42360E-05  4918   0.744E-03    0.801E-03
RMM:   9    -0.413198198344E+03    0.30525E-05   -0.76224E-06  3318   0.342E-03    0.555E-03
RMM:  10    -0.413198192530E+03    0.58138E-05   -0.14218E-06  2525   0.209E-03    0.309E-03
RMM:  11    -0.413198186868E+03    0.56616E-05   -0.95585E-07  2491   0.162E-03    0.162E-03
RMM:  12    -0.413198179633E+03    0.72351E-05   -0.79173E-07  2442   0.145E-03    0.810E-04
RMM:  13    -0.413198176592E+03    0.30416E-05   -0.31839E-07  2105   0.989E-04    0.416E-04
RMM:  14    -0.413198174973E+03    0.16190E-05   -0.14948E-07  1440   0.727E-04    0.288E-04
RMM:  15    -0.413198170881E+03    0.40915E-05   -0.10173E-07  1285   0.677E-04    0.115E-04
RMM:  16    -0.413198167783E+03    0.30978E-05   -0.64442E-08  1075   0.629E-04    0.821E-05
RMM:  17    -0.413198164986E+03    0.27975E-05   -0.48415E-08  1013   0.608E-04    0.798E-05
RMM:  18    -0.413198160923E+03    0.40628E-05   -0.52827E-08  1168   0.617E-04    0.512E-05
RMM:  19    -0.413198159692E+03    0.12312E-05   -0.24273E-08   825   0.544E-04    0.300E-05
RMM:  20    -0.413198159347E+03    0.34481E-06   -0.12720E-08   676   0.522E-04
   36 T=    67. E= -.41286662E+03 F= -.41319816E+03 E0= -.41317690E+03  EK= 0.33154E+00 SP= 0.00E+00 SK= 0.00E+00
       N       E                     dE             d eps       ncg     rms          rms(c)
RMM:   1    -0.413212480060E+03   -0.14320E-01   -0.10936E+01  4303   0.104E+00    0.920E-01
RMM:   2    -0.413204687463E+03    0.77926E-02   -0.16091E-01  4260   0.142E-01    0.679E-01
RMM:   3    -0.413201408172E+03    0.32793E-02   -0.10711E-02  4650   0.573E-02    0.157E-01
RMM:   4    -0.413225886079E+03   -0.24478E-01   -0.24860E-02  5162   0.133E-01    0.654E-01
RMM:   5    -0.413201170546E+03    0.24716E-01   -0.12487E-02  4806   0.109E-01    0.456E-02
RMM:   6    -0.413201202259E+03   -0.31713E-04   -0.20738E-03  5852   0.429E-02    0.287E-02
RMM:   7    -0.413201211814E+03   -0.95546E-05   -0.29258E-04  5641   0.162E-02    0.157E-02
RMM:   8    -0.413201202278E+03    0.95365E-05   -0.56739E-05  4988   0.793E-03    0.912E-03
RMM:   9    -0.413201200930E+03    0.13476E-05   -0.15147E-05  4262   0.450E-03    0.655E-03
RMM:  10    -0.413201197307E+03    0.36232E-05   -0.19339E-06  2593   0.228E-03    0.384E-03
RMM:  11    -0.413201195077E+03    0.22302E-05   -0.10483E-06  2491   0.167E-03    0.234E-03
RMM:  12    -0.413201189810E+03    0.52662E-05   -0.14896E-06  2515   0.194E-03    0.111E-03
RMM:  13    -0.413201187425E+03    0.23854E-05   -0.51855E-07  2320   0.126E-03    0.657E-04
RMM:  14    -0.413201187149E+03    0.27646E-06   -0.21684E-07  1796   0.829E-04
   37 T=    68. E= -.41286697E+03 F= -.41320119E+03 E0= -.41317997E+03  EK= 0.33421E+00 SP= 0.00E+00 SK= 0.00E+00
       N       E                     dE             d eps       ncg     rms          rms(c)
RMM:   1    -0.413217528044E+03   -0.16341E-01   -0.11057E+01  4306   0.107E+00    0.941E-01
RMM:   2    -0.413207294019E+03    0.10234E-01   -0.16221E-01  4260   0.134E-01    0.684E-01
RMM:   3    -0.413203875359E+03    0.34187E-02   -0.10964E-02  4724   0.542E-02    0.166E-01
RMM:   4    -0.413233806261E+03   -0.29931E-01   -0.30476E-02  5156   0.146E-01    0.722E-01
RMM:   5    -0.413203526647E+03    0.30280E-01   -0.15374E-02  4804   0.121E-01    0.481E-02
RMM:   6    -0.413203571328E+03   -0.44681E-04   -0.24281E-03  5844   0.470E-02    0.304E-02
RMM:   7    -0.413203578831E+03   -0.75026E-05   -0.34275E-04  5709   0.173E-02    0.168E-02
RMM:   8    -0.413203567870E+03    0.10961E-04   -0.66035E-05  5046   0.846E-03    0.980E-03
RMM:   9    -0.413203565015E+03    0.28544E-05   -0.17706E-05  4424   0.482E-03    0.658E-03
RMM:  10    -0.413203559660E+03    0.53556E-05   -0.22945E-06  2620   0.239E-03    0.392E-03
RMM:  11    -0.413203556066E+03    0.35940E-05   -0.11356E-06  2496   0.173E-03    0.235E-03
RMM:  12    -0.413203547846E+03    0.82197E-05   -0.14805E-06  2514   0.197E-03    0.113E-03
RMM:  13    -0.413203544130E+03    0.37158E-05   -0.54330E-07  2343   0.130E-03    0.735E-04
RMM:  14    -0.413203543858E+03    0.27236E-06   -0.22617E-07  1874   0.848E-04
   38 T=    69. E= -.41286683E+03 F= -.41320354E+03 E0= -.41318236E+03  EK= 0.33671E+00 SP= 0.00E+00 SK= 0.00E+00
       N       E                     dE             d eps       ncg     rms          rms(c)
RMM:   1    -0.413203917669E+03   -0.37354E-03   -0.10909E+01  4303   0.101E+00    0.954E-01
RMM:   2    -0.413209453353E+03   -0.55357E-02   -0.14295E-01  4262   0.124E-01    0.677E-01
RMM:   3    -0.413206729440E+03    0.27239E-02   -0.12149E-02  4927   0.555E-02    0.172E-01
RMM:   4    -0.413249495488E+03   -0.42766E-01   -0.45196E-02  5135   0.177E-01    0.859E-01
RMM:   5    -0.413205987324E+03    0.43508E-01   -0.21635E-02  4794   0.144E-01    0.543E-02
RMM:   6    -0.413206093142E+03   -0.10582E-03   -0.34960E-03  5826   0.558E-02    0.333E-02
RMM:   7    -0.413206099349E+03   -0.62072E-05   -0.41374E-04  5692   0.187E-02    0.172E-02
RMM:   8    -0.413206089911E+03    0.94375E-05   -0.50095E-05  4766   0.702E-03    0.870E-03
RMM:   9    -0.413206082799E+03    0.71123E-05   -0.95623E-06  3198   0.330E-03    0.531E-03
RMM:  10    -0.413206078279E+03    0.45206E-05   -0.19075E-06  2533   0.208E-03    0.359E-03
RMM:  11    -0.413206070749E+03    0.75290E-05   -0.17664E-06  2521   0.214E-03    0.198E-03
RMM:  12    -0.413206061741E+03    0.90083E-05   -0.11938E-06  2480   0.186E-03    0.992E-04
RMM:  13    -0.413206058757E+03    0.29842E-05   -0.44547E-07  2321   0.120E-03    0.672E-04
RMM:  14    -0.413206058020E+03    0.73673E-06   -0.20596E-07  1783   0.814E-04
   39 T=    69. E= -.41286679E+03 F= -.41320606E+03 E0= -.41318492E+03  EK= 0.33927E+00 SP= 0.00E+00 SK= 0.00E+00
       N       E                     dE             d eps       ncg     rms          rms(c)
RMM:   1    -0.413228450913E+03   -0.22392E-01   -0.11130E+01  4311   0.116E+00    0.931E-01
RMM:   2    -0.413212946136E+03    0.15505E-01   -0.16821E-01  4267   0.134E-01    0.684E-01
RMM:   3    -0.413210090857E+03    0.28553E-02   -0.11277E-02  4983   0.581E-02    0.212E-01
RMM:   4    -0.413264207016E+03   -0.54116E-01   -0.59246E-02  5131   0.203E-01    0.964E-01
RMM:   5    -0.413208789640E+03    0.55417E-01   -0.27243E-02  4786   0.162E-01    0.592E-02
RMM:   6    -0.413208952133E+03   -0.16249E-03   -0.43980E-03  5818   0.625E-02    0.348E-02
RMM:   7    -0.413208966374E+03   -0.14240E-04   -0.52200E-04  5814   0.204E-02    0.204E-02
RMM:   8    -0.413208967784E+03   -0.14102E-05   -0.11339E-04  5249   0.103E-02    0.133E-02
RMM:   9    -0.413208955108E+03    0.12676E-04   -0.29057E-05  4741   0.605E-03    0.693E-03
RMM:  10    -0.413208950816E+03    0.42924E-05   -0.48982E-06  2871   0.299E-03    0.428E-03
RMM:  11    -0.413208947280E+03    0.35362E-05   -0.16352E-06  2504   0.210E-03    0.255E-03
RMM:  12    -0.413208940195E+03    0.70849E-05   -0.14449E-06  2507   0.200E-03    0.885E-04
RMM:  13    -0.413208936373E+03    0.38218E-05   -0.62421E-07  2414   0.138E-03    0.629E-04
RMM:  14    -0.413208935621E+03    0.75168E-06   -0.27530E-07  2018   0.928E-04
   40 T=    70. E= -.41286702E+03 F= -.41320894E+03 E0= -.41318783E+03  EK= 0.34191E+00 SP= 0.00E+00 SK= 0.00E+00
       N       E                     dE             d eps       ncg     rms          rms(c)
RMM:   1    -0.413227257701E+03   -0.18321E-01   -0.11215E+01  4311   0.119E+00    0.944E-01
RMM:   2    -0.413214996113E+03    0.12262E-01   -0.17377E-01  4266   0.141E-01    0.695E-01
RMM:   3    -0.413212670137E+03    0.23260E-02   -0.12008E-02  5025   0.627E-02    0.241E-01
RMM:   4    -0.413268950764E+03   -0.56281E-01   -0.64692E-02  5125   0.212E-01    0.987E-01
RMM:   5    -0.413210755035E+03    0.58196E-01   -0.28070E-02  4777   0.166E-01    0.618E-02
RMM:   6    -0.413210927433E+03   -0.17240E-03   -0.45816E-03  5806   0.639E-02    0.355E-02
RMM:   7    -0.413210941409E+03   -0.13976E-04   -0.56220E-04  5835   0.211E-02    0.225E-02
RMM:   8    -0.413210942102E+03   -0.69270E-06   -0.13013E-04  5274   0.112E-02    0.140E-02
RMM:   9    -0.413210928317E+03    0.13785E-04   -0.27353E-05  4670   0.613E-03    0.639E-03
RMM:  10    -0.413210924348E+03    0.39690E-05   -0.58280E-06  3019   0.303E-03    0.401E-03
RMM:  11    -0.413210920984E+03    0.33639E-05   -0.15069E-06  2505   0.204E-03    0.236E-03
RMM:  12    -0.413210914676E+03    0.63081E-05   -0.11978E-06  2491   0.184E-03    0.797E-04
RMM:  13    -0.413210910966E+03    0.37104E-05   -0.56697E-07  2391   0.130E-03    0.512E-04
RMM:  14    -0.413210909942E+03    0.10234E-05   -0.26594E-07  1988   0.907E-04    0.350E-04
RMM:  15    -0.413210907799E+03    0.21432E-05   -0.14223E-07  1450   0.720E-04    0.178E-04
RMM:  16    -0.413210903567E+03    0.42325E-05   -0.11306E-07  1291   0.691E-04    0.152E-04
RMM:  17    -0.413210902029E+03    0.15377E-05   -0.60188E-08  1010   0.618E-04    0.859E-05
RMM:  18    -0.413210898514E+03    0.35152E-05   -0.65993E-08  1208   0.644E-04    0.927E-05
RMM:  19    -0.413210896689E+03    0.18242E-05   -0.40023E-08  1025   0.588E-04    0.469E-05
RMM:  20    -0.413210895771E+03    0.91851E-06   -0.23234E-08   839   0.552E-04
   41 T=    70. E= -.41286675E+03 F= -.41321090E+03 E0= -.41318982E+03  EK= 0.34414E+00 SP= 0.00E+00 SK= 0.00E+00
       N       E                     dE             d eps       ncg     rms          rms(c)
RMM:   1    -0.413219181098E+03   -0.82844E-02   -0.11122E+01  4311   0.119E+00    0.967E-01
RMM:   2    -0.413216709122E+03    0.24720E-02   -0.14911E-01  4292   0.135E-01    0.687E-01
RMM:   3    -0.413217020769E+03   -0.31165E-03   -0.15087E-02  5075   0.761E-02    0.291E-01
RMM:   4    -0.413253752597E+03   -0.36732E-01   -0.52577E-02  5091   0.193E-01    0.829E-01
RMM:   5    -0.413213310870E+03    0.40442E-01   -0.17902E-02  4742   0.138E-01    0.594E-02
RMM:   6    -0.413213384742E+03   -0.73872E-04   -0.31598E-03  5763   0.532E-02    0.346E-02
RMM:   7    -0.413213390292E+03   -0.55502E-05   -0.45512E-04  5749   0.194E-02    0.221E-02
RMM:   8    -0.413213385794E+03    0.44980E-05   -0.12146E-04  5199   0.112E-02    0.124E-02
RMM:   9    -0.413213371865E+03    0.13930E-04   -0.19879E-05  4428   0.558E-03    0.522E-03
RMM:  10    -0.413213366692E+03    0.51732E-05   -0.42748E-06  2845   0.266E-03    0.331E-03
RMM:  11    -0.413213361525E+03    0.51667E-05   -0.12024E-06  2491   0.186E-03    0.181E-03
RMM:  12    -0.413213353531E+03    0.79937E-05   -0.80685E-07  2461   0.155E-03    0.687E-04
RMM:  13    -0.413213348985E+03    0.45468E-05   -0.39310E-07  2211   0.110E-03    0.336E-04
RMM:  14    -0.413213346879E+03    0.21054E-05   -0.20722E-07  1749   0.816E-04    0.231E-04
RMM:  15    -0.413213342010E+03    0.48692E-05   -0.12902E-07  1347   0.714E-04    0.125E-04
RMM:  16    -0.413213338858E+03    0.31518E-05   -0.83785E-08  1162   0.656E-04    0.102E-04
RMM:  17    -0.413213335716E+03    0.31419E-05   -0.65760E-08  1155   0.639E-04    0.753E-05
RMM:  18    -0.413213332674E+03    0.30420E-05   -0.53812E-08  1145   0.617E-04    0.471E-05
RMM:  19    -0.413213330171E+03    0.25036E-05   -0.40804E-08  1066   0.590E-04    0.352E-05
RMM:  20    -0.413213329724E+03    0.44626E-06   -0.18061E-08   752   0.538E-04
   42 T=    71. E= -.41286698E+03 F= -.41321333E+03 E0= -.41319229E+03  EK= 0.34635E+00 SP= 0.00E+00 SK= 0.00E+00
       N       E                     dE             d eps       ncg     rms          rms(c)
RMM:   1    -0.413235787406E+03   -0.22457E-01   -0.11209E+01  4311   0.133E+00    0.943E-01
RMM:   2    -0.413218851603E+03    0.16936E-01   -0.16795E-01  4292   0.149E-01    0.688E-01
RMM:   3    -0.413219921228E+03   -0.10696E-02   -0.14788E-02  5084   0.817E-02    0.328E-01
RMM:   4    -0.413255617341E+03   -0.35696E-01   -0.54592E-02  5088   0.198E-01    0.828E-01
RMM:   5    -0.413215299142E+03    0.40318E-01   -0.17641E-02  4727   0.138E-01    0.608E-02
RMM:   6    -0.413215358288E+03   -0.59146E-04   -0.30822E-03  5743   0.529E-02    0.342E-02
RMM:   7    -0.413215362954E+03   -0.46656E-05   -0.44787E-04  5778   0.192E-02    0.226E-02
RMM:   8    -0.413215358648E+03    0.43062E-05   -0.12017E-04  5198   0.112E-02    0.118E-02
RMM:   9    -0.413215346515E+03    0.12133E-04   -0.20586E-05  4466   0.565E-03    0.464E-03
RMM:  10    -0.413215343229E+03    0.32860E-05   -0.42322E-06  2826   0.259E-03    0.295E-03
RMM:  11    -0.413215339177E+03    0.40520E-05   -0.12639E-06  2496   0.185E-03    0.160E-03
RMM:  12    -0.413215333935E+03    0.52416E-05   -0.71085E-07  2439   0.145E-03    0.614E-04
RMM:  13    -0.413215330847E+03    0.30883E-05   -0.35536E-07  2076   0.102E-03    0.283E-04
RMM:  14    -0.413215328645E+03    0.22013E-05   -0.19462E-07  1572   0.788E-04    0.179E-04
RMM:  15    -0.413215324555E+03    0.40902E-05   -0.13983E-07  1329   0.722E-04    0.108E-04
RMM:  16    -0.413215322504E+03    0.20517E-05   -0.85758E-08  1134   0.659E-04    0.782E-05
RMM:  17    -0.413215319690E+03    0.28132E-05   -0.75870E-08  1236   0.652E-04    0.495E-05
RMM:  18    -0.413215317435E+03    0.22555E-05   -0.53558E-08  1098   0.612E-04    0.360E-05
RMM:  19    -0.413215315828E+03    0.16065E-05   -0.37127E-08   967   0.576E-04    0.211E-05
RMM:  20    -0.413215315411E+03    0.41719E-06   -0.18146E-08   742   0.541E-04
   43 T=    71. E= -.41286711E+03 F= -.41321532E+03 E0= -.41319430E+03  EK= 0.34820E+00 SP= 0.00E+00 SK= 0.00E+00
       N       E                     dE             d eps       ncg     rms          rms(c)
RMM:   1    -0.413232187094E+03   -0.16871E-01   -0.11259E+01  4312   0.135E+00    0.948E-01
RMM:   2    -0.413220265156E+03    0.11922E-01   -0.16619E-01  4289   0.161E-01    0.701E-01
RMM:   3    -0.413222235065E+03   -0.19699E-02   -0.16669E-02  5079   0.909E-02    0.355E-01
RMM:   4    -0.413254540382E+03   -0.32305E-01   -0.54628E-02  5067   0.199E-01    0.805E-01
RMM:   5    -0.413216402007E+03    0.38138E-01   -0.16040E-02  4713   0.134E-01    0.603E-02
RMM:   6    -0.413216444632E+03   -0.42625E-04   -0.28733E-03  5719   0.510E-02    0.335E-02
RMM:   7    -0.413216447969E+03   -0.33377E-05   -0.41715E-04  5777   0.188E-02    0.223E-02
RMM:   8    -0.413216445345E+03    0.26240E-05   -0.11294E-04  5166   0.110E-02    0.113E-02
RMM:   9    -0.413216435284E+03    0.10061E-04   -0.19524E-05  4421   0.556E-03    0.442E-03
RMM:  10    -0.413216433000E+03    0.22845E-05   -0.37672E-06  2773   0.250E-03    0.275E-03
RMM:  11    -0.413216429941E+03    0.30585E-05   -0.12876E-06  2502   0.184E-03    0.149E-03
RMM:  12    -0.413216426195E+03    0.37459E-05   -0.71190E-07  2434   0.141E-03    0.605E-04
RMM:  13    -0.413216423844E+03    0.23514E-05   -0.35092E-07  1992   0.987E-04    0.274E-04
RMM:  14    -0.413216421917E+03    0.19270E-05   -0.19907E-07  1507   0.780E-04    0.167E-04
RMM:  15    -0.413216418514E+03    0.34032E-05   -0.15248E-07  1311   0.725E-04    0.103E-04
RMM:  16    -0.413216416848E+03    0.16658E-05   -0.92714E-08  1122   0.660E-04    0.748E-05
RMM:  17    -0.413216414276E+03    0.25723E-05   -0.82124E-08  1229   0.658E-04    0.464E-05
RMM:  18    -0.413216412451E+03    0.18245E-05   -0.57995E-08  1105   0.612E-04    0.386E-05
RMM:  19    -0.413216411279E+03    0.11719E-05   -0.36030E-08   922   0.570E-04    0.193E-05
RMM:  20    -0.413216410721E+03    0.55849E-06   -0.22922E-08   795   0.545E-04
   44 T=    71. E= -.41286689E+03 F= -.41321641E+03 E0= -.41319542E+03  EK= 0.34953E+00 SP= 0.00E+00 SK= 0.00E+00
       N       E                     dE             d eps       ncg     rms          rms(c)
RMM:   1    -0.413249385454E+03   -0.32974E-01   -0.11394E+01  4310   0.151E+00    0.973E-01
RMM:   2    -0.413220936446E+03    0.28449E-01   -0.16760E-01  4319   0.168E-01    0.696E-01
RMM:   3    -0.413227471924E+03   -0.65355E-02   -0.20252E-02  5119   0.107E-01    0.448E-01
RMM:   4    -0.413241503478E+03   -0.14032E-01   -0.44667E-02  5046   0.183E-01    0.644E-01
RMM:   5    -0.413217752484E+03    0.23751E-01   -0.89858E-03  4645   0.109E-01    0.574E-02
RMM:   6    -0.413217732052E+03    0.20433E-04   -0.18287E-03  5578   0.413E-02    0.328E-02
RMM:   7    -0.413217729654E+03    0.23980E-05   -0.31371E-04  5612   0.171E-02    0.217E-02
RMM:   8    -0.413217721070E+03    0.85838E-05   -0.11426E-04  5078   0.112E-02    0.102E-02
RMM:   9    -0.413217708043E+03    0.13027E-04   -0.15321E-05  4263   0.535E-03    0.415E-03
RMM:  10    -0.413217704219E+03    0.38240E-05   -0.27098E-06  2690   0.227E-03    0.244E-03
RMM:  11    -0.413217698074E+03    0.61448E-05   -0.11533E-06  2483   0.177E-03    0.132E-03
RMM:  12    -0.413217691979E+03    0.60947E-05   -0.59010E-07  2409   0.133E-03    0.625E-04
RMM:  13    -0.413217688363E+03    0.36167E-05   -0.27945E-07  1870   0.911E-04    0.294E-04
RMM:  14    -0.413217684918E+03    0.34444E-05   -0.15792E-07  1379   0.725E-04    0.160E-04
RMM:  15    -0.413217679839E+03    0.50792E-05   -0.12371E-07  1276   0.695E-04    0.121E-04
RMM:  16    -0.413217677088E+03    0.27510E-05   -0.80066E-08  1110   0.638E-04    0.959E-05
RMM:  17    -0.413217672255E+03    0.48328E-05   -0.83444E-08  1338   0.656E-04    0.671E-05
RMM:  18    -0.413217670166E+03    0.20898E-05   -0.46321E-08  1025   0.574E-04    0.418E-05
RMM:  19    -0.413217668917E+03    0.12489E-05   -0.30056E-08   859   0.540E-04    0.233E-05
RMM:  20    -0.413217668413E+03    0.50388E-06   -0.17893E-08   735   0.520E-04
   45 T=    71. E= -.41286720E+03 F= -.41321767E+03 E0= -.41319670E+03  EK= 0.35047E+00 SP= 0.00E+00 SK= 0.00E+00
       N       E                     dE             d eps       ncg     rms          rms(c)
RMM:   1    -0.413254816134E+03   -0.37147E-01   -0.11324E+01  4310   0.160E+00    0.953E-01
RMM:   2    -0.413220731786E+03    0.34084E-01   -0.17954E-01  4338   0.183E-01    0.692E-01
RMM:   3    -0.413229504337E+03   -0.87726E-02   -0.21253E-02  5120   0.116E-01    0.502E-01
RMM:   4    -0.413237556973E+03   -0.80526E-02   -0.43254E-02  5030   0.181E-01    0.600E-01
RMM:   5    -0.413217431194E+03    0.20126E-01   -0.75449E-03  4603   0.103E-01    0.572E-02
RMM:   6    -0.413217387491E+03    0.43703E-04   -0.15066E-03  5447   0.381E-02    0.318E-02
RMM:   7    -0.413217383239E+03    0.42519E-05   -0.26540E-04  5602   0.160E-02    0.215E-02
RMM:   8    -0.413217374542E+03    0.86970E-05   -0.12243E-04  5080   0.114E-02    0.101E-02
RMM:   9    -0.413217361270E+03    0.13272E-04   -0.16171E-05  4322   0.554E-03    0.409E-03
RMM:  10    -0.413217358185E+03    0.30854E-05   -0.27682E-06  2697   0.223E-03    0.235E-03
RMM:  11    -0.413217352485E+03    0.56993E-05   -0.12490E-06  2487   0.181E-03    0.129E-03
RMM:  12    -0.413217347798E+03    0.46873E-05   -0.56729E-07  2415   0.132E-03    0.676E-04
RMM:  13    -0.413217344351E+03    0.34473E-05   -0.26956E-07  1807   0.898E-04    0.323E-04
RMM:  14    -0.413217340922E+03    0.34286E-05   -0.14956E-07  1338   0.713E-04    0.170E-04
RMM:  15    -0.413217336998E+03    0.39243E-05   -0.11121E-07  1229   0.673E-04    0.118E-04
RMM:  16    -0.413217334332E+03    0.26663E-05   -0.74342E-08  1080   0.627E-04    0.102E-04
RMM:  17    -0.413217330264E+03    0.40675E-05   -0.75447E-08  1271   0.643E-04    0.659E-05
RMM:  18    -0.413217328089E+03    0.21749E-05   -0.45138E-08  1027   0.575E-04    0.470E-05
RMM:  19    -0.413217327145E+03    0.94423E-06   -0.25609E-08   816   0.532E-04
   46 T=    71. E= -.41286702E+03 F= -.41321733E+03 E0= -.41319638E+03  EK= 0.35031E+00 SP= 0.00E+00 SK= 0.00E+00
       N       E                     dE             d eps       ncg     rms          rms(c)
RMM:   1    -0.413241790685E+03   -0.24463E-01   -0.11201E+01  4310   0.162E+00    0.940E-01
RMM:   2    -0.413220151917E+03    0.21639E-01   -0.18804E-01  4350   0.193E-01    0.705E-01
RMM:   3    -0.413229799502E+03   -0.96476E-02   -0.22147E-02  5118   0.123E-01    0.530E-01
RMM:   4    -0.413237132526E+03   -0.73330E-02   -0.45977E-02  5023   0.187E-01    0.609E-01
RMM:   5    -0.413216232168E+03    0.20900E-01   -0.78408E-03  4600   0.106E-01    0.590E-02
RMM:   6    -0.413216172103E+03    0.60066E-04   -0.15076E-03  5428   0.385E-02    0.317E-02
RMM:   7    -0.413216167379E+03    0.47240E-05   -0.26386E-04  5633   0.159E-02    0.221E-02
RMM:   8    -0.413216158756E+03    0.86224E-05   -0.12640E-04  5114   0.116E-02    0.103E-02
RMM:   9    -0.413216146379E+03    0.12378E-04   -0.17748E-05  4379   0.574E-03    0.412E-03
RMM:  10    -0.413216144358E+03    0.20211E-05   -0.29876E-06  2728   0.227E-03    0.238E-03
RMM:  11    -0.413216140495E+03    0.38625E-05   -0.13856E-06  2502   0.188E-03    0.133E-03
RMM:  12    -0.413216137511E+03    0.29845E-05   -0.60555E-07  2433   0.136E-03    0.713E-04
RMM:  13    -0.413216134867E+03    0.26440E-05   -0.30385E-07  1849   0.941E-04    0.342E-04
RMM:  14    -0.413216132356E+03    0.25104E-05   -0.16955E-07  1381   0.742E-04    0.174E-04
RMM:  15    -0.413216129684E+03    0.26723E-05   -0.12393E-07  1232   0.689E-04    0.110E-04
RMM:  16    -0.413216127650E+03    0.20339E-05   -0.87364E-08  1185   0.643E-04    0.974E-05
RMM:  17    -0.413216125234E+03    0.24158E-05   -0.72432E-08  1164   0.622E-04    0.510E-05
RMM:  18    -0.413216123050E+03    0.21845E-05   -0.55045E-08  1068   0.594E-04    0.439E-05
RMM:  19    -0.413216122507E+03    0.54278E-06   -0.25153E-08   766   0.530E-04
   47 T=    71. E= -.41286699E+03 F= -.41321612E+03 E0= -.41319518E+03  EK= 0.34913E+00 SP= 0.00E+00 SK= 0.00E+00
       N       E                     dE             d eps       ncg     rms          rms(c)
RMM:   1    -0.413243878551E+03   -0.27756E-01   -0.11131E+01  4303   0.174E+00    0.964E-01
RMM:   2    -0.413217470835E+03    0.26408E-01   -0.17731E-01  4400   0.202E-01    0.698E-01
RMM:   3    -0.413235572705E+03   -0.18102E-01   -0.29922E-02  5143   0.147E-01    0.646E-01
RMM:   4    -0.413226000421E+03    0.95723E-02   -0.41502E-02  4978   0.182E-01    0.471E-01
RMM:   5    -0.413214087809E+03    0.11913E-01   -0.45493E-03  4534   0.895E-02    0.577E-02
RMM:   6    -0.413213970110E+03    0.11770E-03   -0.64306E-04  4855   0.295E-02    0.303E-02
RMM:   7    -0.413213955836E+03    0.14274E-04   -0.17962E-04  5888   0.133E-02    0.129E-02
RMM:   8    -0.413213948064E+03    0.77718E-05   -0.58861E-05  5170   0.913E-03    0.984E-03
RMM:   9    -0.413213942942E+03    0.51227E-05   -0.15503E-05  4264   0.472E-03    0.407E-03
RMM:  10    -0.413213939397E+03    0.35445E-05   -0.21312E-06  2565   0.237E-03    0.236E-03
RMM:  11    -0.413213933629E+03    0.57679E-05   -0.15668E-06  2476   0.206E-03    0.148E-03
RMM:  12    -0.413213929679E+03    0.39502E-05   -0.59013E-07  2403   0.141E-03    0.867E-04
RMM:  13    -0.413213925901E+03    0.37783E-05   -0.26111E-07  1961   0.921E-04    0.478E-04
RMM:  14    -0.413213919985E+03    0.59162E-05   -0.22503E-07  1838   0.839E-04    0.463E-04
RMM:  15    -0.413213916080E+03    0.39041E-05   -0.10126E-07  1042   0.613E-04    0.178E-04
RMM:  16    -0.413213914197E+03    0.18837E-05   -0.63798E-08   956   0.588E-04    0.929E-05
RMM:  17    -0.413213910639E+03    0.35581E-05   -0.66121E-08  1048   0.609E-04    0.110E-04
RMM:  18    -0.413213909235E+03    0.14038E-05   -0.34849E-08   843   0.556E-04    0.761E-05
RMM:  19    -0.413213908367E+03    0.86731E-06   -0.22658E-08   740   0.528E-04
   48 T=    71. E= -.41286726E+03 F= -.41321391E+03 E0= -.41319298E+03  EK= 0.34665E+00 SP= 0.00E+00 SK= 0.00E+00
       N       E                     dE             d eps       ncg     rms          rms(c)
RMM:   1    -0.413243272609E+03   -0.29363E-01   -0.10928E+01  4303   0.185E+00    0.952E-01
RMM:   2    -0.413212551444E+03    0.30721E-01   -0.17652E-01  4465   0.212E-01    0.687E-01
RMM:   3    -0.413237923861E+03   -0.25372E-01   -0.35807E-02  5152   0.164E-01    0.738E-01
RMM:   4    -0.413217301193E+03    0.20623E-01   -0.40671E-02  4948   0.184E-01    0.398E-01
RMM:   5    -0.413209350857E+03    0.79503E-02   -0.42186E-03  4633   0.882E-02    0.646E-02
RMM:   6    -0.413209160217E+03    0.19064E-03   -0.45312E-04  4652   0.292E-02    0.331E-02
RMM:   7    -0.413209167716E+03   -0.74991E-05   -0.29045E-04  5741   0.180E-02    0.247E-02
RMM:   8    -0.413209132509E+03    0.35208E-04   -0.97178E-05  4988   0.113E-02    0.942E-03
RMM:   9    -0.413209125707E+03    0.68012E-05   -0.20207E-05  4890   0.565E-03    0.472E-03
RMM:  10    -0.413209121454E+03    0.42534E-05   -0.24191E-06  2648   0.243E-03    0.263E-03
RMM:  11    -0.413209115317E+03    0.61373E-05   -0.13154E-06  2493   0.190E-03    0.181E-03
RMM:  12    -0.413209111529E+03    0.37881E-05   -0.41485E-07  2397   0.120E-03    0.934E-04
RMM:  13    -0.413209106935E+03    0.45936E-05   -0.27339E-07  1993   0.891E-04    0.439E-04
RMM:  14    -0.413209101716E+03    0.52185E-05   -0.21075E-07  1764   0.786E-04    0.366E-04
RMM:  15    -0.413209096932E+03    0.47840E-05   -0.11788E-07  1155   0.641E-04    0.144E-04
RMM:  16    -0.413209094293E+03    0.26395E-05   -0.72106E-08  1071   0.599E-04    0.893E-05
RMM:  17    -0.413209090835E+03    0.34578E-05   -0.67266E-08  1119   0.609E-04    0.681E-05
RMM:  18    -0.413209089445E+03    0.13900E-05   -0.39833E-08   971   0.561E-04    0.591E-05
RMM:  19    -0.413209087420E+03    0.20255E-05   -0.35626E-08  1000   0.555E-04    0.371E-05
RMM:  20    -0.413209086654E+03    0.76507E-06   -0.20593E-08   793   0.508E-04
   49 T=    70. E= -.41286695E+03 F= -.41320909E+03 E0= -.41318816E+03  EK= 0.34213E+00 SP= 0.00E+00 SK= 0.00E+00
       N       E                     dE             d eps       ncg     rms          rms(c)
RMM:   1    -0.413229205483E+03   -0.20118E-01   -0.10648E+01  4304   0.190E+00    0.923E-01
RMM:   2    -0.413206996647E+03    0.22209E-01   -0.17669E-01  4487   0.220E-01    0.691E-01
RMM:   3    -0.413233401304E+03   -0.26405E-01   -0.36764E-02  5158   0.169E-01    0.758E-01
RMM:   4    -0.413211195458E+03    0.22206E-01   -0.42087E-02  4947   0.188E-01    0.396E-01
RMM:   5    -0.413203207123E+03    0.79883E-02   -0.46531E-03  4707   0.923E-02    0.691E-02
RMM:   6    -0.413202974093E+03    0.23303E-03   -0.47865E-04  4642   0.309E-02    0.337E-02
RMM:   7    -0.413202981189E+03   -0.70969E-05   -0.28545E-04  5741   0.180E-02    0.247E-02
RMM:   8    -0.413202948016E+03    0.33174E-04   -0.93889E-05  5016   0.110E-02    0.102E-02
RMM:   9    -0.413202942174E+03    0.58413E-05   -0.20914E-05  4896   0.578E-03    0.460E-03
RMM:  10    -0.413202938773E+03    0.34018E-05   -0.27932E-06  2680   0.251E-03    0.270E-03
RMM:  11    -0.413202934410E+03    0.43628E-05   -0.11332E-06  2484   0.182E-03    0.175E-03
RMM:  12    -0.413202931613E+03    0.27968E-05   -0.39981E-07  2384   0.116E-03    0.899E-04
RMM:  13    -0.413202928120E+03    0.34931E-05   -0.33332E-07  2142   0.942E-04    0.460E-04
[...]
RMM:  17    -0.413161004254E+03   -0.28375E-05   -0.13430E-07  1433   0.673E-04    0.583E-05
RMM:  18    -0.413161005161E+03   -0.90731E-06   -0.62124E-08  1015   0.560E-04
  139 T=    60. E= -.41286835E+03 F= -.41316101E+03 E0= -.41314028E+03  EK= 0.29265E+00 SP= 0.00E+00 SK= 0.00E+00
       N       E                     dE             d eps       ncg     rms          rms(c)
RMM:   1    -0.413154241008E+03    0.67632E-02   -0.92582E+00  4264   0.991E-01    0.817E-01
RMM:   2    -0.413161721341E+03   -0.74803E-02   -0.10279E-01  4431   0.107E-01    0.575E-01
RMM:   3    -0.413161902618E+03   -0.18128E-03   -0.78793E-03  5114   0.616E-02    0.212E-01
RMM:   4    -0.413190080132E+03   -0.28178E-01   -0.36097E-02  5123   0.160E-01    0.717E-01
RMM:   5    -0.413160198740E+03    0.29881E-01   -0.13921E-02  4780   0.122E-01    0.576E-02
RMM:   6    -0.413160153575E+03    0.45164E-04   -0.24014E-03  5614   0.488E-02    0.219E-02
RMM:   7    -0.413160183015E+03   -0.29440E-04   -0.37003E-04  5994   0.172E-02    0.165E-02
RMM:   8    -0.413160194734E+03   -0.11719E-04   -0.63418E-05  5174   0.764E-03    0.794E-03
RMM:   9    -0.413160205052E+03   -0.10319E-04   -0.12749E-05  3658   0.406E-03    0.376E-03
RMM:  10    -0.413160210530E+03   -0.54775E-05   -0.23715E-06  2609   0.223E-03    0.230E-03
RMM:  11    -0.413160218566E+03   -0.80358E-05   -0.14183E-06  2532   0.185E-03    0.141E-03
RMM:  12    -0.413160223698E+03   -0.51321E-05   -0.66127E-07  2420   0.128E-03    0.671E-04
RMM:  13    -0.413160226383E+03   -0.26848E-05   -0.30502E-07  1776   0.886E-04    0.343E-04
RMM:  14    -0.413160229354E+03   -0.29714E-05   -0.25525E-07  1769   0.840E-04    0.219E-04
RMM:  15    -0.413160231735E+03   -0.23814E-05   -0.17615E-07  1454   0.725E-04    0.152E-04
RMM:  16    -0.413160234020E+03   -0.22851E-05   -0.15132E-07  1479   0.695E-04    0.878E-05
RMM:  17    -0.413160235928E+03   -0.19073E-05   -0.10934E-07  1288   0.637E-04    0.540E-05
RMM:  18    -0.413160236704E+03   -0.77670E-06   -0.57016E-08  1021   0.563E-04
  140 T=    59. E= -.41286849E+03 F= -.41316024E+03 E0= -.41313954E+03  EK= 0.29175E+00 SP= 0.00E+00 SK= 0.00E+00
       N       E                     dE             d eps       ncg     rms          rms(c)
RMM:   1    -0.413151962326E+03    0.82736E-02   -0.93319E+00  4264   0.979E-01    0.820E-01
RMM:   2    -0.413159545332E+03   -0.75830E-02   -0.10198E-01  4405   0.108E-01    0.564E-01
RMM:   3    -0.413159835016E+03   -0.28968E-03   -0.73834E-03  5097   0.601E-02    0.208E-01
RMM:   4    -0.413186816381E+03   -0.26981E-01   -0.33848E-02  5126   0.155E-01    0.702E-01
RMM:   5    -0.413158329211E+03    0.28487E-01   -0.13381E-02  4790   0.119E-01    0.554E-02
RMM:   6    -0.413158285323E+03    0.43888E-04   -0.22654E-03  5628   0.475E-02    0.208E-02
RMM:   7    -0.413158310356E+03   -0.25033E-04   -0.33598E-04  5995   0.165E-02    0.155E-02
RMM:   8    -0.413158319028E+03   -0.86722E-05   -0.53529E-05  5067   0.686E-03    0.804E-03
RMM:   9    -0.413158326732E+03   -0.77040E-05   -0.10502E-05  3435   0.376E-03    0.368E-03
RMM:  10    -0.413158331140E+03   -0.44087E-05   -0.22111E-06  2578   0.221E-03    0.221E-03
RMM:  11    -0.413158336966E+03   -0.58257E-05   -0.13619E-06  2530   0.180E-03    0.132E-03
RMM:  12    -0.413158340070E+03   -0.31036E-05   -0.59052E-07  2401   0.121E-03    0.618E-04
RMM:  13    -0.413158341855E+03   -0.17853E-05   -0.29447E-07  1706   0.864E-04    0.315E-04
RMM:  14    -0.413158343679E+03   -0.18241E-05   -0.24143E-07  1711   0.824E-04    0.198E-04
RMM:  15    -0.413158345261E+03   -0.15818E-05   -0.17495E-07  1478   0.728E-04    0.138E-04
RMM:  16    -0.413158346462E+03   -0.12007E-05   -0.12626E-07  1342   0.661E-04    0.819E-05
RMM:  17    -0.413158347693E+03   -0.12313E-05   -0.10302E-07  1300   0.635E-04    0.435E-05
RMM:  18    -0.413158348289E+03   -0.59563E-06   -0.53885E-08  1005   0.559E-04
  141 T=    59. E= -.41286830E+03 F= -.41315835E+03 E0= -.41313768E+03  EK= 0.29005E+00 SP= 0.00E+00 SK= 0.00E+00
       N       E                     dE             d eps       ncg     rms          rms(c)
RMM:   1    -0.413150991134E+03    0.73566E-02   -0.93443E+00  4264   0.984E-01    0.794E-01
RMM:   2    -0.413159131514E+03   -0.81404E-02   -0.10530E-01  4402   0.109E-01    0.569E-01
RMM:   3    -0.413159480711E+03   -0.34920E-03   -0.65095E-03  5120   0.551E-02    0.191E-01
RMM:   4    -0.413191661847E+03   -0.32181E-01   -0.38002E-02  5135   0.164E-01    0.756E-01
RMM:   5    -0.413158218496E+03    0.33443E-01   -0.15917E-02  4796   0.128E-01    0.533E-02
RMM:   6    -0.413158204423E+03    0.14073E-04   -0.26368E-03  5676   0.503E-02    0.167E-02
RMM:   7    -0.413158237144E+03   -0.32721E-04   -0.35824E-04  6029   0.166E-02    0.135E-02
RMM:   8    -0.413158248428E+03   -0.11284E-04   -0.51081E-05  4905   0.639E-03    0.797E-03
RMM:   9    -0.413158261668E+03   -0.13240E-04   -0.88681E-06  3247   0.354E-03    0.373E-03
RMM:  10    -0.413158270853E+03   -0.91843E-05   -0.24857E-06  2576   0.232E-03    0.219E-03
RMM:  11    -0.413158280570E+03   -0.97179E-05   -0.13797E-06  2531   0.179E-03    0.124E-03
RMM:  12    -0.413158285354E+03   -0.47832E-05   -0.55692E-07  2394   0.117E-03    0.592E-04
RMM:  13    -0.413158289154E+03   -0.38007E-05   -0.33096E-07  1747   0.891E-04    0.316E-04
RMM:  14    -0.413158292684E+03   -0.35299E-05   -0.25882E-07  1744   0.832E-04    0.222E-04
RMM:  15    -0.413158296120E+03   -0.34355E-05   -0.21276E-07  1561   0.753E-04    0.133E-04
RMM:  16    -0.413158298539E+03   -0.24192E-05   -0.14610E-07  1405   0.676E-04    0.803E-05
RMM:  17    -0.413158300376E+03   -0.18367E-05   -0.10689E-07  1222   0.619E-04    0.492E-05
RMM:  18    -0.413158301420E+03   -0.10442E-05   -0.66074E-08  1070   0.573E-04    0.378E-05
RMM:  19    -0.413158302150E+03   -0.73048E-06   -0.44014E-08   934   0.543E-04
  142 T=    59. E= -.41286865E+03 F= -.41315830E+03 E0= -.41313765E+03  EK= 0.28965E+00 SP= 0.00E+00 SK= 0.00E+00
       N       E                     dE             d eps       ncg     rms          rms(c)
RMM:   1    -0.413151527793E+03    0.67736E-02   -0.94438E+00  4264   0.100E+00    0.805E-01
RMM:   2    -0.413157914077E+03   -0.63863E-02   -0.10766E-01  4423   0.107E-01    0.573E-01
RMM:   3    -0.413158202047E+03   -0.28797E-03   -0.62420E-03  5115   0.533E-02    0.185E-01
RMM:   4    -0.413191795660E+03   -0.33594E-01   -0.38602E-02  5135   0.165E-01    0.770E-01
RMM:   5    -0.413157128694E+03    0.34667E-01   -0.16691E-02  4810   0.130E-01    0.522E-02
RMM:   6    -0.413157114677E+03    0.14017E-04   -0.26777E-03  5689   0.507E-02    0.154E-02
RMM:   7    -0.413157146737E+03   -0.32059E-04   -0.35765E-04  6037   0.164E-02    0.128E-02
RMM:   8    -0.413157156577E+03   -0.98407E-05   -0.48520E-05  4742   0.601E-03    0.808E-03
RMM:   9    -0.413157168425E+03   -0.11848E-04   -0.74174E-06  3092   0.328E-03    0.393E-03
RMM:  10    -0.413157178493E+03   -0.10067E-04   -0.26182E-06  2577   0.239E-03    0.220E-03
RMM:  11    -0.413157187872E+03   -0.93795E-05   -0.13782E-06  2532   0.177E-03    0.111E-03
RMM:  12    -0.413157192012E+03   -0.41397E-05   -0.54448E-07  2362   0.114E-03    0.533E-04
RMM:  13    -0.413157195671E+03   -0.36590E-05   -0.33930E-07  1844   0.906E-04    0.299E-04
RMM:  14    -0.413157198845E+03   -0.31739E-05   -0.24359E-07  1639   0.809E-04    0.211E-04
RMM:  15    -0.413157202478E+03   -0.36330E-05   -0.24236E-07  1641   0.776E-04    0.112E-04
RMM:  16    -0.413157204374E+03   -0.18965E-05   -0.13399E-07  1373   0.661E-04    0.733E-05
RMM:  17    -0.413157206129E+03   -0.17551E-05   -0.10622E-07  1214   0.621E-04    0.434E-05
RMM:  18    -0.413157207067E+03   -0.93825E-06   -0.63983E-08  1061   0.572E-04
  143 T=    59. E= -.41286838E+03 F= -.41315721E+03 E0= -.41313658E+03  EK= 0.28883E+00 SP= 0.00E+00 SK= 0.00E+00
       N       E                     dE             d eps       ncg     rms          rms(c)
RMM:   1    -0.413148586606E+03    0.86195E-02   -0.93943E+00  4264   0.974E-01    0.821E-01
RMM:   2    -0.413156164785E+03   -0.75782E-02   -0.10427E-01  4406   0.107E-01    0.564E-01
RMM:   3    -0.413156680370E+03   -0.51559E-03   -0.64386E-03  5117   0.518E-02    0.184E-01
RMM:   4    -0.413187532977E+03   -0.30853E-01   -0.35342E-02  5141   0.158E-01    0.739E-01
RMM:   5    -0.413155727672E+03    0.31805E-01   -0.15320E-02  4809   0.125E-01    0.516E-02
RMM:   6    -0.413155706407E+03    0.21265E-04   -0.24772E-03  5698   0.491E-02    0.173E-02
RMM:   7    -0.413155733437E+03   -0.27030E-04   -0.33585E-04  6025   0.159E-02    0.135E-02
RMM:   8    -0.413155740144E+03   -0.67065E-05   -0.44983E-05  4665   0.586E-03    0.849E-03
RMM:   9    -0.413155746932E+03   -0.67883E-05   -0.71511E-06  3041   0.324E-03    0.397E-03
RMM:  10    -0.413155752506E+03   -0.55742E-05   -0.25638E-06  2577   0.236E-03    0.214E-03
RMM:  11    -0.413155757596E+03   -0.50895E-05   -0.13559E-06  2533   0.174E-03    0.107E-03
RMM:  12    -0.413155759635E+03   -0.20394E-05   -0.52897E-07  2314   0.113E-03    0.509E-04
RMM:  13    -0.413155761428E+03   -0.17931E-05   -0.33215E-07  1823   0.898E-04    0.280E-04
RMM:  14    -0.413155762903E+03   -0.14750E-05   -0.23262E-07  1572   0.795E-04    0.190E-04
RMM:  15    -0.413155764578E+03   -0.16751E-05   -0.22702E-07  1619   0.772E-04    0.102E-04
RMM:  16    -0.413155765422E+03   -0.84330E-06   -0.12301E-07  1326   0.651E-04
  144 T=    59. E= -.41286838E+03 F= -.41315577E+03 E0= -.41313515E+03  EK= 0.28739E+00 SP= 0.00E+00 SK= 0.00E+00
       N       E                     dE             d eps       ncg     rms          rms(c)
RMM:   1    -0.413148821513E+03    0.69431E-02   -0.92358E+00  4264   0.991E-01    0.791E-01
RMM:   2    -0.413156049298E+03   -0.72278E-02   -0.10594E-01  4407   0.108E-01    0.564E-01
RMM:   3    -0.413156157481E+03   -0.10818E-03   -0.58535E-03  5108   0.495E-02    0.168E-01
RMM:   4    -0.413189189836E+03   -0.33032E-01   -0.36411E-02  5146   0.159E-01    0.760E-01
RMM:   5    -0.413155389223E+03    0.33801E-01   -0.16406E-02  4807   0.128E-01    0.493E-02
RMM:   6    -0.413155395480E+03   -0.62574E-05   -0.26977E-03  5710   0.502E-02    0.155E-02
RMM:   7    -0.413155427460E+03   -0.31980E-04   -0.35280E-04  6031   0.159E-02    0.129E-02
RMM:   8    -0.413155436803E+03   -0.93431E-05   -0.47371E-05  4734   0.597E-03    0.806E-03
RMM:   9    -0.413155447457E+03   -0.10654E-04   -0.72350E-06  3036   0.320E-03    0.383E-03
RMM:  10    -0.413155456003E+03   -0.85462E-05   -0.24101E-06  2571   0.225E-03    0.213E-03
RMM:  11    -0.413155464872E+03   -0.88691E-05   -0.13424E-06  2529   0.169E-03    0.110E-03
RMM:  12    -0.413155469032E+03   -0.41594E-05   -0.55827E-07  2288   0.113E-03    0.497E-04
RMM:  13    -0.413155472528E+03   -0.34963E-05   -0.36731E-07  1882   0.917E-04    0.286E-04
RMM:  14    -0.413155475402E+03   -0.28743E-05   -0.25812E-07  1621   0.810E-04    0.198E-04
RMM:  15    -0.413155479108E+03   -0.37054E-05   -0.30985E-07  1771   0.816E-04    0.110E-04
RMM:  16    -0.413155480571E+03   -0.14630E-05   -0.13534E-07  1309   0.654E-04    0.746E-05
RMM:  17    -0.413155482163E+03   -0.15924E-05   -0.11967E-07  1272   0.634E-04    0.440E-05
RMM:  18    -0.413155482926E+03   -0.76239E-06   -0.67497E-08  1039   0.562E-04
  145 T=    58. E= -.41286865E+03 F= -.41315548E+03 E0= -.41313489E+03  EK= 0.28683E+00 SP= 0.00E+00 SK= 0.00E+00
       N       E                     dE             d eps       ncg     rms          rms(c)
RMM:   1    -0.413147587260E+03    0.78949E-02   -0.91812E+00  4264   0.967E-01    0.793E-01
RMM:   2    -0.413155590365E+03   -0.80031E-02   -0.10557E-01  4408   0.106E-01    0.574E-01
RMM:   3    -0.413155288778E+03    0.30159E-03   -0.61950E-03  5079   0.507E-02    0.158E-01
RMM:   4    -0.413188857939E+03   -0.33569E-01   -0.36819E-02  5142   0.160E-01    0.765E-01
RMM:   5    -0.413154533841E+03    0.34324E-01   -0.16627E-02  4806   0.129E-01    0.485E-02
RMM:   6    -0.413154545035E+03   -0.11194E-04   -0.27409E-03  5731   0.504E-02    0.164E-02
RMM:   7    -0.413154578099E+03   -0.33063E-04   -0.35033E-04  6019   0.158E-02    0.133E-02
RMM:   8    -0.413154589328E+03   -0.11229E-04   -0.49823E-05  4903   0.632E-03    0.785E-03
RMM:   9    -0.413154601589E+03   -0.12262E-04   -0.82294E-06  3107   0.331E-03    0.366E-03
RMM:  10    -0.413154610194E+03   -0.86050E-05   -0.22499E-06  2569   0.213E-03    0.211E-03
RMM:  11    -0.413154620405E+03   -0.10210E-04   -0.13191E-06  2531   0.165E-03    0.117E-03
RMM:  12    -0.413154625729E+03   -0.53249E-05   -0.60225E-07  2304   0.115E-03    0.530E-04
RMM:  13    -0.413154629695E+03   -0.39651E-05   -0.37556E-07  1850   0.917E-04    0.292E-04
RMM:  14    -0.413154633029E+03   -0.33343E-05   -0.27329E-07  1643   0.822E-04    0.200E-04
RMM:  15    -0.413154637684E+03   -0.46549E-05   -0.37332E-07  1858   0.859E-04    0.132E-04
RMM:  16    -0.413154639046E+03   -0.13625E-05   -0.13617E-07  1263   0.644E-04    0.859E-05
RMM:  17    -0.413154640733E+03   -0.16867E-05   -0.13082E-07  1312   0.646E-04    0.457E-05
RMM:  18    -0.413154641363E+03   -0.62961E-06   -0.69206E-08  1037   0.561E-04
  146 T=    58. E= -.41286824E+03 F= -.41315464E+03 E0= -.41313406E+03  EK= 0.28640E+00 SP= 0.00E+00 SK= 0.00E+00
       N       E                     dE             d eps       ncg     rms          rms(c)
RMM:   1    -0.413147780911E+03    0.68598E-02   -0.90297E+00  4264   0.956E-01    0.814E-01
RMM:   2    -0.413154682662E+03   -0.69018E-02   -0.10204E-01  4402   0.104E-01    0.567E-01
RMM:   3    -0.413154529928E+03    0.15273E-03   -0.67087E-03  5090   0.482E-02    0.154E-01
RMM:   4    -0.413185117852E+03   -0.30588E-01   -0.33012E-02  5145   0.152E-01    0.731E-01
RMM:   5    -0.413153945607E+03    0.31172E-01   -0.15235E-02  4812   0.123E-01    0.487E-02
RMM:   6    -0.413153948558E+03   -0.29505E-05   -0.25039E-03  5730   0.483E-02    0.207E-02
RMM:   7    -0.413153974572E+03   -0.26014E-04   -0.33561E-04  6013   0.158E-02    0.152E-02
RMM:   8    -0.413153981835E+03   -0.72628E-05   -0.53954E-05  5083   0.710E-03    0.783E-03
RMM:   9    -0.413153986668E+03   -0.48331E-05   -0.93192E-06  3237   0.346E-03    0.363E-03
RMM:  10    -0.413153990306E+03   -0.36386E-05   -0.20740E-06  2570   0.204E-03    0.222E-03
RMM:  11    -0.413153995260E+03   -0.49532E-05   -0.13465E-06  2530   0.169E-03    0.128E-03
RMM:  12    -0.413153997862E+03   -0.26024E-05   -0.65416E-07  2334   0.122E-03    0.495E-04
RMM:  13    -0.413153999344E+03   -0.14822E-05   -0.35888E-07  1912   0.928E-04    0.273E-04
RMM:  14    -0.413154000529E+03   -0.11854E-05   -0.23311E-07  1524   0.799E-04    0.180E-04
RMM:  15    -0.413154002517E+03   -0.19874E-05   -0.35763E-07  1848   0.863E-04    0.146E-04
RMM:  16    -0.413154002988E+03   -0.47097E-06   -0.11666E-07  1236   0.636E-04
  147 T=    58. E= -.41286861E+03 F= -.41315400E+03 E0= -.41313343E+03  EK= 0.28540E+00 SP= 0.00E+00 SK= 0.00E+00
       N       E                     dE             d eps       ncg     rms          rms(c)
RMM:   1    -0.413150515124E+03    0.34874E-02   -0.87700E+00  4264   0.979E-01    0.791E-01
RMM:   2    -0.413154165978E+03   -0.36509E-02   -0.10126E-01  4404   0.104E-01    0.563E-01
RMM:   3    -0.413153373361E+03    0.79262E-03   -0.67501E-03  5106   0.448E-02    0.136E-01
RMM:   4    -0.413180821680E+03   -0.27448E-01   -0.29097E-02  5151   0.143E-01    0.692E-01
RMM:   5    -0.413152957765E+03    0.27864E-01   -0.13717E-02  4819   0.116E-01    0.461E-02
RMM:   6    -0.413152962989E+03   -0.52243E-05   -0.22434E-03  5751   0.457E-02    0.215E-02
RMM:   7    -0.413152988384E+03   -0.25395E-04   -0.30660E-04  5965   0.152E-02    0.151E-02
RMM:   8    -0.413152997821E+03   -0.94369E-05   -0.55843E-05  5125   0.746E-03    0.733E-03
RMM:   9    -0.413153003362E+03   -0.55408E-05   -0.90184E-06  3255   0.342E-03    0.357E-03
RMM:  10    -0.413153008084E+03   -0.47221E-05   -0.19029E-06  2571   0.198E-03    0.227E-03
RMM:  11    -0.413153015247E+03   -0.71637E-05   -0.13054E-06  2520   0.168E-03    0.129E-03
RMM:  12    -0.413153019532E+03   -0.42844E-05   -0.68819E-07  2348   0.124E-03    0.469E-04
RMM:  13    -0.413153021744E+03   -0.22125E-05   -0.34833E-07  1896   0.927E-04    0.280E-04
RMM:  14    -0.413153023599E+03   -0.18544E-05   -0.23353E-07  1520   0.799E-04    0.192E-04
RMM:  15    -0.413153026953E+03   -0.33539E-05   -0.39987E-07  1894   0.888E-04    0.161E-04
RMM:  16    -0.413153027579E+03   -0.62639E-06   -0.11949E-07  1256   0.633E-04
  148 T=    58. E= -.41286844E+03 F= -.41315303E+03 E0= -.41313246E+03  EK= 0.28459E+00 SP= 0.00E+00 SK= 0.00E+00
       N       E                     dE             d eps       ncg     rms          rms(c)
RMM:   1    -0.413147516288E+03    0.55107E-02   -0.85623E+00  4264   0.932E-01    0.785E-01
RMM:   2    -0.413154638662E+03   -0.71224E-02   -0.99949E-02  4398   0.103E-01    0.576E-01
RMM:   3    -0.413153084694E+03    0.15540E-02   -0.78643E-03  5053   0.469E-02    0.114E-01
RMM:   4    -0.413178320748E+03   -0.25236E-01   -0.26661E-02  5146   0.137E-01    0.664E-01
RMM:   5    -0.413152716648E+03    0.25604E-01   -0.12583E-02  4821   0.111E-01    0.445E-02
RMM:   6    -0.413152723842E+03   -0.71944E-05   -0.20609E-03  5761   0.437E-02    0.224E-02
RMM:   7    -0.413152750836E+03   -0.26994E-04   -0.28656E-04  5929   0.148E-02    0.148E-02
RMM:   8    -0.413152764725E+03   -0.13889E-04   -0.55809E-05  5125   0.754E-03    0.705E-03
RMM:   9    -0.413152772537E+03   -0.78122E-05   -0.85550E-06  3237   0.337E-03    0.356E-03
RMM:  10    -0.413152779606E+03   -0.70695E-05   -0.17817E-06  2563   0.194E-03    0.232E-03
RMM:  11    -0.413152790344E+03   -0.10738E-04   -0.12961E-06  2520   0.166E-03    0.128E-03
RMM:  12    -0.413152797595E+03   -0.72508E-05   -0.76726E-07  2380   0.127E-03    0.460E-04
RMM:  13    -0.413152800948E+03   -0.33529E-05   -0.37010E-07  1911   0.934E-04    0.300E-04
RMM:  14    -0.413152803847E+03   -0.28997E-05   -0.24669E-07  1519   0.802E-04    0.212E-04
RMM:  15    -0.413152809097E+03   -0.52499E-05   -0.44808E-07  1952   0.912E-04    0.177E-04
RMM:  16    -0.413152809950E+03   -0.85296E-06   -0.12815E-07  1238   0.625E-04
  149 T=    58. E= -.41286837E+03 F= -.41315281E+03 E0= -.41313225E+03  EK= 0.28444E+00 SP= 0.00E+00 SK= 0.00E+00
       N       E                     dE             d eps       ncg     rms          rms(c)
RMM:   1    -0.413148575604E+03    0.42335E-02   -0.82991E+00  4264   0.923E-01    0.805E-01
RMM:   2    -0.413154176200E+03   -0.56006E-02   -0.95831E-02  4403   0.101E-01    0.572E-01
RMM:   3    -0.413152670724E+03    0.15055E-02   -0.87430E-03  5063   0.445E-02    0.110E-01
RMM:   4    -0.413173782189E+03   -0.21111E-01   -0.22119E-02  5148   0.125E-01    0.609E-01
RMM:   5    -0.413152403300E+03    0.21379E-01   -0.10590E-02  4822   0.102E-01    0.447E-02
RMM:   6    -0.413152410238E+03   -0.69384E-05   -0.17804E-03  5748   0.410E-02    0.259E-02
RMM:   7    -0.413152428573E+03   -0.18335E-04   -0.28076E-04  5870   0.150E-02    0.157E-02
RMM:   8    -0.413152434728E+03   -0.61550E-05   -0.57056E-05  5122   0.793E-03    0.723E-03
RMM:   9    -0.413152437123E+03   -0.23949E-05   -0.75001E-06  3172   0.324E-03    0.389E-03
RMM:  10    -0.413152440934E+03   -0.38106E-05   -0.15111E-06  2548   0.189E-03    0.249E-03
RMM:  11    -0.413152446302E+03   -0.53679E-05   -0.12305E-06  2515   0.163E-03    0.134E-03
RMM:  12    -0.413152449907E+03   -0.36051E-05   -0.77250E-07  2383   0.128E-03    0.476E-04
RMM:  13    -0.413152451598E+03   -0.16911E-05   -0.37641E-07  1972   0.952E-04    0.303E-04
RMM:  14    -0.413152452938E+03   -0.13399E-05   -0.23170E-07  1513   0.795E-04    0.217E-04
RMM:  15    -0.413152455098E+03   -0.21598E-05   -0.32892E-07  1780   0.844E-04    0.151E-04
RMM:  16    -0.413152455968E+03   -0.87026E-06   -0.14570E-07  1358   0.659E-04
  150 T=    58. E= -.41286872E+03 F= -.41315246E+03 E0= -.41313190E+03  EK= 0.28374E+00 SP= 0.00E+00 SK= 0.00E+00
