       N       E                     dE             d eps       ncg     rms          rms(c)
RMM:   1     0.220145423561E+04    0.22015E+04   -0.52441E+04  2132   0.654E+02
RMM:   2     0.705726144735E+03   -0.14957E+04   -0.16261E+04  2132   0.177E+02
RMM:   3     0.137841799313E+03   -0.56788E+03   -0.65689E+03  2132   0.117E+02
RMM:   4    -0.159435813523E+03   -0.29728E+03   -0.27862E+03  2132   0.936E+01
RMM:   5    -0.287468322222E+03   -0.12803E+03   -0.11438E+03  2132   0.595E+01
RMM:   6    -0.349957793207E+03   -0.62489E+02   -0.55151E+02  2132   0.423E+01
RMM:   7    -0.382823835803E+03   -0.32866E+02   -0.30371E+02  2132   0.293E+01
RMM:   8    -0.404275587032E+03   -0.21452E+02   -0.18423E+02  2132   0.233E+01
RMM:   9    -0.436089408344E+03   -0.31814E+02   -0.30690E+02  6114   0.173E+01
RMM:  10    -0.441329865824E+03   -0.52405E+01   -0.62574E+01  6399   0.537E+00
RMM:  11    -0.442529374477E+03   -0.11995E+01   -0.10992E+01  6208   0.172E+00
RMM:  12    -0.442898309196E+03   -0.36893E+00   -0.26894E+00  6363   0.597E-01    0.134E+02
RMM:  13    -0.425586291423E+03    0.17312E+02   -0.80715E+01  4672   0.119E+01    0.712E+01
RMM:  14    -0.499042959649E+03   -0.73457E+02   -0.53732E+02  5418   0.232E+01    0.306E+01
RMM:  15    -0.416199338119E+03    0.82844E+02   -0.19936E+02  5094   0.163E+01    0.716E+00
RMM:  16    -0.414037295749E+03    0.21620E+01   -0.39782E+01  6094   0.612E+00    0.429E+00
RMM:  17    -0.413209384071E+03    0.82791E+00   -0.25073E+00  5389   0.188E+00    0.243E+00
RMM:  18    -0.413171307887E+03    0.38076E-01   -0.79206E-01  5978   0.912E-01    0.166E+00
RMM:  19    -0.413170185582E+03    0.11223E-02   -0.25469E-01  5701   0.542E-01    0.885E-01
RMM:  20    -0.413191026528E+03   -0.20841E-01   -0.29697E-01  5570   0.563E-01    0.648E-01
RMM:  21    -0.413168399911E+03    0.22627E-01   -0.35422E-02  4970   0.242E-01    0.304E-01
RMM:  22    -0.413164875457E+03    0.35245E-02   -0.24485E-02  5884   0.147E-01    0.133E-01
RMM:  23    -0.413164067412E+03    0.80805E-03   -0.61004E-03  6080   0.689E-02    0.835E-02
RMM:  24    -0.413163014876E+03    0.10525E-02   -0.16751E-03  5258   0.413E-02    0.512E-02
RMM:  25    -0.413162500707E+03    0.51417E-03   -0.81070E-04  5086   0.277E-02    0.374E-02
RMM:  26    -0.413162649106E+03   -0.14840E-03   -0.98886E-04  5777   0.322E-02    0.332E-02
RMM:  27    -0.413163081993E+03   -0.43289E-03   -0.18588E-04  4558   0.197E-02    0.191E-02
RMM:  28    -0.413163532252E+03   -0.45026E-03   -0.15840E-04  5099   0.178E-02    0.859E-03
RMM:  29    -0.413163923342E+03   -0.39109E-03   -0.10621E-04  4564   0.152E-02    0.442E-03
RMM:  30    -0.413164158054E+03   -0.23471E-03   -0.74911E-05  4264   0.102E-02    0.391E-03
RMM:  31    -0.413164294830E+03   -0.13678E-03   -0.54381E-05  3199   0.719E-03    0.306E-03
RMM:  32    -0.413164321945E+03   -0.27115E-04   -0.20617E-05  2984   0.306E-03    0.193E-03
RMM:  33    -0.413164336449E+03   -0.14503E-04   -0.88690E-06  2834   0.234E-03    0.587E-04
RMM:  34    -0.413164338645E+03   -0.21965E-05   -0.47520E-06  2580   0.148E-03    0.545E-04
RMM:  35    -0.413164339364E+03   -0.71873E-06   -0.21833E-06  2359   0.124E-03
    1 T=    61. E= -.41286652E+03 F= -.41316434E+03 E0= -.41314184E+03  EK= 0.29782E+00 SP= 0.00E+00 SK= 0.00E+00
       N       E                     dE             d eps       ncg     rms          rms(c)
RMM:   1    -0.413156386157E+03    0.79525E-02   -0.10682E+01  3995   0.683E-01    0.886E-01
RMM:   2    -0.413166194704E+03   -0.98085E-02   -0.13127E-01  3856   0.966E-02    0.643E-01
RMM:   3    -0.413164223014E+03    0.19717E-02   -0.79047E-03  4792   0.387E-02    0.140E-01
RMM:   4    -0.413186821292E+03   -0.22598E-01   -0.23711E-02  5215   0.128E-01    0.627E-01
RMM:   5    -0.413163843056E+03    0.22978E-01   -0.11380E-02  4846   0.106E-01    0.376E-02
RMM:   6    -0.413163996237E+03   -0.15318E-03   -0.18788E-03  5806   0.420E-02    0.232E-02
RMM:   7    -0.413164010021E+03   -0.13784E-04   -0.27495E-04  5868   0.144E-02    0.151E-02
RMM:   8    -0.413164014783E+03   -0.47615E-05   -0.40045E-05  4808   0.634E-03    0.677E-03
RMM:   9    -0.413164018947E+03   -0.41640E-05   -0.89633E-06  3374   0.323E-03    0.506E-03
RMM:  10    -0.413164023959E+03   -0.50116E-05   -0.16661E-06  2577   0.182E-03    0.334E-03
RMM:  11    -0.413164031288E+03   -0.73294E-05   -0.14821E-06  2540   0.172E-03    0.148E-03
RMM:  12    -0.413164037505E+03   -0.62176E-05   -0.11303E-06  2455   0.145E-03    0.642E-04
RMM:  13    -0.413164038011E+03   -0.50525E-06   -0.40976E-07  1968   0.928E-04
    2 T=    61. E= -.41286619E+03 F= -.41316404E+03 E0= -.41314154E+03  EK= 0.29785E+00 SP= 0.00E+00 SK= 0.00E+00
       N       E                     dE             d eps       ncg     rms          rms(c)
RMM:   1    -0.413157486143E+03    0.65514E-02   -0.10713E+01  4184   0.685E-01    0.909E-01
RMM:   2    -0.413166278048E+03   -0.87919E-02   -0.12897E-01  3896   0.948E-02    0.636E-01
RMM:   3    -0.413164736987E+03    0.15411E-02   -0.80878E-03  4797   0.371E-02    0.149E-01
RMM:   4    -0.413187370597E+03   -0.22634E-01   -0.23051E-02  5185   0.127E-01    0.629E-01
RMM:   5    -0.413164437506E+03    0.22933E-01   -0.11228E-02  4841   0.105E-01    0.382E-02
RMM:   6    -0.413164583593E+03   -0.14609E-03   -0.18145E-03  5826   0.417E-02    0.240E-02
RMM:   7    -0.413164588563E+03   -0.49705E-05   -0.26169E-04  5821   0.147E-02    0.154E-02
RMM:   8    -0.413164586786E+03    0.17770E-05   -0.43422E-05  4890   0.674E-03    0.735E-03
RMM:   9    -0.413164585918E+03    0.86842E-06   -0.87546E-06  3461   0.338E-03
    3 T=    61. E= -.41286642E+03 F= -.41316459E+03 E0= -.41314209E+03  EK= 0.29817E+00 SP= 0.00E+00 SK= 0.00E+00
       N       E                     dE             d eps       ncg     rms          rms(c)
RMM:   1    -0.413156879057E+03    0.77077E-02   -0.10629E+01  4222   0.686E-01    0.893E-01
RMM:   2    -0.413166212526E+03   -0.93335E-02   -0.12817E-01  4295   0.973E-02    0.631E-01
RMM:   3    -0.413171394669E+03   -0.51821E-02   -0.13495E-02  5187   0.844E-02    0.381E-01
RMM:   4    -0.413183618465E+03   -0.12224E-01   -0.35111E-02  5099   0.161E-01    0.580E-01
RMM:   5    -0.413164389228E+03    0.19229E-01   -0.71204E-03  4675   0.968E-02    0.553E-02
RMM:   6    -0.413164338543E+03    0.50685E-04   -0.12972E-03  5371   0.368E-02    0.237E-02
RMM:   7    -0.413164354778E+03   -0.16235E-04   -0.25409E-04  5998   0.154E-02    0.152E-02
RMM:   8    -0.413164354842E+03   -0.63286E-07   -0.46742E-05  5252   0.751E-03    0.673E-03
RMM:   9    -0.413164354397E+03    0.44434E-06   -0.99741E-06  3748   0.393E-03
    4 T=    61. E= -.41286616E+03 F= -.41316435E+03 E0= -.41314187E+03  EK= 0.29820E+00 SP= 0.00E+00 SK= 0.00E+00
       N       E                     dE             d eps       ncg     rms          rms(c)
RMM:   1    -0.413156867942E+03    0.74869E-02   -0.10674E+01  4233   0.697E-01    0.883E-01
RMM:   2    -0.413166680283E+03   -0.98123E-02   -0.13135E-01  4126   0.956E-02    0.642E-01
RMM:   3    -0.413164989273E+03    0.16910E-02   -0.80363E-03  4983   0.419E-02    0.157E-01
RMM:   4    -0.413201881055E+03   -0.36892E-01   -0.38495E-02  5155   0.164E-01    0.799E-01
RMM:   5    -0.413164293028E+03    0.37588E-01   -0.18110E-02  4818   0.134E-01    0.434E-02
RMM:   6    -0.413164514447E+03   -0.22142E-03   -0.29238E-03  5845   0.529E-02    0.246E-02
RMM:   7    -0.413164531785E+03   -0.17339E-04   -0.37202E-04  5965   0.168E-02    0.171E-02
RMM:   8    -0.413164536182E+03   -0.43968E-05   -0.61229E-05  5045   0.755E-03    0.913E-03
RMM:   9    -0.413164539048E+03   -0.28665E-05   -0.13098E-05  3864   0.399E-03    0.626E-03
RMM:  10    -0.413164544038E+03   -0.49892E-05   -0.22886E-06  2605   0.215E-03    0.400E-03
RMM:  11    -0.413164550847E+03   -0.68091E-05   -0.21499E-06  2610   0.213E-03    0.185E-03
RMM:  12    -0.413164556051E+03   -0.52047E-05   -0.13058E-06  2525   0.171E-03    0.661E-04
RMM:  13    -0.413164556747E+03   -0.69590E-06   -0.40340E-07  2171   0.106E-03
    5 T=    61. E= -.41286627E+03 F= -.41316456E+03 E0= -.41314208E+03  EK= 0.29829E+00 SP= 0.00E+00 SK= 0.00E+00
       N       E                     dE             d eps       ncg     rms          rms(c)
RMM:   1    -0.413157764594E+03    0.67915E-02   -0.10711E+01  4250   0.698E-01    0.904E-01
RMM:   2    -0.413166822104E+03   -0.90575E-02   -0.12912E-01  4017   0.954E-02    0.638E-01
RMM:   3    -0.413165248787E+03    0.15733E-02   -0.80162E-03  4806   0.386E-02    0.149E-01
RMM:   4    -0.413189793927E+03   -0.24545E-01   -0.25014E-02  5159   0.132E-01    0.655E-01
RMM:   5    -0.413164853125E+03    0.24941E-01   -0.12202E-02  4828   0.109E-01    0.389E-02
RMM:   6    -0.413165011790E+03   -0.15866E-03   -0.20004E-03  5788   0.431E-02    0.241E-02
RMM:   7    -0.413165016402E+03   -0.46120E-05   -0.27671E-04  5812   0.148E-02    0.157E-02
RMM:   8    -0.413165014245E+03    0.21571E-05   -0.45671E-05  4898   0.687E-03    0.771E-03
RMM:   9    -0.413165012988E+03    0.12570E-05   -0.93363E-06  3514   0.351E-03    0.572E-03
RMM:  10    -0.413165013572E+03   -0.58362E-06   -0.14408E-06  2544   0.191E-03
    6 T=    61. E= -.41286655E+03 F= -.41316501E+03 E0= -.41314255E+03  EK= 0.29846E+00 SP= 0.00E+00 SK= 0.00E+00
       N       E                     dE             d eps       ncg     rms          rms(c)
RMM:   1    -0.413157541753E+03    0.74712E-02   -0.10653E+01  4257   0.702E-01    0.900E-01
RMM:   2    -0.413166377825E+03   -0.88361E-02   -0.12831E-01  4142   0.951E-02    0.631E-01
RMM:   3    -0.413166743811E+03   -0.36599E-03   -0.94120E-03  5110   0.557E-02    0.234E-01
RMM:   4    -0.413203236182E+03   -0.36492E-01   -0.45809E-02  5136   0.179E-01    0.811E-01
RMM:   5    -0.413164617424E+03    0.38619E-01   -0.17380E-02  4782   0.135E-01    0.538E-02
RMM:   6    -0.413164762456E+03   -0.14503E-03   -0.28396E-03  5656   0.529E-02    0.243E-02
RMM:   7    -0.413164781716E+03   -0.19260E-04   -0.38650E-04  6027   0.164E-02    0.163E-02
RMM:   8    -0.413164780970E+03    0.74612E-06   -0.59884E-05  5247   0.777E-03    0.775E-03
RMM:   9    -0.413164777686E+03    0.32844E-05   -0.10878E-05  3479   0.363E-03    0.377E-03
RMM:  10    -0.413164777504E+03    0.18152E-06   -0.25314E-06  2606   0.216E-03
    7 T=    61. E= -.41286626E+03 F= -.41316478E+03 E0= -.41314233E+03  EK= 0.29851E+00 SP= 0.00E+00 SK= 0.00E+00
       N       E                     dE             d eps       ncg     rms          rms(c)
RMM:   1    -0.413157726001E+03    0.70517E-02   -0.10654E+01  4264   0.707E-01    0.882E-01
RMM:   2    -0.413167390457E+03   -0.96645E-02   -0.13069E-01  4132   0.943E-02    0.639E-01
RMM:   3    -0.413167008238E+03    0.38222E-03   -0.89881E-03  5091   0.543E-02    0.216E-01
RMM:   4    -0.413209067423E+03   -0.42059E-01   -0.50270E-02  5141   0.187E-01    0.861E-01
RMM:   5    -0.413165120656E+03    0.43947E-01   -0.20170E-02  4801   0.144E-01    0.525E-02
RMM:   6    -0.413165312721E+03   -0.19206E-03   -0.32404E-03  5714   0.563E-02    0.236E-02
RMM:   7    -0.413165339729E+03   -0.27008E-04   -0.42801E-04  6022   0.172E-02    0.171E-02
RMM:   8    -0.413165344175E+03   -0.44462E-05   -0.66746E-05  5247   0.794E-03    0.863E-03
RMM:   9    -0.413165344982E+03   -0.80650E-06   -0.12550E-05  3658   0.385E-03    0.436E-03
RMM:  10    -0.413165348403E+03   -0.34213E-05   -0.27817E-06  2618   0.218E-03    0.294E-03
RMM:  11    -0.413165351960E+03   -0.35566E-05   -0.11784E-06  2523   0.164E-03    0.148E-03
RMM:  12    -0.413165355138E+03   -0.31784E-05   -0.91087E-07  2459   0.138E-03    0.354E-04
RMM:  13    -0.413165356376E+03   -0.12377E-05   -0.41483E-07  2027   0.100E-03    0.273E-04
RMM:  14    -0.413165356843E+03   -0.46744E-06   -0.22040E-07  1522   0.786E-04
    8 T=    61. E= -.41286646E+03 F= -.41316536E+03 E0= -.41314293E+03  EK= 0.29890E+00 SP= 0.00E+00 SK= 0.00E+00
       N       E                     dE             d eps       ncg     rms          rms(c)
RMM:   1    -0.413158078944E+03    0.72774E-02   -0.10713E+01  4281   0.712E-01    0.899E-01
RMM:   2    -0.413167476727E+03   -0.93978E-02   -0.13010E-01  4156   0.989E-02    0.641E-01
RMM:   3    -0.413165873628E+03    0.16031E-02   -0.81024E-03  4887   0.410E-02    0.153E-01
RMM:   4    -0.413197077317E+03   -0.31204E-01   -0.32189E-02  5149   0.149E-01    0.736E-01
RMM:   5    -0.413165310658E+03    0.31767E-01   -0.15499E-02  4811   0.123E-01    0.425E-02
RMM:   6    -0.413165507191E+03   -0.19653E-03   -0.25332E-03  5758   0.487E-02    0.251E-02
RMM:   7    -0.413165517126E+03   -0.99357E-05   -0.34141E-04  5864   0.159E-02    0.167E-02
RMM:   8    -0.413165515966E+03    0.11608E-05   -0.50846E-05  4996   0.710E-03    0.819E-03
RMM:   9    -0.413165514606E+03    0.13598E-05   -0.11114E-05  3645   0.368E-03    0.576E-03
RMM:  10    -0.413165515359E+03   -0.75348E-06   -0.17167E-06  2557   0.197E-03
    9 T=    61. E= -.41286630E+03 F= -.41316552E+03 E0= -.41314311E+03  EK= 0.29921E+00 SP= 0.00E+00 SK= 0.00E+00
       N       E                     dE             d eps       ncg     rms          rms(c)
RMM:   1    -0.413158502636E+03    0.70120E-02   -0.10697E+01  4294   0.716E-01    0.907E-01
RMM:   2    -0.413167190484E+03   -0.86878E-02   -0.12854E-01  4254   0.958E-02    0.633E-01
RMM:   3    -0.413168154790E+03   -0.96431E-03   -0.10046E-02  5091   0.622E-02    0.258E-01
RMM:   4    -0.413200110331E+03   -0.31956E-01   -0.43588E-02  5122   0.175E-01    0.770E-01
RMM:   5    -0.413165452959E+03    0.34657E-01   -0.15210E-02  4762   0.128E-01    0.535E-02
RMM:   6    -0.413165576089E+03   -0.12313E-03   -0.25415E-03  5643   0.500E-02    0.244E-02
RMM:   7    -0.413165593412E+03   -0.17323E-04   -0.35435E-04  6021   0.159E-02    0.161E-02
RMM:   8    -0.413165591337E+03    0.20750E-05   -0.56907E-05  5226   0.772E-03    0.753E-03
RMM:   9    -0.413165586611E+03    0.47261E-05   -0.98445E-06  3387   0.355E-03    0.352E-03
RMM:  10    -0.413165585339E+03    0.12716E-05   -0.22794E-06  2583   0.211E-03    0.243E-03
RMM:  11    -0.413165583562E+03    0.17776E-05   -0.11314E-06  2516   0.164E-03    0.126E-03
RMM:  12    -0.413165581732E+03    0.18293E-05   -0.66388E-07  2410   0.127E-03    0.389E-04
RMM:  13    -0.413165580883E+03    0.84940E-06   -0.32272E-07  1901   0.913E-04
   10 T=    61. E= -.41286609E+03 F= -.41316558E+03 E0= -.41314320E+03  EK= 0.29949E+00 SP= 0.00E+00 SK= 0.00E+00
       N       E                     dE             d eps       ncg     rms          rms(c)
RMM:   1    -0.413163906953E+03    0.16748E-02   -0.10698E+01  4287   0.753E-01    0.884E-01
RMM:   2    -0.413168272381E+03   -0.43654E-02   -0.13060E-01  4200   0.961E-02    0.637E-01
RMM:   3    -0.413166674810E+03    0.15976E-02   -0.78789E-03  4894   0.415E-02    0.152E-01
RMM:   4    -0.413197981488E+03   -0.31307E-01   -0.32383E-02  5148   0.149E-01    0.738E-01
RMM:   5    -0.413166082098E+03    0.31899E-01   -0.15646E-02  4808   0.123E-01    0.418E-02
RMM:   6    -0.413166273935E+03   -0.19184E-03   -0.24812E-03  5769   0.485E-02    0.247E-02
RMM:   7    -0.413166284471E+03   -0.10536E-04   -0.33338E-04  5841   0.159E-02    0.165E-02
RMM:   8    -0.413166284217E+03    0.25416E-06   -0.52746E-05  5006   0.720E-03    0.825E-03
RMM:   9    -0.413166283293E+03    0.92324E-06   -0.11501E-05  3698   0.376E-03    0.575E-03
RMM:  10    -0.413166284679E+03   -0.13853E-05   -0.18265E-06  2570   0.199E-03    0.374E-03
RMM:  11    -0.413166286653E+03   -0.19745E-05   -0.16995E-06  2561   0.196E-03    0.161E-03
RMM:  12    -0.413166287970E+03   -0.13171E-05   -0.10538E-06  2483   0.156E-03    0.633E-04
RMM:  13    -0.413166288084E+03   -0.11401E-06   -0.32646E-07  2060   0.975E-04
   11 T=    61. E= -.41286640E+03 F= -.41316629E+03 E0= -.41314393E+03  EK= 0.29989E+00 SP= 0.00E+00 SK= 0.00E+00
       N       E                     dE             d eps       ncg     rms          rms(c)
RMM:   1    -0.413158769649E+03    0.75183E-02   -0.10719E+01  4293   0.727E-01    0.894E-01
RMM:   2    -0.413168272453E+03   -0.95028E-02   -0.13130E-01  4220   0.970E-02    0.644E-01
RMM:   3    -0.413166529505E+03    0.17429E-02   -0.80430E-03  4833   0.403E-02    0.147E-01
RMM:   4    -0.413194141672E+03   -0.27612E-01   -0.28344E-02  5147   0.140E-01    0.693E-01
RMM:   5    -0.413166068630E+03    0.28073E-01   -0.13746E-02  4806   0.115E-01    0.399E-02
RMM:   6    -0.413166248101E+03   -0.17947E-03   -0.22659E-03  5809   0.455E-02    0.241E-02
RMM:   7    -0.413166258203E+03   -0.10103E-04   -0.29739E-04  5831   0.152E-02    0.160E-02
RMM:   8    -0.413166257701E+03    0.50208E-06   -0.50718E-05  4953   0.713E-03    0.821E-03
RMM:   9    -0.413166256328E+03    0.13732E-05   -0.10730E-05  3665   0.372E-03    0.590E-03
RMM:  10    -0.413166257416E+03   -0.10880E-05   -0.16469E-06  2556   0.196E-03    0.385E-03
RMM:  11    -0.413166259062E+03   -0.16458E-05   -0.18456E-06  2578   0.204E-03    0.167E-03
RMM:  12    -0.413166259968E+03   -0.90608E-06   -0.10164E-06  2482   0.156E-03
   12 T=    61. E= -.41286624E+03 F= -.41316626E+03 E0= -.41314393E+03  EK= 0.30002E+00 SP= 0.00E+00 SK= 0.00E+00
       N       E                     dE             d eps       ncg     rms          rms(c)
RMM:   1    -0.413159856606E+03    0.64025E-02   -0.10724E+01  4295   0.729E-01    0.912E-01
RMM:   2    -0.413168431196E+03   -0.85746E-02   -0.12868E-01  4221   0.929E-02    0.635E-01
RMM:   3    -0.413167140189E+03    0.12910E-02   -0.82113E-03  4860   0.380E-02    0.154E-01
RMM:   4    -0.413193758442E+03   -0.26618E-01   -0.27281E-02  5142   0.137E-01    0.681E-01
RMM:   5    -0.413166707513E+03    0.27051E-01   -0.13282E-02  4811   0.113E-01    0.407E-02
RMM:   6    -0.413166873397E+03   -0.16588E-03   -0.21926E-03  5807   0.446E-02    0.249E-02
RMM:   7    -0.413166876162E+03   -0.27657E-05   -0.28189E-04  5829   0.152E-02    0.159E-02
RMM:   8    -0.413166870422E+03    0.57405E-05   -0.53392E-05  4967   0.730E-03    0.852E-03
RMM:   9    -0.413166865091E+03    0.53306E-05   -0.11012E-05  3759   0.381E-03    0.624E-03
RMM:  10    -0.413166862367E+03    0.27239E-05   -0.16034E-06  2554   0.199E-03    0.404E-03
RMM:  11    -0.413166858545E+03    0.38220E-05   -0.17524E-06  2562   0.204E-03    0.184E-03
RMM:  12    -0.413166854906E+03    0.36395E-05   -0.10404E-06  2481   0.161E-03    0.653E-04
RMM:  13    -0.413166854488E+03    0.41809E-06   -0.33426E-07  2095   0.991E-04
   13 T=    61. E= -.41286644E+03 F= -.41316685E+03 E0= -.41314455E+03  EK= 0.30042E+00 SP= 0.00E+00 SK= 0.00E+00
       N       E                     dE             d eps       ncg     rms          rms(c)
RMM:   1    -0.413160020255E+03    0.68347E-02   -0.10641E+01  4296   0.730E-01    0.887E-01
RMM:   2    -0.413169429414E+03   -0.94092E-02   -0.12969E-01  4224   0.948E-02    0.635E-01
RMM:   3    -0.413167806712E+03    0.16227E-02   -0.78685E-03  4822   0.394E-02    0.149E-01
RMM:   4    -0.413194472649E+03   -0.26666E-01   -0.27380E-02  5140   0.137E-01    0.681E-01
RMM:   5    -0.413167373258E+03    0.27099E-01   -0.13313E-02  4811   0.113E-01    0.396E-02
RMM:   6    -0.413167539742E+03   -0.16648E-03   -0.21805E-03  5807   0.444E-02    0.241E-02
RMM:   7    -0.413167545532E+03   -0.57902E-05   -0.28420E-04  5813   0.151E-02    0.158E-02
RMM:   8    -0.413167542338E+03    0.31945E-05   -0.50898E-05  4945   0.716E-03    0.817E-03
RMM:   9    -0.413167539346E+03    0.29923E-05   -0.10658E-05  3683   0.374E-03    0.594E-03
RMM:  10    -0.413167538924E+03    0.42151E-06   -0.15814E-06  2546   0.195E-03
   14 T=    61. E= -.41286661E+03 F= -.41316754E+03 E0= -.41314527E+03  EK= 0.30092E+00 SP= 0.00E+00 SK= 0.00E+00
       N       E                     dE             d eps       ncg     rms          rms(c)
RMM:   1    -0.413160252476E+03    0.72869E-02   -0.10729E+01  4301   0.745E-01    0.891E-01
RMM:   2    -0.413169850531E+03   -0.95981E-02   -0.13188E-01  4276   0.981E-02    0.646E-01
RMM:   3    -0.413169833430E+03    0.17101E-04   -0.96673E-03  5087   0.589E-02    0.241E-01
RMM:   4    -0.413209105915E+03   -0.39272E-01   -0.50242E-02  5123   0.187E-01    0.840E-01
RMM:   5    -0.413167375505E+03    0.41730E-01   -0.18785E-02  4771   0.140E-01    0.537E-02
RMM:   6    -0.413167531157E+03   -0.15565E-03   -0.30200E-03  5666   0.543E-02    0.234E-02
RMM:   7    -0.413167553908E+03   -0.22751E-04   -0.40366E-04  5998   0.168E-02    0.164E-02
RMM:   8    -0.413167555881E+03   -0.19725E-05   -0.62512E-05  5226   0.783E-03    0.796E-03
RMM:   9    -0.413167554320E+03    0.15612E-05   -0.12042E-05  3562   0.376E-03    0.377E-03
RMM:  10    -0.413167555643E+03   -0.13239E-05   -0.27079E-06  2615   0.217E-03    0.261E-03
RMM:  11    -0.413167556757E+03   -0.11133E-05   -0.11190E-06  2508   0.162E-03    0.132E-03
RMM:  12    -0.413167557435E+03   -0.67790E-06   -0.74666E-07  2416   0.129E-03
   15 T=    61. E= -.41286625E+03 F= -.41316756E+03 E0= -.41314532E+03  EK= 0.30130E+00 SP= 0.00E+00 SK= 0.00E+00
       N       E                     dE             d eps       ncg     rms          rms(c)
RMM:   1    -0.413161582942E+03    0.59738E-02   -0.10754E+01  4299   0.740E-01    0.913E-01
RMM:   2    -0.413170256285E+03   -0.86733E-02   -0.12950E-01  4248   0.977E-02    0.639E-01
RMM:   3    -0.413168989580E+03    0.12667E-02   -0.84354E-03  4918   0.420E-02    0.163E-01
RMM:   4    -0.413203843220E+03   -0.34854E-01   -0.36340E-02  5143   0.158E-01    0.777E-01
RMM:   5    -0.413168324431E+03    0.35519E-01   -0.17304E-02  4800   0.130E-01    0.451E-02
RMM:   6    -0.413168533132E+03   -0.20870E-03   -0.28828E-03  5784   0.514E-02    0.268E-02
RMM:   7    -0.413168536833E+03   -0.37004E-05   -0.37391E-04  5854   0.169E-02    0.179E-02
RMM:   8    -0.413168529802E+03    0.70306E-05   -0.60963E-05  5053   0.774E-03    0.936E-03
RMM:   9    -0.413168523198E+03    0.66039E-05   -0.12889E-05  3848   0.400E-03    0.645E-03
RMM:  10    -0.413168519436E+03    0.37622E-05   -0.20605E-06  2580   0.211E-03    0.415E-03
RMM:  11    -0.413168515013E+03    0.44235E-05   -0.16924E-06  2548   0.201E-03    0.190E-03
RMM:  12    -0.413168510381E+03    0.46321E-05   -0.11947E-06  2503   0.172E-03    0.678E-04
RMM:  13    -0.413168509724E+03    0.65701E-06   -0.38055E-07  2197   0.108E-03
   16 T=    61. E= -.41286643E+03 F= -.41316851E+03 E0= -.41314631E+03  EK= 0.30208E+00 SP= 0.00E+00 SK= 0.00E+00
       N       E                     dE             d eps       ncg     rms          rms(c)
RMM:   1    -0.413161554763E+03    0.69556E-02   -0.10675E+01  4299   0.741E-01    0.894E-01
RMM:   2    -0.413170891433E+03   -0.93367E-02   -0.12997E-01  4249   0.971E-02    0.635E-01
RMM:   3    -0.413169291431E+03    0.16000E-02   -0.80063E-03  4877   0.409E-02    0.156E-01
RMM:   4    -0.413200401523E+03   -0.31110E-01   -0.32177E-02  5139   0.149E-01    0.735E-01
RMM:   5    -0.413168763603E+03    0.31638E-01   -0.15528E-02  4805   0.123E-01    0.423E-02
RMM:   6    -0.413168950217E+03   -0.18661E-03   -0.25576E-03  5800   0.484E-02    0.254E-02
RMM:   7    -0.413168955289E+03   -0.50722E-05   -0.32608E-04  5832   0.160E-02    0.168E-02
RMM:   8    -0.413168950237E+03    0.50526E-05   -0.57347E-05  5012   0.751E-03    0.887E-03
RMM:   9    -0.413168945095E+03    0.51414E-05   -0.12225E-05  3822   0.394E-03    0.628E-03
RMM:  10    -0.413168942711E+03    0.23843E-05   -0.18240E-06  2560   0.205E-03    0.407E-03
RMM:  11    -0.413168939416E+03    0.32951E-05   -0.18812E-06  2571   0.210E-03    0.181E-03
RMM:  12    -0.413168936342E+03    0.30738E-05   -0.10743E-06  2490   0.165E-03    0.660E-04
RMM:  13    -0.413168935985E+03    0.35764E-06   -0.34268E-07  2132   0.101E-03
   17 T=    62. E= -.41286622E+03 F= -.41316894E+03 E0= -.41314678E+03  EK= 0.30272E+00 SP= 0.00E+00 SK= 0.00E+00
       N       E                     dE             d eps       ncg     rms          rms(c)
RMM:   1    -0.413161917300E+03    0.70190E-02   -0.10749E+01  4298   0.754E-01    0.889E-01
RMM:   2    -0.413171807689E+03   -0.98904E-02   -0.13263E-01  4260   0.994E-02    0.647E-01
RMM:   3    -0.413169892043E+03    0.19156E-02   -0.81144E-03  4868   0.418E-02    0.150E-01
RMM:   4    -0.413201450919E+03   -0.31559E-01   -0.32802E-02  5146   0.150E-01    0.740E-01
RMM:   5    -0.413169297885E+03    0.32153E-01   -0.15733E-02  4796   0.124E-01    0.421E-02
RMM:   6    -0.413169489883E+03   -0.19200E-03   -0.26165E-03  5793   0.489E-02    0.247E-02
RMM:   7    -0.413169498676E+03   -0.87926E-05   -0.32815E-04  5827   0.159E-02    0.166E-02
RMM:   8    -0.413169496877E+03    0.17983E-05   -0.57233E-05  5027   0.749E-03    0.879E-03
RMM:   9    -0.413169493989E+03    0.28879E-05   -0.12379E-05  3836   0.397E-03    0.611E-03
RMM:  10    -0.413169494133E+03   -0.14339E-06   -0.19194E-06  2570   0.205E-03
   18 T=    62. E= -.41286615E+03 F= -.41316949E+03 E0= -.41314738E+03  EK= 0.30334E+00 SP= 0.00E+00 SK= 0.00E+00
       N       E                     dE             d eps       ncg     rms          rms(c)
RMM:   1    -0.413163635442E+03    0.58585E-02   -0.10790E+01  4305   0.751E-01    0.912E-01
RMM:   2    -0.413172532632E+03   -0.88972E-02   -0.13088E-01  4297   0.983E-02    0.643E-01
RMM:   3    -0.413173786345E+03   -0.12537E-02   -0.10530E-02  5100   0.651E-02    0.272E-01
RMM:   4    -0.413205058526E+03   -0.31272E-01   -0.44859E-02  5102   0.177E-01    0.767E-01
RMM:   5    -0.413170599832E+03    0.34459E-01   -0.14964E-02  4738   0.127E-01    0.531E-02
RMM:   6    -0.413170709463E+03   -0.10963E-03   -0.25165E-03  5631   0.496E-02    0.247E-02
RMM:   7    -0.413170719817E+03   -0.10355E-04   -0.34873E-04  6003   0.159E-02    0.164E-02
RMM:   8    -0.413170715145E+03    0.46727E-05   -0.57365E-05  5198   0.778E-03    0.762E-03
RMM:   9    -0.413170708080E+03    0.70649E-05   -0.10356E-05  3429   0.365E-03    0.351E-03
RMM:  10    -0.413170705393E+03    0.26865E-05   -0.22792E-06  2578   0.212E-03    0.242E-03
RMM:  11    -0.413170701513E+03    0.38800E-05   -0.10797E-06  2510   0.164E-03    0.127E-03
RMM:  12    -0.413170697921E+03    0.35923E-05   -0.60910E-07  2391   0.126E-03    0.384E-04
RMM:  13    -0.413170696184E+03    0.17375E-05   -0.29713E-07  1890   0.904E-04    0.228E-04
RMM:  14    -0.413170694435E+03    0.17488E-05   -0.18444E-07  1429   0.760E-04    0.144E-04
RMM:  15    -0.413170691850E+03    0.25845E-05   -0.16835E-07  1429   0.734E-04    0.852E-05
RMM:  16    -0.413170690151E+03    0.16999E-05   -0.11189E-07  1306   0.668E-04    0.796E-05
RMM:  17    -0.413170687455E+03    0.26956E-05   -0.11640E-07  1377   0.658E-04    0.416E-05
RMM:  18    -0.413170686171E+03    0.12837E-05   -0.60689E-08  1000   0.568E-04    0.270E-05
RMM:  19    -0.413170685763E+03    0.40872E-06   -0.29344E-08   808   0.532E-04
   19 T=    62. E= -.41286654E+03 F= -.41317069E+03 E0= -.41314861E+03  EK= 0.30414E+00 SP= 0.00E+00 SK= 0.00E+00
       N       E                     dE             d eps       ncg     rms          rms(c)
RMM:   1    -0.413163909847E+03    0.67763E-02   -0.10728E+01  4297   0.753E-01    0.903E-01
RMM:   2    -0.413172837468E+03   -0.89276E-02   -0.13002E-01  4257   0.984E-02    0.636E-01
RMM:   3    -0.413171597297E+03    0.12402E-02   -0.82922E-03  4934   0.432E-02    0.168E-01
RMM:   4    -0.413209169686E+03   -0.37572E-01   -0.39727E-02  5145   0.165E-01    0.806E-01
RMM:   5    -0.413170839782E+03    0.38330E-01   -0.18700E-02  4795   0.135E-01    0.467E-02
RMM:   6    -0.413171048690E+03   -0.20891E-03   -0.31056E-03  5757   0.536E-02    0.272E-02
RMM:   7    -0.413171054074E+03   -0.53841E-05   -0.40346E-04  5835   0.173E-02    0.183E-02
RMM:   8    -0.413171047266E+03    0.68079E-05   -0.64528E-05  5109   0.793E-03    0.950E-03
RMM:   9    -0.413171040317E+03    0.69493E-05   -0.13930E-05  3947   0.411E-03    0.636E-03
RMM:  10    -0.413171036529E+03    0.37877E-05   -0.21827E-06  2588   0.214E-03    0.412E-03
RMM:  11    -0.413171032362E+03    0.41671E-05   -0.15326E-06  2525   0.194E-03    0.192E-03
RMM:  12    -0.413171028005E+03    0.43574E-05   -0.11466E-06  2502   0.170E-03    0.622E-04
RMM:  13    -0.413171027215E+03    0.78965E-06   -0.38348E-07  2219   0.109E-03
   20 T=    62. E= -.41286631E+03 F= -.41317103E+03 E0= -.41314899E+03  EK= 0.30471E+00 SP= 0.00E+00 SK= 0.00E+00
       N       E                     dE             d eps       ncg     rms          rms(c)
RMM:   1    -0.413166942950E+03    0.40851E-02   -0.10786E+01  4300   0.794E-01    0.888E-01
RMM:   2    -0.413174427031E+03   -0.74841E-02   -0.13926E-01  4266   0.103E-01    0.647E-01
RMM:   3    -0.413172444642E+03    0.19824E-02   -0.80036E-03  4863   0.418E-02    0.156E-01
RMM:   4    -0.413203507402E+03   -0.31063E-01   -0.32175E-02  5139   0.149E-01    0.734E-01
RMM:   5    -0.413171924501E+03    0.31583E-01   -0.15636E-02  4807   0.123E-01    0.417E-02
RMM:   6    -0.413172102508E+03   -0.17801E-03   -0.25386E-03  5804   0.485E-02    0.247E-02
RMM:   7    -0.413172111565E+03   -0.90567E-05   -0.32241E-04  5843   0.158E-02    0.162E-02
RMM:   8    -0.413172109077E+03    0.24882E-05   -0.59869E-05  5016   0.764E-03    0.891E-03
RMM:   9    -0.413172104901E+03    0.41759E-05   -0.12908E-05  3924   0.406E-03    0.622E-03
RMM:  10    -0.413172103974E+03    0.92727E-06   -0.19164E-06  2567   0.207E-03
   21 T=    62. E= -.41286651E+03 F= -.41317210E+03 E0= -.41315012E+03  EK= 0.30560E+00 SP= 0.00E+00 SK= 0.00E+00
       N       E                     dE             d eps       ncg     rms          rms(c)
RMM:   1    -0.413166047957E+03    0.60569E-02   -0.10826E+01  4302   0.764E-01    0.909E-01
RMM:   2    -0.413175215294E+03   -0.91673E-02   -0.13230E-01  4311   0.984E-02    0.647E-01
RMM:   3    -0.413176303698E+03   -0.10884E-02   -0.10643E-02  5078   0.661E-02    0.274E-01
RMM:   4    -0.413208631301E+03   -0.32328E-01   -0.46327E-02  5103   0.180E-01    0.778E-01
RMM:   5    -0.413173043618E+03    0.35588E-01   -0.15489E-02  4737   0.129E-01    0.533E-02
RMM:   6    -0.413173153307E+03   -0.10969E-03   -0.26084E-03  5639   0.508E-02    0.246E-02
RMM:   7    -0.413173165654E+03   -0.12347E-04   -0.36008E-04  5998   0.162E-02    0.166E-02
RMM:   8    -0.413173160912E+03    0.47415E-05   -0.59371E-05  5201   0.789E-03    0.779E-03
RMM:   9    -0.413173153748E+03    0.71640E-05   -0.10903E-05  3503   0.372E-03    0.357E-03
RMM:  10    -0.413173151161E+03    0.25874E-05   -0.23098E-06  2582   0.212E-03    0.246E-03
RMM:  11    -0.413173147294E+03    0.38669E-05   -0.10753E-06  2509   0.163E-03    0.128E-03
RMM:  12    -0.413173143701E+03    0.35936E-05   -0.60483E-07  2381   0.126E-03    0.379E-04
RMM:  13    -0.413173141914E+03    0.17861E-05   -0.29451E-07  1889   0.905E-04    0.226E-04
RMM:  14    -0.413173140233E+03    0.16811E-05   -0.17929E-07  1423   0.755E-04    0.145E-04
RMM:  15    -0.413173137460E+03    0.27732E-05   -0.15957E-07  1375   0.728E-04    0.826E-05
RMM:  16    -0.413173135717E+03    0.17434E-05   -0.10938E-07  1294   0.667E-04    0.771E-05
RMM:  17    -0.413173133141E+03    0.25759E-05   -0.10262E-07  1294   0.651E-04    0.421E-05
RMM:  18    -0.413173131602E+03    0.15389E-05   -0.60294E-08  1048   0.584E-04    0.253E-05
RMM:  19    -0.413173131078E+03    0.52375E-06   -0.29455E-08   813   0.539E-04
   22 T=    62. E= -.41286652E+03 F= -.41317313E+03 E0= -.41315119E+03  EK= 0.30661E+00 SP= 0.00E+00 SK= 0.00E+00
       N       E                     dE             d eps       ncg     rms          rms(c)
RMM:   1    -0.413166900918E+03    0.62307E-02   -0.10807E+01  4296   0.772E-01    0.912E-01
RMM:   2    -0.413175875663E+03   -0.89747E-02   -0.13128E-01  4273   0.105E-01    0.640E-01
RMM:   3    -0.413174401961E+03    0.14737E-02   -0.85116E-03  4879   0.460E-02    0.166E-01
RMM:   4    -0.413210218876E+03   -0.35817E-01   -0.37490E-02  5141   0.160E-01    0.787E-01
RMM:   5    -0.413173717053E+03    0.36502E-01   -0.17926E-02  4790   0.132E-01    0.460E-02
RMM:   6    -0.413173919725E+03   -0.20267E-03   -0.30096E-03  5777   0.526E-02    0.276E-02
RMM:   7    -0.413173923657E+03   -0.39323E-05   -0.38401E-04  5806   0.172E-02    0.182E-02
RMM:   8    -0.413173915669E+03    0.79882E-05   -0.66581E-05  5107   0.809E-03    0.984E-03
RMM:   9    -0.413173907231E+03    0.84371E-05   -0.14090E-05  4021   0.420E-03    0.674E-03
RMM:  10    -0.413173902181E+03    0.50506E-05   -0.21598E-06  2589   0.215E-03    0.437E-03
RMM:  11    -0.413173896399E+03    0.57815E-05   -0.16858E-06  2535   0.203E-03    0.202E-03
RMM:  12    -0.413173890505E+03    0.58939E-05   -0.11392E-06  2485   0.174E-03    0.645E-04
RMM:  13    -0.413173889458E+03    0.10477E-05   -0.40136E-07  2227   0.112E-03    0.466E-04
RMM:  14    -0.413173889031E+03    0.42658E-06   -0.19051E-07  1723   0.791E-04
   23 T=    63. E= -.41286621E+03 F= -.41317389E+03 E0= -.41315199E+03  EK= 0.30767E+00 SP= 0.00E+00 SK= 0.00E+00
       N       E                     dE             d eps       ncg     rms          rms(c)
RMM:   1    -0.413167995069E+03    0.58944E-02   -0.10806E+01  4293   0.778E-01    0.892E-01
RMM:   2    -0.413177891609E+03   -0.98965E-02   -0.13384E-01  4273   0.103E-01    0.646E-01
RMM:   3    -0.413175624475E+03    0.22671E-02   -0.81312E-03  4750   0.432E-02    0.146E-01
RMM:   4    -0.413200673039E+03   -0.25049E-01   -0.25583E-02  5139   0.133E-01    0.660E-01
RMM:   5    -0.413175293431E+03    0.25380E-01   -0.12597E-02  4803   0.110E-01    0.393E-02
RMM:   6    -0.413175430053E+03   -0.13662E-03   -0.20535E-03  5806   0.433E-02    0.241E-02
RMM:   7    -0.413175434769E+03   -0.47158E-05   -0.26649E-04  5794   0.149E-02    0.151E-02
RMM:   8    -0.413175430519E+03    0.42498E-05   -0.53747E-05  4968   0.737E-03    0.835E-03
RMM:   9    -0.413175425459E+03    0.50604E-05   -0.11074E-05  3791   0.386E-03    0.597E-03
RMM:  10    -0.413175423561E+03    0.18975E-05   -0.15322E-06  2545   0.196E-03    0.393E-03
RMM:  11    -0.413175420607E+03    0.29539E-05   -0.18055E-06  2553   0.211E-03    0.171E-03
RMM:  12    -0.413175418225E+03    0.23823E-05   -0.89411E-07  2458   0.155E-03    0.669E-04
RMM:  13    -0.413175417901E+03    0.32410E-06   -0.30084E-07  2039   0.948E-04
   24 T=    63. E= -.41286640E+03 F= -.41317542E+03 E0= -.41315357E+03  EK= 0.30902E+00 SP= 0.00E+00 SK= 0.00E+00
       N       E                     dE             d eps       ncg     rms          rms(c)
RMM:   1    -0.413169112466E+03    0.63058E-02   -0.10896E+01  4295   0.789E-01    0.907E-01
RMM:   2    -0.413178689684E+03   -0.95772E-02   -0.13421E-01  4274   0.106E-01    0.652E-01
RMM:   3    -0.413176563465E+03    0.21262E-02   -0.83123E-03  4690   0.437E-02    0.145E-01
RMM:   4    -0.413197553942E+03   -0.20990E-01   -0.21470E-02  5144   0.122E-01    0.606E-01
RMM:   5    -0.413176223523E+03    0.21330E-01   -0.10570E-02  4810   0.101E-01    0.375E-02
RMM:   6    -0.413176329283E+03   -0.10576E-03   -0.17279E-03  5813   0.393E-02    0.223E-02
RMM:   7    -0.413176330854E+03   -0.15708E-05   -0.18367E-04  5633   0.127E-02    0.106E-02
RMM:   8    -0.413176325629E+03    0.52246E-05   -0.30882E-05  4657   0.553E-03    0.691E-03
RMM:   9    -0.413176322022E+03    0.36073E-05   -0.48624E-06  2897   0.256E-03    0.489E-03
RMM:  10    -0.413176320986E+03    0.10356E-05   -0.11740E-06  2507   0.166E-03    0.371E-03
RMM:  11    -0.413176315701E+03    0.52852E-05   -0.17956E-06  2529   0.220E-03    0.170E-03
RMM:  12    -0.413176313423E+03    0.22780E-05   -0.79189E-07  2431   0.151E-03    0.984E-04
RMM:  13    -0.413176312841E+03    0.58253E-06   -0.25267E-07  2011   0.912E-04
   25 T=    63. E= -.41286619E+03 F= -.41317631E+03 E0= -.41315452E+03  EK= 0.31012E+00 SP= 0.00E+00 SK= 0.00E+00
       N       E                     dE             d eps       ncg     rms          rms(c)
RMM:   1    -0.413172021821E+03    0.42916E-02   -0.10924E+01  4294   0.812E-01    0.922E-01
RMM:   2    -0.413179426219E+03   -0.74044E-02   -0.13473E-01  4277   0.107E-01    0.645E-01
RMM:   3    -0.413177748906E+03    0.16773E-02   -0.84814E-03  4623   0.439E-02    0.151E-01
RMM:   4    -0.413194761824E+03   -0.17013E-01   -0.17304E-02  5151   0.111E-01    0.546E-01
RMM:   5    -0.413177563905E+03    0.17198E-01   -0.86183E-03  4817   0.904E-02    0.369E-02
RMM:   6    -0.413177631567E+03   -0.67662E-04   -0.13474E-03  5819   0.351E-02    0.220E-02
RMM:   7    -0.413177626512E+03    0.50548E-05   -0.15447E-04  5574   0.122E-02    0.101E-02
RMM:   8    -0.413177617641E+03    0.88716E-05   -0.26246E-05  4542   0.525E-03    0.652E-03
RMM:   9    -0.413177614521E+03    0.31201E-05   -0.69401E-06  3275   0.303E-03    0.554E-03
RMM:  10    -0.413177609857E+03    0.46637E-05   -0.11065E-06  2509   0.185E-03    0.353E-03
RMM:  11    -0.413177601694E+03    0.81630E-05   -0.14876E-06  2529   0.194E-03    0.169E-03
RMM:  12    -0.413177595111E+03    0.65827E-05   -0.75445E-07  2421   0.145E-03    0.722E-04
RMM:  13    -0.413177593991E+03    0.11207E-05   -0.23902E-07  1945   0.880E-04    0.412E-04
RMM:  14    -0.413177592629E+03    0.13616E-05   -0.11212E-07  1324   0.679E-04    0.300E-04
RMM:  15    -0.413177587665E+03    0.49642E-05   -0.15851E-07  1860   0.768E-04    0.331E-04
RMM:  16    -0.413177586978E+03    0.68718E-06   -0.42786E-08   911   0.555E-04
   26 T=    63. E= -.41286619E+03 F= -.41317759E+03 E0= -.41315584E+03  EK= 0.31140E+00 SP= 0.00E+00 SK= 0.00E+00
       N       E                     dE             d eps       ncg     rms          rms(c)
RMM:   1    -0.413171908026E+03    0.56796E-02   -0.10868E+01  4291   0.793E-01    0.898E-01
RMM:   2    -0.413181473515E+03   -0.95655E-02   -0.13430E-01  4272   0.104E-01    0.647E-01
RMM:   3    -0.413179628145E+03    0.18454E-02   -0.83542E-03  4651   0.451E-02    0.145E-01
RMM:   4    -0.413199109051E+03   -0.19481E-01   -0.19839E-02  5147   0.118E-01    0.584E-01
RMM:   5    -0.413179354058E+03    0.19755E-01   -0.99290E-03  4817   0.970E-02    0.368E-02
RMM:   6    -0.413179444419E+03   -0.90361E-04   -0.15432E-03  5829   0.375E-02    0.223E-02
RMM:   7    -0.413179445052E+03   -0.63239E-06   -0.17856E-04  5622   0.128E-02    0.108E-02
RMM:   8    -0.413179441099E+03    0.39524E-05   -0.32816E-05  4746   0.578E-03    0.711E-03
RMM:   9    -0.413179437396E+03    0.37027E-05   -0.80976E-06  3460   0.321E-03    0.559E-03
RMM:  10    -0.413179435466E+03    0.19309E-05   -0.13692E-06  2538   0.195E-03    0.367E-03
RMM:  11    -0.413179431396E+03    0.40698E-05   -0.17479E-06  2555   0.205E-03    0.168E-03
RMM:  12    -0.413179427710E+03    0.36855E-05   -0.85511E-07  2445   0.154E-03    0.809E-04
RMM:  13    -0.413179427245E+03    0.46526E-06   -0.25571E-07  2029   0.921E-04
   27 T=    64. E= -.41286651E+03 F= -.41317943E+03 E0= -.41315773E+03  EK= 0.31291E+00 SP= 0.00E+00 SK= 0.00E+00
       N       E                     dE             d eps       ncg     rms          rms(c)
RMM:   1    -0.413184516504E+03   -0.50888E-02   -0.11094E+01  4291   0.881E-01    0.906E-01
RMM:   2    -0.413182923641E+03    0.15929E-02   -0.15055E-01  4273   0.113E-01    0.660E-01
RMM:   3    -0.413180681393E+03    0.22422E-02   -0.80838E-03  4269   0.422E-02    0.153E-01
RMM:   4    -0.413183261149E+03   -0.25798E-02   -0.35456E-03  5092   0.512E-02    0.217E-01
RMM:   5    -0.413180633950E+03    0.26272E-02   -0.12922E-03  4807   0.358E-02    0.293E-02
RMM:   6    -0.413180634147E+03   -0.19748E-06   -0.28565E-04  5712   0.167E-02    0.185E-02
RMM:   7    -0.413180625388E+03    0.87596E-05   -0.12874E-04  5130   0.112E-02    0.109E-02
RMM:   8    -0.413180618109E+03    0.72788E-05   -0.68245E-06  3236   0.386E-03    0.450E-03
RMM:   9    -0.413180616518E+03    0.15909E-05   -0.15983E-06  2514   0.195E-03    0.272E-03
RMM:  10    -0.413180613320E+03    0.31982E-05   -0.12084E-06  2488   0.168E-03    0.142E-03
RMM:  11    -0.413180611486E+03    0.18342E-05   -0.42442E-07  2173   0.112E-03    0.677E-04
RMM:  12    -0.413180609401E+03    0.20847E-05   -0.26063E-07  1789   0.842E-04    0.266E-04
RMM:  13    -0.413180607260E+03    0.21412E-05   -0.16663E-07  1409   0.719E-04    0.196E-04
RMM:  14    -0.413180605393E+03    0.18670E-05   -0.10537E-07  1123   0.649E-04    0.109E-04
RMM:  15    -0.413180603211E+03    0.21818E-05   -0.91178E-08  1158   0.637E-04    0.606E-05
RMM:  16    -0.413180601302E+03    0.19089E-05   -0.63764E-08  1041   0.596E-04    0.522E-05
RMM:  17    -0.413180599939E+03    0.13627E-05   -0.40039E-08   884   0.556E-04    0.249E-05
RMM:  18    -0.413180599306E+03    0.63292E-06   -0.21146E-08   732   0.530E-04
   28 T=    64. E= -.41286630E+03 F= -.41318060E+03 E0= -.41315895E+03  EK= 0.31430E+00 SP= 0.00E+00 SK= 0.00E+00
       N       E                     dE             d eps       ncg     rms          rms(c)
RMM:   1    -0.413176134389E+03    0.44656E-02   -0.11029E+01  4284   0.819E-01    0.929E-01
RMM:   2    -0.413184524717E+03   -0.83903E-02   -0.13549E-01  4271   0.109E-01    0.651E-01
RMM:   3    -0.413182709913E+03    0.18148E-02   -0.88148E-03  4534   0.443E-02    0.149E-01
RMM:   4    -0.413194949250E+03   -0.12239E-01   -0.12577E-02  5160   0.939E-02    0.465E-01
RMM:   5    -0.413182615533E+03    0.12334E-01   -0.62762E-03  4830   0.766E-02    0.353E-02
RMM:   6    -0.413182652402E+03   -0.36869E-04   -0.10024E-03  5852   0.299E-02    0.217E-02
RMM:   7    -0.413182651044E+03    0.13575E-05   -0.17757E-04  5558   0.131E-02    0.134E-02
RMM:   8    -0.413182636253E+03    0.14792E-04   -0.29669E-05  4659   0.614E-03    0.620E-03
RMM:   9    -0.413182632754E+03    0.34984E-05   -0.58567E-06  3105   0.301E-03    0.491E-03
RMM:  10    -0.413182627655E+03    0.50996E-05   -0.10258E-06  2499   0.182E-03    0.296E-03
RMM:  11    -0.413182621650E+03    0.60048E-05   -0.75499E-07  2470   0.149E-03    0.148E-03
RMM:  12    -0.413182615465E+03    0.61849E-05   -0.56617E-07  2364   0.124E-03    0.651E-04
RMM:  13    -0.413182613545E+03    0.19197E-05   -0.21723E-07  1842   0.842E-04    0.299E-04
RMM:  14    -0.413182611932E+03    0.16128E-05   -0.10897E-07  1270   0.668E-04    0.191E-04
RMM:  15    -0.413182607331E+03    0.46011E-05   -0.10498E-07  1344   0.687E-04    0.129E-04
RMM:  16    -0.413182606302E+03    0.10292E-05   -0.43959E-08   891   0.590E-04    0.898E-05
RMM:  17    -0.413182603261E+03    0.30414E-05   -0.60253E-08  1167   0.618E-04    0.935E-05
RMM:  18    -0.413182601315E+03    0.19454E-05   -0.40663E-08   994   0.565E-04    0.520E-05
RMM:  19    -0.413182600376E+03    0.93911E-06   -0.21871E-08   775   0.526E-04
   29 T=    64. E= -.41286651E+03 F= -.41318260E+03 E0= -.41316100E+03  EK= 0.31609E+00 SP= 0.00E+00 SK= 0.00E+00
       N       E                     dE             d eps       ncg     rms          rms(c)
RMM:   1    -0.413177662833E+03    0.49385E-02   -0.10979E+01  4286   0.824E-01    0.908E-01
RMM:   2    -0.413186695918E+03   -0.90331E-02   -0.13650E-01  4271   0.111E-01    0.650E-01
RMM:   3    -0.413184563490E+03    0.21324E-02   -0.85343E-03  4449   0.457E-02    0.143E-01
RMM:   4    -0.413192315184E+03   -0.77517E-02   -0.82963E-03  5159   0.772E-02    0.372E-01
RMM:   5    -0.413184479896E+03    0.78353E-02   -0.39793E-03  4829   0.612E-02    0.329E-02
RMM:   6    -0.413184496538E+03   -0.16641E-04   -0.67013E-04  5811   0.247E-02    0.217E-02
RMM:   7    -0.413184492512E+03    0.40253E-05   -0.17276E-04  5412   0.128E-02    0.129E-02
RMM:   8    -0.413184479981E+03    0.12531E-04   -0.19001E-05  4285   0.539E-03    0.543E-03
RMM:   9    -0.413184477547E+03    0.24340E-05   -0.33800E-06  2810   0.245E-03    0.395E-03
RMM:  10    -0.413184473659E+03    0.38876E-05   -0.10729E-06  2486   0.172E-03    0.224E-03
RMM:  11    -0.413184469205E+03    0.44542E-05   -0.71109E-07  2444   0.141E-03    0.106E-03
RMM:  12    -0.413184465631E+03    0.35743E-05   -0.39014E-07  2176   0.105E-03    0.461E-04
RMM:  13    -0.413184464188E+03    0.14433E-05   -0.17405E-07  1533   0.754E-04    0.213E-04
RMM:  14    -0.413184462044E+03    0.21437E-05   -0.10782E-07  1177   0.672E-04    0.123E-04
RMM:  15    -0.413184459119E+03    0.29246E-05   -0.89381E-08  1163   0.660E-04    0.722E-05
RMM:  16    -0.413184458043E+03    0.10766E-05   -0.51713E-08   979   0.602E-04    0.584E-05
RMM:  17    -0.413184455352E+03    0.26906E-05   -0.62476E-08  1153   0.616E-04    0.370E-05
RMM:  18    -0.413184453966E+03    0.13859E-05   -0.33496E-08   878   0.558E-04    0.217E-05
RMM:  19    -0.413184453552E+03    0.41419E-06   -0.15938E-08   695   0.530E-04
   30 T=    65. E= -.41286645E+03 F= -.41318445E+03 E0= -.41316291E+03  EK= 0.31801E+00 SP= 0.00E+00 SK= 0.00E+00
       N       E                     dE             d eps       ncg     rms          rms(c)
RMM:   1    -0.413192672177E+03   -0.82182E-02   -0.11236E+01  4293   0.945E-01    0.909E-01
RMM:   2    -0.413189111228E+03    0.35609E-02   -0.15066E-01  4273   0.123E-01    0.665E-01
RMM:   3    -0.413186188387E+03    0.29228E-02   -0.84672E-03  4416   0.466E-02    0.149E-01
RMM:   4    -0.413192874340E+03   -0.66860E-02   -0.73619E-03  5150   0.728E-02    0.344E-01
RMM:   5    -0.413186170208E+03    0.67041E-02   -0.33722E-03  4826   0.565E-02    0.316E-02
RMM:   6    -0.413186185880E+03   -0.15671E-04   -0.57629E-04  5823   0.229E-02    0.208E-02
RMM:   7    -0.413186184747E+03    0.11326E-05   -0.16075E-04  5367   0.125E-02    0.124E-02
RMM:   8    -0.413186173909E+03    0.10838E-04   -0.16888E-05  4197   0.519E-03    0.521E-03
RMM:   9    -0.413186172547E+03    0.13621E-05   -0.29651E-06  2759   0.235E-03    0.371E-03
RMM:  10    -0.413186170297E+03    0.22491E-05   -0.10751E-06  2481   0.169E-03    0.208E-03
RMM:  11    -0.413186167633E+03    0.26641E-05   -0.69618E-07  2432   0.138E-03    0.974E-04
RMM:  12    -0.413186165473E+03    0.21604E-05   -0.36808E-07  2109   0.101E-03    0.432E-04
RMM:  13    -0.413186164463E+03    0.10101E-05   -0.16242E-07  1431   0.733E-04    0.206E-04
RMM:  14    -0.413186162958E+03    0.15047E-05   -0.10649E-07  1137   0.667E-04    0.117E-04
RMM:  15    -0.413186160954E+03    0.20044E-05   -0.88460E-08  1103   0.652E-04    0.713E-05
RMM:  16    -0.413186160173E+03    0.78085E-06   -0.47330E-08   902   0.597E-04
   31 T=    65. E= -.41286615E+03 F= -.41318616E+03 E0= -.41316466E+03  EK= 0.32001E+00 SP= 0.00E+00 SK= 0.00E+00
       N       E                     dE             d eps       ncg     rms          rms(c)
RMM:   1    -0.413182008262E+03    0.41527E-02   -0.11172E+01  4292   0.842E-01    0.935E-01
RMM:   2    -0.413191012719E+03   -0.90045E-02   -0.13963E-01  4276   0.120E-01    0.659E-01
RMM:   3    -0.413188934719E+03    0.20780E-02   -0.90668E-03  4410   0.532E-02    0.148E-01
RMM:   4    -0.413196303909E+03   -0.73692E-02   -0.79105E-03  5159   0.759E-02    0.362E-01
RMM:   5    -0.413188895970E+03    0.74079E-02   -0.37229E-03  4821   0.594E-02    0.341E-02
RMM:   6    -0.413188913233E+03   -0.17263E-04   -0.68172E-04  5791   0.247E-02    0.234E-02
RMM:   7    -0.413188903934E+03    0.92986E-05   -0.18410E-04  5363   0.133E-02    0.130E-02
RMM:   8    -0.413188891229E+03    0.12705E-04   -0.17317E-05  4192   0.523E-03    0.560E-03
RMM:   9    -0.413188887771E+03    0.34586E-05   -0.28934E-06  2748   0.232E-03    0.394E-03
RMM:  10    -0.413188882062E+03    0.57084E-05   -0.10409E-06  2482   0.170E-03    0.215E-03
RMM:  11    -0.413188875744E+03    0.63184E-05   -0.70363E-07  2440   0.140E-03    0.989E-04
RMM:  12    -0.413188870844E+03    0.48995E-05   -0.36981E-07  2154   0.104E-03    0.428E-04
RMM:  13    -0.413188868834E+03    0.20105E-05   -0.17382E-07  1535   0.758E-04    0.215E-04
RMM:  14    -0.413188865621E+03    0.32126E-05   -0.10445E-07  1179   0.676E-04    0.120E-04
RMM:  15    -0.413188861560E+03    0.40615E-05   -0.88517E-08  1240   0.668E-04    0.809E-05
RMM:  16    -0.413188859939E+03    0.16206E-05   -0.51284E-08  1002   0.598E-04    0.670E-05
RMM:  17    -0.413188856089E+03    0.38505E-05   -0.63069E-08  1204   0.619E-04    0.400E-05
RMM:  18    -0.413188854454E+03    0.16342E-05   -0.32808E-08   901   0.552E-04    0.247E-05
RMM:  19    -0.413188854062E+03    0.39205E-06   -0.15857E-08   701   0.516E-04
   32 T=    66. E= -.41286648E+03 F= -.41318885E+03 E0= -.41316741E+03  EK= 0.32238E+00 SP= 0.00E+00 SK= 0.00E+00
       N       E                     dE             d eps       ncg     rms          rms(c)
RMM:   1    -0.413183722221E+03    0.51322E-02   -0.11142E+01  4294   0.856E-01    0.922E-01
RMM:   2    -0.413193160606E+03   -0.94384E-02   -0.14096E-01  4280   0.128E-01    0.656E-01
RMM:   3    -0.413190683313E+03    0.24773E-02   -0.87492E-03  4188   0.452E-02    0.147E-01
RMM:   4    -0.413191084838E+03   -0.40152E-03   -0.13765E-03  4960   0.294E-02    0.791E-02
RMM:   5    -0.413190775163E+03    0.30967E-03   -0.20090E-04  4715   0.146E-02    0.331E-02
RMM:   6    -0.413190765620E+03    0.95426E-05   -0.16115E-04  5315   0.130E-02    0.233E-02
RMM:   7    -0.413190742667E+03    0.22953E-04   -0.12717E-04  4738   0.104E-02    0.119E-02
RMM:   8    -0.413190739602E+03    0.30650E-05   -0.83742E-06  3206   0.365E-03    0.435E-03
RMM:   9    -0.413190738065E+03    0.15368E-05   -0.17096E-06  2418   0.180E-03    0.207E-03
RMM:  10    -0.413190729512E+03    0.85536E-05   -0.75488E-07  2245   0.129E-03    0.667E-04
RMM:  11    -0.413190725202E+03    0.43103E-05   -0.26333E-07  1747   0.836E-04    0.303E-04
RMM:  12    -0.413190722397E+03    0.28041E-05   -0.13546E-07  1439   0.701E-04    0.186E-04
RMM:  13    -0.413190718922E+03    0.34754E-05   -0.80859E-08  1073   0.636E-04    0.102E-04
RMM:  14    -0.413190713748E+03    0.51739E-05   -0.76665E-08  1134   0.638E-04    0.969E-05
RMM:  15    -0.413190711660E+03    0.20882E-05   -0.34333E-08   832   0.554E-04    0.718E-05
RMM:  16    -0.413190708037E+03    0.36231E-05   -0.47155E-08  1016   0.576E-04    0.473E-05
RMM:  17    -0.413190707584E+03    0.45279E-06   -0.11593E-08   587   0.494E-04
   33 T=    66. E= -.41286616E+03 F= -.41319071E+03 E0= -.41316931E+03  EK= 0.32455E+00 SP= 0.00E+00 SK= 0.00E+00
       N       E                     dE             d eps       ncg     rms          rms(c)
RMM:   1    -0.413204434429E+03   -0.13726E-01   -0.11427E+01  4297   0.982E-01    0.913E-01
RMM:   2    -0.413195724281E+03    0.87101E-02   -0.16731E-01  4277   0.137E-01    0.671E-01
RMM:   3    -0.413193105814E+03    0.26185E-02   -0.81621E-03  4310   0.488E-02    0.173E-01
RMM:   4    -0.413196081189E+03   -0.29754E-02   -0.41134E-03  5098   0.573E-02    0.230E-01
RMM:   5    -0.413193150209E+03    0.29310E-02   -0.14234E-03  4779   0.380E-02    0.318E-02
RMM:   6    -0.413193143495E+03    0.67148E-05   -0.30975E-04  5665   0.183E-02    0.228E-02
RMM:   7    -0.413193135058E+03    0.84367E-05   -0.14956E-04  5077   0.118E-02    0.114E-02
RMM:   8    -0.413193128135E+03    0.69230E-05   -0.11879E-05  3912   0.451E-03    0.507E-03
RMM:   9    -0.413193127039E+03    0.10956E-05   -0.17462E-06  2531   0.194E-03    0.277E-03
RMM:  10    -0.413193123752E+03    0.32871E-05   -0.90841E-07  2455   0.152E-03    0.137E-03
RMM:  11    -0.413193121216E+03    0.25367E-05   -0.44236E-07  2196   0.107E-03    0.704E-04
RMM:  12    -0.413193118750E+03    0.24654E-05   -0.25827E-07  1742   0.846E-04    0.283E-04
RMM:  13    -0.413193116990E+03    0.17598E-05   -0.13290E-07  1164   0.683E-04    0.166E-04
RMM:  14    -0.413193115090E+03    0.19000E-05   -0.97513E-08  1055   0.642E-04    0.130E-04
RMM:  15    -0.413193112309E+03    0.27812E-05   -0.91885E-08  1072   0.638E-04    0.610E-05
RMM:  16    -0.413193111500E+03    0.80905E-06   -0.42393E-08   794   0.570E-04
   34 T=    67. E= -.41286616E+03 F= -.41319311E+03 E0= -.41317176E+03  EK= 0.32696E+00 SP= 0.00E+00 SK= 0.00E+00
       N       E                     dE             d eps       ncg     rms          rms(c)
RMM:   1    -0.413189041966E+03    0.40703E-02   -0.11338E+01  4299   0.897E-01    0.939E-01
RMM:   2    -0.413198170503E+03   -0.91285E-02   -0.14567E-01  4260   0.129E-01    0.669E-01
RMM:   3    -0.413195854007E+03    0.23165E-02   -0.90544E-03  4406   0.508E-02    0.150E-01
RMM:   4    -0.413200752682E+03   -0.48987E-02   -0.56029E-03  5164   0.635E-02    0.297E-01
RMM:   5    -0.413195826980E+03    0.49257E-02   -0.24903E-03  4817   0.493E-02    0.343E-02
RMM:   6    -0.413195816639E+03    0.10341E-04   -0.48888E-04  5727   0.221E-02    0.247E-02
RMM:   7    -0.413195805395E+03    0.11243E-04   -0.17591E-04  5239   0.127E-02    0.124E-02
RMM:   8    -0.413195796285E+03    0.91101E-05   -0.16992E-05  4219   0.500E-03    0.552E-03
RMM:   9    -0.413195793910E+03    0.23748E-05   -0.24467E-06  2663   0.215E-03    0.318E-03
RMM:  10    -0.413195787960E+03    0.59498E-05   -0.91115E-07  2477   0.158E-03    0.163E-03
RMM:  11    -0.413195782331E+03    0.56290E-05   -0.51274E-07  2312   0.117E-03    0.797E-04
RMM:  12    -0.413195777762E+03    0.45697E-05   -0.28365E-07  1947   0.910E-04    0.335E-04
RMM:  13    -0.413195775068E+03    0.26935E-05   -0.14526E-07  1314   0.711E-04    0.183E-04
RMM:  14    -0.413195771926E+03    0.31419E-05   -0.89132E-08  1066   0.650E-04    0.129E-04
RMM:  15    -0.413195766989E+03    0.49372E-05   -0.86297E-08  1161   0.659E-04    0.685E-05
RMM:  16    -0.413195765392E+03    0.15969E-05   -0.46760E-08   925   0.597E-04    0.595E-05
RMM:  17    -0.413195762009E+03    0.33827E-05   -0.52893E-08  1162   0.614E-04    0.344E-05
RMM:  18    -0.413195760475E+03    0.15346E-05   -0.30758E-08   897   0.548E-04    0.188E-05
RMM:  19    -0.413195760162E+03    0.31309E-06   -0.13512E-08   655   0.508E-04
   35 T=    67. E= -.41286639E+03 F= -.41319576E+03 E0= -.41317445E+03  EK= 0.32937E+00 SP= 0.00E+00 SK= 0.00E+00
       N       E                     dE             d eps       ncg     rms          rms(c)
RMM:   1    -0.413195016905E+03    0.74357E-03   -0.11371E+01  4298   0.965E-01    0.939E-01
RMM:   2    -0.413200019405E+03   -0.50025E-02   -0.14842E-01  4259   0.131E-01    0.664E-01
RMM:   3    -0.413198087485E+03    0.19319E-02   -0.91963E-03  4729   0.519E-02    0.170E-01
RMM:   4    -0.413226344194E+03   -0.28257E-01   -0.28641E-02  5166   0.142E-01    0.702E-01
RMM:   5    -0.413197789706E+03    0.28554E-01   -0.14501E-02  4804   0.117E-01    0.438E-02
RMM:   6    -0.413197829743E+03   -0.40037E-04   -0.22676E-03  5859   0.452E-02    0.270E-02
RMM:   7    -0.413197837213E+03   -0.74705E-05   -0.28606E-04  5722   0.157E-02    0.149E-02
RMM:   8    -0.413197827155E+03    0.10058E-04   -0.54329E-05  4993   0.757E-03    0.902E-03
RMM:   9    -0.413197823234E+03    0.39208E-05   -0.16235E-05  4336   0.456E-03    0.633E-03
RMM:  10    -0.413197816468E+03    0.67665E-05   -0.20683E-06  2586   0.232E-03    0.373E-03
RMM:  11    -0.413197811722E+03    0.47462E-05   -0.11654E-06  2501   0.173E-03    0.224E-03
RMM:  12    -0.413197801391E+03    0.10331E-04   -0.13235E-06  2492   0.192E-03    0.100E-03
RMM:  13    -0.413197797440E+03    0.39506E-05   -0.46971E-07  2300   0.123E-03    0.626E-04
RMM:  14    -0.413197797172E+03    0.26851E-06   -0.19806E-07  1766   0.811E-04
   36 T=    68. E= -.41286616E+03 F= -.41319780E+03 E0= -.41317654E+03  EK= 0.33164E+00 SP= 0.00E+00 SK= 0.00E+00
       N       E                     dE             d eps       ncg     rms          rms(c)
RMM:   1    -0.413199663326E+03   -0.18659E-02   -0.11440E+01  4304   0.101E+00    0.922E-01
RMM:   2    -0.413203890941E+03   -0.42276E-02   -0.15639E-01  4258   0.137E-01    0.674E-01
RMM:   3    -0.413201227902E+03    0.26630E-02   -0.88904E-03  4643   0.546E-02    0.165E-01
RMM:   4    -0.413224296085E+03   -0.23068E-01   -0.23407E-02  5159   0.129E-01    0.636E-01
RMM:   5    -0.413201008366E+03    0.23288E-01   -0.11785E-02  4803   0.106E-01    0.417E-02
RMM:   6    -0.413201031993E+03   -0.23627E-04   -0.19144E-03  5854   0.411E-02    0.262E-02
RMM:   7    -0.413201041508E+03   -0.95153E-05   -0.27875E-04  5691   0.152E-02    0.154E-02
RMM:   8    -0.413201030029E+03    0.11480E-04   -0.54503E-05  5000   0.777E-03    0.821E-03
RMM:   9    -0.413201027242E+03    0.27870E-05   -0.12085E-05  3935   0.415E-03    0.527E-03
RMM:  10    -0.413201022879E+03    0.43622E-05   -0.16720E-06  2563   0.207E-03    0.325E-03
RMM:  11    -0.413201018794E+03    0.40857E-05   -0.10308E-06  2498   0.162E-03    0.174E-03
RMM:  12    -0.413201012363E+03    0.64304E-05   -0.96164E-07  2458   0.156E-03    0.726E-04
RMM:  13    -0.413201009971E+03    0.23921E-05   -0.36230E-07  2142   0.104E-03    0.456E-04
RMM:  14    -0.413201009404E+03    0.56751E-06   -0.16810E-07  1496   0.745E-04
   37 T=    68. E= -.41286663E+03 F= -.41320101E+03 E0= -.41317979E+03  EK= 0.33438E+00 SP= 0.00E+00 SK= 0.00E+00
       N       E                     dE             d eps       ncg     rms          rms(c)
RMM:   1    -0.413202949812E+03   -0.19398E-02   -0.11565E+01  4305   0.104E+00    0.942E-01
RMM:   2    -0.413206540574E+03   -0.35908E-02   -0.15394E-01  4258   0.130E-01    0.679E-01
RMM:   3    -0.413203699287E+03    0.28413E-02   -0.93511E-03  4742   0.536E-02    0.169E-01
RMM:   4    -0.413233645428E+03   -0.29946E-01   -0.30448E-02  5157   0.146E-01    0.722E-01
RMM:   5    -0.413203355366E+03    0.30290E-01   -0.15441E-02  4807   0.120E-01    0.447E-02
RMM:   6    -0.413203400662E+03   -0.45296E-04   -0.23873E-03  5841   0.462E-02    0.277E-02
RMM:   7    -0.413203410957E+03   -0.10295E-04   -0.32175E-04  5755   0.163E-02    0.163E-02
RMM:   8    -0.413203399540E+03    0.11416E-04   -0.62513E-05  5063   0.816E-03    0.921E-03
RMM:   9    -0.413203395526E+03    0.40144E-05   -0.15378E-05  4234   0.457E-03    0.576E-03
RMM:  10    -0.413203390045E+03    0.54812E-05   -0.22068E-06  2604   0.226E-03    0.353E-03
RMM:  11    -0.413203385640E+03    0.44052E-05   -0.11276E-06  2501   0.171E-03    0.200E-03
RMM:  12    -0.413203377257E+03    0.83828E-05   -0.11414E-06  2490   0.175E-03    0.878E-04
RMM:  13    -0.413203373786E+03    0.34710E-05   -0.42972E-07  2266   0.116E-03    0.574E-04
RMM:  14    -0.413203373484E+03    0.30180E-06   -0.19261E-07  1687   0.788E-04
   38 T=    69. E= -.41286648E+03 F= -.41320337E+03 E0= -.41318220E+03  EK= 0.33690E+00 SP= 0.00E+00 SK= 0.00E+00
       N       E                     dE             d eps       ncg     rms          rms(c)
RMM:   1    -0.413216828828E+03   -0.13455E-01   -0.11706E+01  4304   0.111E+00    0.956E-01
RMM:   2    -0.413208634366E+03    0.81945E-02   -0.15746E-01  4259   0.126E-01    0.673E-01
RMM:   3    -0.413206521158E+03    0.21132E-02   -0.96712E-03  4918   0.524E-02    0.194E-01
RMM:   4    -0.413250924255E+03   -0.44403E-01   -0.46513E-02  5141   0.180E-01    0.874E-01
RMM:   5    -0.413205772848E+03    0.45151E-01   -0.22605E-02  4797   0.147E-01    0.520E-02
RMM:   6    -0.413205899247E+03   -0.12640E-03   -0.36180E-03  5836   0.560E-02    0.307E-02
RMM:   7    -0.413205908489E+03   -0.92423E-05   -0.39320E-04  5721   0.178E-02    0.165E-02
RMM:   8    -0.413205898382E+03    0.10107E-04   -0.49408E-05  4796   0.681E-03    0.843E-03
RMM:   9    -0.413205892656E+03    0.57258E-05   -0.15042E-05  3953   0.397E-03    0.612E-03
RMM:  10    -0.413205887216E+03    0.54402E-05   -0.29694E-06  2693   0.242E-03    0.391E-03
RMM:  11    -0.413205879902E+03    0.73134E-05   -0.15592E-06  2504   0.202E-03    0.217E-03
RMM:  12    -0.413205868305E+03    0.11597E-04   -0.13562E-06  2491   0.195E-03    0.963E-04
RMM:  13    -0.413205865869E+03    0.24356E-05   -0.42082E-07  2339   0.122E-03    0.592E-04
RMM:  14    -0.413205865548E+03    0.32143E-06   -0.18605E-07  1783   0.797E-04
   39 T=    69. E= -.41286643E+03 F= -.41320587E+03 E0= -.41318473E+03  EK= 0.33943E+00 SP= 0.00E+00 SK= 0.00E+00
       N       E                     dE             d eps       ncg     rms          rms(c)
RMM:   1    -0.413209015513E+03   -0.31496E-02   -0.11602E+01  4306   0.111E+00    0.934E-01
RMM:   2    -0.413211962454E+03   -0.29469E-02   -0.15828E-01  4261   0.131E-01    0.678E-01
RMM:   3    -0.413209696996E+03    0.22655E-02   -0.96797E-03  4977   0.558E-02    0.206E-01
RMM:   4    -0.413261012855E+03   -0.51316E-01   -0.55508E-02  5130   0.196E-01    0.939E-01
RMM:   5    -0.413208548373E+03    0.52464E-01   -0.25903E-02  4785   0.158E-01    0.550E-02
RMM:   6    -0.413208709977E+03   -0.16160E-03   -0.41329E-03  5826   0.601E-02    0.310E-02
RMM:   7    -0.413208725986E+03   -0.16009E-04   -0.46641E-04  5827   0.190E-02    0.185E-02
RMM:   8    -0.413208725963E+03    0.23068E-07   -0.95124E-05  5223   0.926E-03    0.123E-02
RMM:   9    -0.413208714343E+03    0.11620E-04   -0.25885E-05  4640   0.560E-03    0.656E-03
RMM:  10    -0.413208709447E+03    0.48956E-05   -0.43146E-06  2779   0.285E-03    0.397E-03
RMM:  11    -0.413208705336E+03    0.41111E-05   -0.16340E-06  2504   0.208E-03    0.233E-03
RMM:  12    -0.413208697821E+03    0.75147E-05   -0.12562E-06  2491   0.190E-03    0.776E-04
RMM:  13    -0.413208694389E+03    0.34323E-05   -0.53810E-07  2363   0.130E-03    0.544E-04
RMM:  14    -0.413208693332E+03    0.10567E-05   -0.23941E-07  1932   0.876E-04    0.351E-04
RMM:  15    -0.413208689909E+03    0.34237E-05   -0.13518E-07  1401   0.723E-04    0.148E-04
RMM:  16    -0.413208687151E+03    0.27576E-05   -0.84079E-08  1154   0.651E-04    0.131E-04
RMM:  17    -0.413208684732E+03    0.24191E-05   -0.60920E-08  1061   0.618E-04    0.970E-05
RMM:  18    -0.413208681281E+03    0.34505E-05   -0.54797E-08  1121   0.624E-04    0.640E-05
RMM:  19    -0.413208679599E+03    0.16829E-05   -0.34290E-08   960   0.582E-04    0.422E-05
RMM:  20    -0.413208678900E+03    0.69868E-06   -0.22845E-08   843   0.555E-04
   40 T=    70. E= -.41286664E+03 F= -.41320868E+03 E0= -.41318758E+03  EK= 0.34204E+00 SP= 0.00E+00 SK= 0.00E+00
       N       E                     dE             d eps       ncg     rms          rms(c)
RMM:   1    -0.413234192779E+03   -0.25513E-01   -0.11962E+01  4307   0.126E+00    0.944E-01
RMM:   2    -0.413213933726E+03    0.20259E-01   -0.18461E-01  4271   0.144E-01    0.692E-01
RMM:   3    -0.413212561896E+03    0.13718E-02   -0.99921E-03  5048   0.614E-02    0.268E-01
RMM:   4    -0.413269340173E+03   -0.56778E-01   -0.66146E-02  5127   0.214E-01    0.994E-01
RMM:   5    -0.413210439835E+03    0.58900E-01   -0.28501E-02  4778   0.168E-01    0.607E-02
RMM:   6    -0.413210616709E+03   -0.17687E-03   -0.45854E-03  5811   0.635E-02    0.320E-02
RMM:   7    -0.413210635342E+03   -0.18633E-04   -0.54728E-04  5881   0.203E-02    0.217E-02
RMM:   8    -0.413210635172E+03    0.16934E-06   -0.11622E-04  5276   0.104E-02    0.131E-02
RMM:   9    -0.413210622900E+03    0.12272E-04   -0.24819E-05  4571   0.578E-03    0.560E-03
RMM:  10    -0.413210619126E+03    0.37740E-05   -0.54820E-06  2911   0.293E-03    0.347E-03
RMM:  11    -0.413210615913E+03    0.32134E-05   -0.14854E-06  2506   0.199E-03    0.199E-03
RMM:  12    -0.413210610776E+03    0.51367E-05   -0.92299E-07  2476   0.164E-03    0.668E-04
RMM:  13    -0.413210607953E+03    0.28232E-05   -0.45395E-07  2282   0.116E-03    0.347E-04
RMM:  14    -0.413210606366E+03    0.15866E-05   -0.23306E-07  1813   0.850E-04    0.247E-04
RMM:  15    -0.413210603535E+03    0.28316E-05   -0.14048E-07  1331   0.714E-04    0.112E-04
RMM:  16    -0.413210601621E+03    0.19143E-05   -0.89633E-08  1129   0.657E-04    0.789E-05
RMM:  17    -0.413210599703E+03    0.19177E-05   -0.68188E-08  1110   0.636E-04    0.626E-05
RMM:  18    -0.413210597613E+03    0.20895E-05   -0.52809E-08  1051   0.619E-04    0.305E-05
RMM:  19    -0.413210595978E+03    0.16357E-05   -0.38661E-08   991   0.598E-04    0.279E-05
RMM:  20    -0.413210595408E+03    0.56929E-06   -0.22738E-08   836   0.568E-04
   41 T=    70. E= -.41286636E+03 F= -.41321060E+03 E0= -.41318953E+03  EK= 0.34424E+00 SP= 0.00E+00 SK= 0.00E+00
       N       E                     dE             d eps       ncg     rms          rms(c)
RMM:   1    -0.413214497236E+03   -0.39013E-02   -0.11773E+01  4308   0.121E+00    0.968E-01
RMM:   2    -0.413215682647E+03   -0.11854E-02   -0.16042E-01  4288   0.139E-01    0.683E-01
RMM:   3    -0.413216784760E+03   -0.11021E-02   -0.12579E-02  5085   0.745E-02    0.309E-01
RMM:   4    -0.413253234474E+03   -0.36450E-01   -0.52506E-02  5091   0.193E-01    0.829E-01
RMM:   5    -0.413213016977E+03    0.40217E-01   -0.17988E-02  4738   0.138E-01    0.572E-02
RMM:   6    -0.413213085233E+03   -0.68257E-04   -0.30982E-03  5763   0.525E-02    0.312E-02
RMM:   7    -0.413213091617E+03   -0.63830E-05   -0.41668E-04  5801   0.183E-02    0.209E-02
RMM:   8    -0.413213087874E+03    0.37421E-05   -0.10575E-04  5185   0.103E-02    0.116E-02
RMM:   9    -0.413213074217E+03    0.13657E-04   -0.19694E-05  4401   0.541E-03    0.462E-03
RMM:  10    -0.413213068983E+03    0.52343E-05   -0.40240E-06  2787   0.257E-03    0.288E-03
RMM:  11    -0.413213063219E+03    0.57637E-05   -0.12261E-06  2498   0.182E-03    0.157E-03
RMM:  12    -0.413213055440E+03    0.77795E-05   -0.68857E-07  2435   0.144E-03    0.577E-04
RMM:  13    -0.413213051286E+03    0.41535E-05   -0.33826E-07  2064   0.101E-03    0.283E-04
RMM:  14    -0.413213048538E+03    0.27481E-05   -0.18376E-07  1552   0.776E-04    0.176E-04
RMM:  15    -0.413213042444E+03    0.60938E-05   -0.13581E-07  1340   0.722E-04    0.136E-04
RMM:  16    -0.413213040500E+03    0.19444E-05   -0.83642E-08  1153   0.653E-04    0.813E-05
RMM:  17    -0.413213036694E+03    0.38058E-05   -0.74483E-08  1262   0.653E-04    0.612E-05
RMM:  18    -0.413213034255E+03    0.24391E-05   -0.53271E-08  1119   0.602E-04    0.349E-05
RMM:  19    -0.413213032545E+03    0.17099E-05   -0.36082E-08   978   0.571E-04    0.287E-05
RMM:  20    -0.413213032298E+03    0.24660E-06   -0.18864E-08   761   0.535E-04
   42 T=    71. E= -.41286651E+03 F= -.41321303E+03 E0= -.41319200E+03  EK= 0.34652E+00 SP= 0.00E+00 SK= 0.00E+00
       N       E                     dE             d eps       ncg     rms          rms(c)
RMM:   1    -0.413218742447E+03   -0.57099E-02   -0.11741E+01  4310   0.128E+00    0.946E-01
RMM:   2    -0.413217561392E+03    0.11811E-02   -0.16436E-01  4292   0.148E-01    0.683E-01
RMM:   3    -0.413219894933E+03   -0.23335E-02   -0.13369E-02  5090   0.828E-02    0.344E-01
RMM:   4    -0.413251326148E+03   -0.31431E-01   -0.51061E-02  5075   0.191E-01    0.790E-01
RMM:   5    -0.413214915528E+03    0.36411E-01   -0.15748E-02  4710   0.132E-01    0.566E-02
RMM:   6    -0.413214955931E+03   -0.40403E-04   -0.27484E-03  5741   0.499E-02    0.304E-02
RMM:   7    -0.413214960146E+03   -0.42145E-05   -0.37218E-04  5790   0.177E-02    0.207E-02
RMM:   8    -0.413214956652E+03    0.34938E-05   -0.99091E-05  5160   0.101E-02    0.108E-02
RMM:   9    -0.413214944772E+03    0.11880E-04   -0.18746E-05  4347   0.534E-03    0.418E-03
RMM:  10    -0.413214941107E+03    0.36644E-05   -0.35838E-06  2754   0.245E-03    0.256E-03
RMM:  11    -0.413214936285E+03    0.48223E-05   -0.12380E-06  2496   0.180E-03    0.139E-03
RMM:  12    -0.413214930866E+03    0.54193E-05   -0.62801E-07  2423   0.137E-03    0.556E-04
RMM:  13    -0.413214927869E+03    0.29966E-05   -0.30752E-07  1914   0.944E-04    0.259E-04
RMM:  14    -0.413214925265E+03    0.26039E-05   -0.17580E-07  1451   0.756E-04    0.149E-04
RMM:  15    -0.413214920606E+03    0.46598E-05   -0.13887E-07  1308   0.716E-04    0.113E-04
RMM:  16    -0.413214918997E+03    0.16085E-05   -0.84204E-08  1141   0.650E-04    0.783E-05
RMM:  17    -0.413214915559E+03    0.34383E-05   -0.77499E-08  1251   0.652E-04    0.572E-05
RMM:  18    -0.413214913474E+03    0.20848E-05   -0.51948E-08  1084   0.599E-04    0.387E-05
RMM:  19    -0.413214912573E+03    0.90117E-06   -0.29568E-08   856   0.555E-04
   43 T=    71. E= -.41286644E+03 F= -.41321491E+03 E0= -.41319391E+03  EK= 0.34847E+00 SP= 0.00E+00 SK= 0.00E+00
       N       E                     dE             d eps       ncg     rms          rms(c)
RMM:   1    -0.413242285700E+03   -0.27372E-01   -0.12066E+01  4311   0.144E+00    0.945E-01
RMM:   2    -0.413219047836E+03    0.23238E-01   -0.19486E-01  4296   0.170E-01    0.700E-01
RMM:   3    -0.413222105959E+03   -0.30581E-02   -0.13639E-02  5077   0.896E-02    0.389E-01
RMM:   4    -0.413253465864E+03   -0.31360E-01   -0.54075E-02  5065   0.197E-01    0.804E-01
RMM:   5    -0.413216064229E+03    0.37402E-01   -0.16328E-02  4713   0.136E-01    0.600E-02
RMM:   6    -0.413216086651E+03   -0.22421E-04   -0.27676E-03  5711   0.504E-02    0.308E-02
RMM:   7    -0.413216090628E+03   -0.39773E-05   -0.37963E-04  5853   0.177E-02    0.215E-02
RMM:   8    -0.413216086371E+03    0.42564E-05   -0.98144E-05  5173   0.100E-02    0.109E-02
RMM:   9    -0.413216075611E+03    0.10760E-04   -0.21324E-05  4424   0.564E-03    0.415E-03
RMM:  10    -0.413216073015E+03    0.25966E-05   -0.39033E-06  2765   0.248E-03    0.244E-03
RMM:  11    -0.413216069205E+03    0.38099E-05   -0.15934E-06  2530   0.192E-03    0.142E-03
RMM:  12    -0.413216065763E+03    0.34421E-05   -0.63282E-07  2454   0.139E-03    0.631E-04
RMM:  13    -0.413216063384E+03    0.23786E-05   -0.32147E-07  1800   0.933E-04    0.279E-04
RMM:  14    -0.413216061004E+03    0.23805E-05   -0.20445E-07  1440   0.779E-04    0.149E-04
RMM:  15    -0.413216058052E+03    0.29519E-05   -0.15553E-07  1327   0.723E-04    0.922E-05
RMM:  16    -0.413216056178E+03    0.18739E-05   -0.10129E-07  1172   0.664E-04    0.669E-05
RMM:  17    -0.413216053865E+03    0.23124E-05   -0.85057E-08  1230   0.647E-04    0.508E-05
RMM:  18    -0.413216051929E+03    0.19368E-05   -0.58713E-08  1061   0.598E-04    0.380E-05
RMM:  19    -0.413216051115E+03    0.81378E-06   -0.34987E-08   857   0.559E-04
   44 T=    71. E= -.41286614E+03 F= -.41321605E+03 E0= -.41319508E+03  EK= 0.34991E+00 SP= 0.00E+00 SK= 0.00E+00
       N       E                     dE             d eps       ncg     rms          rms(c)
RMM:   1    -0.413227762848E+03   -0.11711E-01   -0.11907E+01  4308   0.145E+00    0.973E-01
RMM:   2    -0.413219954494E+03    0.78084E-02   -0.16978E-01  4324   0.172E-01    0.692E-01
RMM:   3    -0.413228406844E+03   -0.84524E-02   -0.19066E-02  5129   0.110E-01    0.475E-01
RMM:   4    -0.413238458469E+03   -0.10052E-01   -0.42178E-02  5034   0.178E-01    0.609E-01
RMM:   5    -0.413217673223E+03    0.20785E-01   -0.78294E-03  4616   0.103E-01    0.532E-02
RMM:   6    -0.413217641070E+03    0.32153E-04   -0.15563E-03  5531   0.382E-02    0.291E-02
RMM:   7    -0.413217636845E+03    0.42247E-05   -0.24506E-04  5634   0.152E-02    0.199E-02
RMM:   8    -0.413217628137E+03    0.87088E-05   -0.97420E-05  5069   0.102E-02    0.935E-03
RMM:   9    -0.413217614585E+03    0.13552E-04   -0.14829E-05  4194   0.517E-03    0.378E-03
RMM:  10    -0.413217610782E+03    0.38025E-05   -0.24679E-06  2668   0.216E-03    0.217E-03
RMM:  11    -0.413217603881E+03    0.69010E-05   -0.11073E-06  2482   0.171E-03    0.122E-03
RMM:  12    -0.413217597929E+03    0.59519E-05   -0.51605E-07  2400   0.126E-03    0.582E-04
RMM:  13    -0.413217594311E+03    0.36181E-05   -0.23961E-07  1732   0.848E-04    0.286E-04
RMM:  14    -0.413217590680E+03    0.36314E-05   -0.13687E-07  1268   0.695E-04    0.147E-04
RMM:  15    -0.413217585378E+03    0.53011E-05   -0.11566E-07  1249   0.682E-04    0.118E-04
RMM:  16    -0.413217582855E+03    0.25231E-05   -0.71355E-08  1081   0.624E-04    0.101E-04
RMM:  17    -0.413217578852E+03    0.40033E-05   -0.66404E-08  1212   0.629E-04    0.597E-05
RMM:  18    -0.413217575846E+03    0.30061E-05   -0.48715E-08  1090   0.585E-04    0.443E-05
RMM:  19    -0.413217575162E+03    0.68356E-06   -0.24734E-08   799   0.525E-04
   45 T=    71. E= -.41286645E+03 F= -.41321758E+03 E0= -.41319662E+03  EK= 0.35113E+00 SP= 0.00E+00 SK= 0.00E+00
       N       E                     dE             d eps       ncg     rms          rms(c)
RMM:   1    -0.413245450225E+03   -0.27874E-01   -0.11969E+01  4309   0.161E+00    0.956E-01
RMM:   2    -0.413219975750E+03    0.25474E-01   -0.17668E-01  4339   0.186E-01    0.688E-01
RMM:   3    -0.413230962403E+03   -0.10987E-01   -0.20993E-02  5128   0.120E-01    0.527E-01
RMM:   4    -0.413234906060E+03   -0.39437E-02   -0.40811E-02  5013   0.177E-01    0.561E-01
RMM:   5    -0.413217649879E+03    0.17256E-01   -0.64059E-03  4580   0.973E-02    0.528E-02
RMM:   6    -0.413217597437E+03    0.52441E-04   -0.12262E-03  5366   0.347E-02    0.282E-02
RMM:   7    -0.413217592269E+03    0.51684E-05   -0.19866E-04  5604   0.138E-02    0.189E-02
RMM:   8    -0.413217584169E+03    0.80997E-05   -0.10742E-04  5094   0.106E-02    0.978E-03
RMM:   9    -0.413217569733E+03    0.14436E-04   -0.15889E-05  4292   0.543E-03    0.386E-03
RMM:  10    -0.413217566629E+03    0.31046E-05   -0.26091E-06  2680   0.218E-03    0.220E-03
RMM:  11    -0.413217560309E+03    0.63195E-05   -0.12242E-06  2490   0.178E-03    0.122E-03
RMM:  12    -0.413217555638E+03    0.46715E-05   -0.52885E-07  2407   0.129E-03    0.657E-04
RMM:  13    -0.413217552045E+03    0.35928E-05   -0.24494E-07  1741   0.866E-04    0.323E-04
RMM:  14    -0.413217548605E+03    0.34402E-05   -0.13142E-07  1275   0.688E-04    0.164E-04
RMM:  15    -0.413217544312E+03    0.42931E-05   -0.10194E-07  1169   0.660E-04    0.112E-04
RMM:  16    -0.413217541944E+03    0.23679E-05   -0.64092E-08  1044   0.612E-04    0.103E-04
RMM:  17    -0.413217538992E+03    0.29522E-05   -0.54283E-08  1075   0.603E-04    0.590E-05
RMM:  18    -0.413217535601E+03    0.33906E-05   -0.50625E-08  1098   0.594E-04    0.486E-05
RMM:  19    -0.413217534992E+03    0.60880E-06   -0.17938E-08   696   0.516E-04
   46 T=    72. E= -.41286623E+03 F= -.41321753E+03 E0= -.41319660E+03  EK= 0.35130E+00 SP= 0.00E+00 SK= 0.00E+00
       N       E                     dE             d eps       ncg     rms          rms(c)
RMM:   1    -0.413238568305E+03   -0.21033E-01   -0.11907E+01  4309   0.166E+00    0.944E-01
RMM:   2    -0.413219541916E+03    0.19026E-01   -0.18786E-01  4347   0.198E-01    0.701E-01
RMM:   3    -0.413230985504E+03   -0.11444E-01   -0.21465E-02  5128   0.126E-01    0.548E-01
RMM:   4    -0.413235289367E+03   -0.43039E-02   -0.43655E-02  5007   0.183E-01    0.582E-01
RMM:   5    -0.413216606388E+03    0.18683E-01   -0.70430E-03  4583   0.102E-01    0.552E-02
RMM:   6    -0.413216544906E+03    0.61482E-04   -0.13086E-03  5355   0.361E-02    0.287E-02
RMM:   7    -0.413216537356E+03    0.75493E-05   -0.20931E-04  5649   0.141E-02    0.198E-02
RMM:   8    -0.413216528243E+03    0.91130E-05   -0.11071E-04  5133   0.107E-02    0.101E-02
RMM:   9    -0.413216514560E+03    0.13683E-04   -0.17668E-05  4343   0.568E-03    0.396E-03
RMM:  10    -0.413216512376E+03    0.21842E-05   -0.29448E-06  2710   0.225E-03    0.227E-03
RMM:  11    -0.413216507968E+03    0.44079E-05   -0.14001E-06  2504   0.187E-03    0.130E-03
RMM:  12    -0.413216504834E+03    0.31336E-05   -0.57076E-07  2427   0.134E-03    0.700E-04
RMM:  13    -0.413216502071E+03    0.27630E-05   -0.27795E-07  1775   0.915E-04    0.332E-04
RMM:  14    -0.413216499567E+03    0.25045E-05   -0.15801E-07  1366   0.732E-04    0.174E-04
RMM:  15    -0.413216496636E+03    0.29308E-05   -0.11832E-07  1245   0.680E-04    0.108E-04
RMM:  16    -0.413216494808E+03    0.18278E-05   -0.74819E-08  1081   0.620E-04    0.961E-05
RMM:  17    -0.413216492545E+03    0.22629E-05   -0.60562E-08  1065   0.604E-04    0.514E-05
RMM:  18    -0.413216490257E+03    0.22878E-05   -0.51542E-08  1028   0.587E-04    0.433E-05
RMM:  19    -0.413216489802E+03    0.45506E-06   -0.21339E-08   704   0.524E-04
   47 T=    71. E= -.41286613E+03 F= -.41321649E+03 E0= -.41319557E+03  EK= 0.35036E+00 SP= 0.00E+00 SK= 0.00E+00
       N       E                     dE             d eps       ncg     rms          rms(c)
RMM:   1    -0.413256639705E+03   -0.40149E-01   -0.12017E+01  4305   0.183E+00    0.966E-01
RMM:   2    -0.413216910948E+03    0.39729E-01   -0.19451E-01  4417   0.206E-01    0.697E-01
RMM:   3    -0.413235780044E+03   -0.18869E-01   -0.27906E-02  5147   0.145E-01    0.657E-01
RMM:   4    -0.413225679820E+03    0.10100E-01   -0.39998E-02  4970   0.179E-01    0.472E-01
RMM:   5    -0.413214407256E+03    0.11273E-01   -0.48647E-03  4522   0.908E-02    0.565E-02
RMM:   6    -0.413214283054E+03    0.12420E-03   -0.60967E-04  4844   0.293E-02    0.288E-02
RMM:   7    -0.413214270408E+03    0.12646E-04   -0.18040E-04  5927   0.135E-02    0.150E-02
RMM:   8    -0.413214262472E+03    0.79357E-05   -0.97663E-05  5198   0.109E-02    0.127E-02
RMM:   9    -0.413214250028E+03    0.12444E-04   -0.21220E-05  4535   0.573E-03    0.463E-03
RMM:  10    -0.413214246353E+03    0.36751E-05   -0.34126E-06  2727   0.278E-03    0.231E-03
RMM:  11    -0.413214240971E+03    0.53822E-05   -0.21412E-06  2530   0.231E-03    0.153E-03
RMM:  12    -0.413214236451E+03    0.45203E-05   -0.79832E-07  2415   0.162E-03    0.933E-04
RMM:  13    -0.413214232862E+03    0.35885E-05   -0.34370E-07  2186   0.104E-03    0.583E-04
RMM:  14    -0.413214227243E+03    0.56188E-05   -0.21737E-07  1838   0.839E-04    0.366E-04
RMM:  15    -0.413214223334E+03    0.39093E-05   -0.11292E-07  1206   0.642E-04    0.185E-04
RMM:  16    -0.413214221225E+03    0.21092E-05   -0.69000E-08   985   0.578E-04    0.940E-05
RMM:  17    -0.413214217709E+03    0.35160E-05   -0.66537E-08  1046   0.595E-04    0.844E-05
RMM:  18    -0.413214216079E+03    0.16301E-05   -0.33760E-08   825   0.560E-04    0.593E-05
RMM:  19    -0.413214215150E+03    0.92877E-06   -0.20233E-08   727   0.541E-04
   48 T=    71. E= -.41286632E+03 F= -.41321422E+03 E0= -.41319331E+03  EK= 0.34790E+00 SP= 0.00E+00 SK= 0.00E+00
       N       E                     dE             d eps       ncg     rms          rms(c)
RMM:   1    -0.413256588283E+03   -0.42372E-01   -0.11818E+01  4305   0.195E+00    0.956E-01
RMM:   2    -0.413211951964E+03    0.44636E-01   -0.18926E-01  4478   0.216E-01    0.685E-01
RMM:   3    -0.413238054599E+03   -0.26103E-01   -0.34219E-02  5159   0.163E-01    0.746E-01
RMM:   4    -0.413217072913E+03    0.20982E-01   -0.39256E-02  4946   0.180E-01    0.400E-01
RMM:   5    -0.413209643496E+03    0.74294E-02   -0.45524E-03  4643   0.895E-02    0.643E-02
RMM:   6    -0.413209444700E+03    0.19880E-03   -0.46467E-04  4665   0.297E-02    0.319E-02
RMM:   7    -0.413209444003E+03    0.69740E-06   -0.22336E-04  5759   0.158E-02    0.228E-02
RMM:   8    -0.413209413680E+03    0.30323E-04   -0.77305E-05  4971   0.100E-02    0.892E-03
RMM:   9    -0.413209404567E+03    0.91126E-05   -0.14911E-05  4119   0.494E-03    0.431E-03
RMM:  10    -0.413209399837E+03    0.47296E-05   -0.21685E-06  2602   0.229E-03    0.251E-03
RMM:  11    -0.413209392981E+03    0.68567E-05   -0.96121E-07  2489   0.164E-03    0.153E-03
RMM:  12    -0.413209389246E+03    0.37351E-05   -0.35614E-07  2299   0.108E-03    0.766E-04
RMM:  13    -0.413209383562E+03    0.56838E-05   -0.31713E-07  1972   0.929E-04    0.395E-04
RMM:  14    -0.413209379095E+03    0.44666E-05   -0.18333E-07  1495   0.751E-04    0.305E-04
RMM:  15    -0.413209374653E+03    0.44426E-05   -0.12670E-07  1185   0.669E-04    0.128E-04
RMM:  16    -0.413209371951E+03    0.27016E-05   -0.82794E-08  1165   0.628E-04    0.934E-05
RMM:  17    -0.413209368587E+03    0.33645E-05   -0.70982E-08  1223   0.617E-04    0.808E-05
RMM:  18    -0.413209367452E+03    0.11342E-05   -0.36165E-08   901   0.539E-04    0.602E-05
RMM:  19    -0.413209365513E+03    0.19394E-05   -0.34968E-08   968   0.547E-04    0.330E-05
RMM:  20    -0.413209364945E+03    0.56759E-06   -0.20380E-08   795   0.510E-04
   49 T=    70. E= -.41286602E+03 F= -.41320936E+03 E0= -.41318848E+03  EK= 0.34335E+00 SP= 0.00E+00 SK= 0.00E+00
       N       E                     dE             d eps       ncg     rms          rms(c)
RMM:   1    -0.413228934517E+03   -0.19569E-01   -0.11374E+01  4305   0.196E+00    0.925E-01
RMM:   2    -0.413206441245E+03    0.22493E-01   -0.18794E-01  4497   0.227E-01    0.689E-01
RMM:   3    -0.413232212579E+03   -0.25771E-01   -0.33880E-02  5161   0.165E-01    0.751E-01
RMM:   4    -0.413211404974E+03    0.20808E-01   -0.40361E-02  4942   0.183E-01    0.406E-01
[...]
RMM:  12    -0.413165093888E+03   -0.23329E-05   -0.86290E-07  2442   0.142E-03    0.521E-04
RMM:  13    -0.413165095055E+03   -0.11671E-05   -0.43091E-07  2138   0.105E-03    0.327E-04
RMM:  14    -0.413165095907E+03   -0.85169E-06   -0.24397E-07  1678   0.834E-04
  139 T=    61. E= -.41286656E+03 F= -.41316510E+03 E0= -.41314436E+03  EK= 0.29854E+00 SP= 0.00E+00 SK= 0.00E+00
       N       E                     dE             d eps       ncg     rms          rms(c)
RMM:   1    -0.413161354627E+03    0.37404E-02   -0.86108E+00  4268   0.839E-01    0.830E-01
RMM:   2    -0.413167450494E+03   -0.60959E-02   -0.10618E-01  4356   0.940E-02    0.603E-01
RMM:   3    -0.413165006092E+03    0.24444E-02   -0.11299E-02  5016   0.487E-02    0.131E-01
RMM:   4    -0.413196769203E+03   -0.31763E-01   -0.34729E-02  5138   0.155E-01    0.744E-01
RMM:   5    -0.413164378067E+03    0.32391E-01   -0.15831E-02  4806   0.125E-01    0.538E-02
RMM:   6    -0.413164393918E+03   -0.15851E-04   -0.26504E-03  5714   0.496E-02    0.294E-02
RMM:   7    -0.413164421880E+03   -0.27962E-04   -0.39941E-04  5922   0.176E-02    0.183E-02
RMM:   8    -0.413164428303E+03   -0.64224E-05   -0.80056E-05  5243   0.952E-03    0.906E-03
RMM:   9    -0.413164430060E+03   -0.17571E-05   -0.10814E-05  3417   0.385E-03    0.431E-03
RMM:  10    -0.413164434934E+03   -0.48740E-05   -0.26071E-06  2628   0.227E-03    0.286E-03
RMM:  11    -0.413164439952E+03   -0.50180E-05   -0.13245E-06  2507   0.177E-03    0.147E-03
RMM:  12    -0.413164444407E+03   -0.44556E-05   -0.92194E-07  2457   0.145E-03    0.527E-04
RMM:  13    -0.413164446588E+03   -0.21808E-05   -0.44382E-07  2132   0.105E-03    0.348E-04
RMM:  14    -0.413164448141E+03   -0.15528E-05   -0.24950E-07  1667   0.835E-04    0.222E-04
RMM:  15    -0.413164450404E+03   -0.22625E-05   -0.22210E-07  1671   0.796E-04    0.134E-04
RMM:  16    -0.413164452288E+03   -0.18846E-05   -0.16293E-07  1488   0.711E-04    0.117E-04
RMM:  17    -0.413164453235E+03   -0.94735E-06   -0.93802E-08  1179   0.615E-04
  140 T=    61. E= -.41286645E+03 F= -.41316445E+03 E0= -.41314373E+03  EK= 0.29800E+00 SP= 0.00E+00 SK= 0.00E+00
       N       E                     dE             d eps       ncg     rms          rms(c)
RMM:   1    -0.413162425600E+03    0.20267E-02   -0.82854E+00  4265   0.811E-01    0.828E-01
RMM:   2    -0.413168193488E+03   -0.57679E-02   -0.10332E-01  4355   0.921E-02    0.614E-01
RMM:   3    -0.413165074212E+03    0.31193E-02   -0.14376E-02  5027   0.506E-02    0.123E-01
RMM:   4    -0.413195390493E+03   -0.30316E-01   -0.33535E-02  5131   0.153E-01    0.728E-01
RMM:   5    -0.413164368619E+03    0.31022E-01   -0.15026E-02  4802   0.121E-01    0.533E-02
RMM:   6    -0.413164382758E+03   -0.14139E-04   -0.25397E-03  5706   0.484E-02    0.297E-02
RMM:   7    -0.413164411885E+03   -0.29127E-04   -0.39333E-04  5900   0.174E-02    0.183E-02
RMM:   8    -0.413164420899E+03   -0.90140E-05   -0.75392E-05  5242   0.914E-03    0.904E-03
RMM:   9    -0.413164424611E+03   -0.37119E-05   -0.96855E-06  3374   0.370E-03    0.440E-03
RMM:  10    -0.413164431950E+03   -0.73387E-05   -0.24992E-06  2615   0.224E-03    0.290E-03
RMM:  11    -0.413164439209E+03   -0.72598E-05   -0.12646E-06  2508   0.173E-03    0.148E-03
RMM:  12    -0.413164446323E+03   -0.71138E-05   -0.95782E-07  2458   0.145E-03    0.550E-04
RMM:  13    -0.413164449750E+03   -0.34265E-05   -0.45485E-07  2131   0.106E-03    0.371E-04
RMM:  14    -0.413164451934E+03   -0.21844E-05   -0.24237E-07  1646   0.826E-04    0.233E-04
RMM:  15    -0.413164455359E+03   -0.34251E-05   -0.21903E-07  1622   0.793E-04    0.147E-04
RMM:  16    -0.413164458213E+03   -0.28542E-05   -0.16511E-07  1534   0.719E-04    0.134E-04
RMM:  17    -0.413164459269E+03   -0.10557E-05   -0.85455E-08  1122   0.597E-04    0.882E-05
RMM:  18    -0.413164460847E+03   -0.15782E-05   -0.72833E-08  1136   0.594E-04    0.346E-05
RMM:  19    -0.413164461508E+03   -0.66044E-06   -0.40587E-08   892   0.545E-04
  141 T=    61. E= -.41286626E+03 F= -.41316446E+03 E0= -.41314375E+03  EK= 0.29820E+00 SP= 0.00E+00 SK= 0.00E+00
       N       E                     dE             d eps       ncg     rms          rms(c)
RMM:   1    -0.413164471050E+03   -0.10203E-04   -0.78742E+00  4265   0.800E-01    0.845E-01
RMM:   2    -0.413168091683E+03   -0.36206E-02   -0.98430E-02  4350   0.908E-02    0.613E-01
RMM:   3    -0.413164808940E+03    0.32827E-02   -0.16432E-02  4987   0.501E-02    0.112E-01
RMM:   4    -0.413190884406E+03   -0.26075E-01   -0.28359E-02  5131   0.141E-01    0.677E-01
RMM:   5    -0.413164253864E+03    0.26631E-01   -0.13028E-02  4809   0.113E-01    0.518E-02
RMM:   6    -0.413164266486E+03   -0.12622E-04   -0.22151E-03  5716   0.456E-02    0.319E-02
RMM:   7    -0.413164282933E+03   -0.16447E-04   -0.37558E-04  5803   0.175E-02    0.189E-02
RMM:   8    -0.413164284978E+03   -0.20449E-05   -0.67905E-05  5231   0.896E-03    0.919E-03
RMM:   9    -0.413164285658E+03   -0.67959E-06   -0.86495E-06  3275   0.353E-03
  142 T=    61. E= -.41286645E+03 F= -.41316429E+03 E0= -.41314358E+03  EK= 0.29784E+00 SP= 0.00E+00 SK= 0.00E+00
       N       E                     dE             d eps       ncg     rms          rms(c)
RMM:   1    -0.413164540058E+03   -0.25508E-03   -0.74148E+00  4267   0.779E-01    0.837E-01
RMM:   2    -0.413167482461E+03   -0.29424E-02   -0.93648E-02  4363   0.894E-02    0.610E-01
RMM:   3    -0.413166209141E+03    0.12733E-02   -0.21125E-02  5109   0.703E-02    0.235E-01
RMM:   4    -0.413191031033E+03   -0.24822E-01   -0.37307E-02  5091   0.164E-01    0.690E-01
RMM:   5    -0.413163303351E+03    0.27728E-01   -0.12254E-02  4770   0.116E-01    0.611E-02
RMM:   6    -0.413163223205E+03    0.80146E-04   -0.21444E-03  5511   0.461E-02    0.305E-02
RMM:   7    -0.413163260652E+03   -0.37447E-04   -0.39142E-04  5993   0.180E-02    0.201E-02
RMM:   8    -0.413163265300E+03   -0.46476E-05   -0.80980E-05  5308   0.982E-03    0.945E-03
RMM:   9    -0.413163268452E+03   -0.31524E-05   -0.11575E-05  3860   0.421E-03    0.419E-03
RMM:  10    -0.413163272565E+03   -0.41125E-05   -0.20009E-06  2582   0.215E-03    0.274E-03
RMM:  11    -0.413163279772E+03   -0.72070E-05   -0.16638E-06  2532   0.194E-03    0.159E-03
RMM:  12    -0.413163284631E+03   -0.48591E-05   -0.90049E-07  2489   0.145E-03    0.666E-04
RMM:  13    -0.413163287469E+03   -0.28381E-05   -0.45251E-07  2125   0.104E-03    0.371E-04
RMM:  14    -0.413163289966E+03   -0.24972E-05   -0.28260E-07  1711   0.851E-04    0.242E-04
RMM:  15    -0.413163293433E+03   -0.34668E-05   -0.29796E-07  1778   0.837E-04    0.193E-04
RMM:  16    -0.413163295378E+03   -0.19449E-05   -0.14932E-07  1382   0.676E-04    0.117E-04
RMM:  17    -0.413163297613E+03   -0.22348E-05   -0.12999E-07  1365   0.668E-04    0.868E-05
RMM:  18    -0.413163298622E+03   -0.10092E-05   -0.65129E-08  1044   0.574E-04    0.734E-05
RMM:  19    -0.413163299638E+03   -0.10162E-05   -0.42077E-08   929   0.548E-04    0.427E-05
RMM:  20    -0.413163300063E+03   -0.42491E-06   -0.25163E-08   791   0.521E-04
  143 T=    61. E= -.41286613E+03 F= -.41316330E+03 E0= -.41314261E+03  EK= 0.29717E+00 SP= 0.00E+00 SK= 0.00E+00
       N       E                     dE             d eps       ncg     rms          rms(c)
RMM:   1    -0.413166312678E+03   -0.30130E-02   -0.70696E+00  4265   0.760E-01    0.833E-01
RMM:   2    -0.413168400346E+03   -0.20877E-02   -0.89662E-02  4345   0.876E-02    0.617E-01
RMM:   3    -0.413164335012E+03    0.40653E-02   -0.25472E-02  4898   0.566E-02    0.137E-01
RMM:   4    -0.413181685458E+03   -0.17350E-01   -0.19133E-02  5128   0.117E-01    0.561E-01
RMM:   5    -0.413163634761E+03    0.18051E-01   -0.88271E-03  4814   0.935E-02    0.466E-02
RMM:   6    -0.413163645856E+03   -0.11094E-04   -0.15931E-03  5687   0.392E-02    0.307E-02
RMM:   7    -0.413163666062E+03   -0.20206E-04   -0.30577E-04  5611   0.164E-02    0.177E-02
RMM:   8    -0.413163672105E+03   -0.60433E-05   -0.49273E-05  5144   0.795E-03    0.833E-03
RMM:   9    -0.413163675956E+03   -0.38513E-05   -0.69097E-06  3086   0.309E-03    0.446E-03
RMM:  10    -0.413163684458E+03   -0.85020E-05   -0.18580E-06  2552   0.208E-03    0.266E-03
RMM:  11    -0.413163691489E+03   -0.70308E-05   -0.10543E-06  2493   0.157E-03    0.132E-03
RMM:  12    -0.413163699016E+03   -0.75265E-05   -0.95134E-07  2462   0.139E-03    0.636E-04
RMM:  13    -0.413163702904E+03   -0.38880E-05   -0.43971E-07  2107   0.102E-03    0.381E-04
RMM:  14    -0.413163705169E+03   -0.22648E-05   -0.22060E-07  1544   0.789E-04    0.238E-04
RMM:  15    -0.413163708879E+03   -0.37106E-05   -0.21543E-07  1636   0.782E-04    0.186E-04
RMM:  16    -0.413163712353E+03   -0.34734E-05   -0.17154E-07  1535   0.716E-04    0.166E-04
RMM:  17    -0.413163713058E+03   -0.70550E-06   -0.68806E-08   995   0.561E-04
  144 T=    61. E= -.41286632E+03 F= -.41316371E+03 E0= -.41314303E+03  EK= 0.29739E+00 SP= 0.00E+00 SK= 0.00E+00
       N       E                     dE             d eps       ncg     rms          rms(c)
RMM:   1    -0.413167972323E+03   -0.42600E-02   -0.66788E+00  4265   0.741E-01    0.849E-01
RMM:   2    -0.413168382250E+03   -0.40993E-03   -0.85225E-02  4347   0.854E-02    0.619E-01
RMM:   3    -0.413164129762E+03    0.42525E-02   -0.28739E-02  4852   0.561E-02    0.141E-01
RMM:   4    -0.413177416369E+03   -0.13287E-01   -0.14809E-02  5123   0.104E-01    0.495E-01
RMM:   5    -0.413163449898E+03    0.13966E-01   -0.69277E-03  4820   0.825E-02    0.443E-02
RMM:   6    -0.413163459507E+03   -0.96094E-05   -0.13026E-03  5642   0.357E-02    0.311E-02
RMM:   7    -0.413163464733E+03   -0.52256E-05   -0.27290E-04  5557   0.155E-02    0.174E-02
RMM:   8    -0.413163467879E+03   -0.31459E-05   -0.41481E-05  5095   0.721E-03    0.809E-03
RMM:   9    -0.413163470533E+03   -0.26542E-05   -0.56365E-06  2966   0.286E-03    0.430E-03
RMM:  10    -0.413163476836E+03   -0.63034E-05   -0.16793E-06  2534   0.200E-03    0.249E-03
RMM:  11    -0.413163481833E+03   -0.49961E-05   -0.99523E-07  2491   0.150E-03    0.123E-03
RMM:  12    -0.413163486942E+03   -0.51091E-05   -0.84331E-07  2427   0.131E-03    0.610E-04
RMM:  13    -0.413163489996E+03   -0.30547E-05   -0.42160E-07  2066   0.984E-04    0.357E-04
RMM:  14    -0.413163491854E+03   -0.18581E-05   -0.20751E-07  1492   0.770E-04    0.226E-04
RMM:  15    -0.413163494734E+03   -0.28796E-05   -0.20518E-07  1637   0.762E-04    0.180E-04
RMM:  16    -0.413163497697E+03   -0.29633E-05   -0.17533E-07  1506   0.708E-04    0.154E-04
RMM:  17    -0.413163498314E+03   -0.61626E-06   -0.63174E-08   973   0.553E-04
  145 T=    60. E= -.41286645E+03 F= -.41316350E+03 E0= -.41314282E+03  EK= 0.29705E+00 SP= 0.00E+00 SK= 0.00E+00
       N       E                     dE             d eps       ncg     rms          rms(c)
RMM:   1    -0.413168473233E+03   -0.49755E-02   -0.62819E+00  4265   0.723E-01    0.853E-01
RMM:   2    -0.413167733809E+03    0.73942E-03   -0.81039E-02  4350   0.835E-02    0.616E-01
RMM:   3    -0.413163219831E+03    0.45140E-02   -0.32230E-02  4803   0.567E-02    0.148E-01
RMM:   4    -0.413172187116E+03   -0.89673E-02   -0.10409E-02  5131   0.879E-02    0.414E-01
RMM:   5    -0.413162520403E+03    0.96667E-02   -0.48429E-03  4815   0.693E-02    0.415E-02
RMM:   6    -0.413162538016E+03   -0.17613E-04   -0.98338E-04  5612   0.315E-02    0.306E-02
RMM:   7    -0.413162533260E+03    0.47562E-05   -0.23170E-04  5447   0.147E-02    0.168E-02
RMM:   8    -0.413162533215E+03    0.44973E-07   -0.33912E-05  4940   0.664E-03    0.750E-03
RMM:   9    -0.413162535265E+03   -0.20493E-05   -0.50034E-06  2852   0.266E-03    0.391E-03
RMM:  10    -0.413162539981E+03   -0.47160E-05   -0.15327E-06  2525   0.189E-03    0.222E-03
RMM:  11    -0.413162543744E+03   -0.37636E-05   -0.94488E-07  2465   0.143E-03    0.108E-03
RMM:  12    -0.413162547379E+03   -0.36349E-05   -0.77254E-07  2385   0.123E-03    0.533E-04
RMM:  13    -0.413162549798E+03   -0.24188E-05   -0.40506E-07  1996   0.938E-04    0.322E-04
RMM:  14    -0.413162551537E+03   -0.17392E-05   -0.21503E-07  1419   0.759E-04    0.210E-04
RMM:  15    -0.413162554017E+03   -0.24799E-05   -0.22061E-07  1589   0.764E-04    0.167E-04
RMM:  16    -0.413162556494E+03   -0.24769E-05   -0.18691E-07  1512   0.711E-04    0.139E-04
RMM:  17    -0.413162557027E+03   -0.53323E-06   -0.65014E-08   964   0.546E-04
  146 T=    60. E= -.41286628E+03 F= -.41316256E+03 E0= -.41314189E+03  EK= 0.29628E+00 SP= 0.00E+00 SK= 0.00E+00
       N       E                     dE             d eps       ncg     rms          rms(c)
RMM:   1    -0.413169836186E+03   -0.72797E-02   -0.59938E+00  4265   0.712E-01    0.844E-01
RMM:   2    -0.413168552346E+03    0.12838E-02   -0.77127E-02  4345   0.843E-02    0.617E-01
RMM:   3    -0.413163923552E+03    0.46288E-02   -0.39287E-02  4732   0.601E-02    0.201E-01
RMM:   4    -0.413168650702E+03   -0.47272E-02   -0.71546E-03  5128   0.720E-02    0.321E-01
RMM:   5    -0.413162905857E+03    0.57448E-02   -0.29094E-03  4816   0.543E-02    0.380E-02
RMM:   6    -0.413162921390E+03   -0.15533E-04   -0.65194E-04  5552   0.260E-02    0.278E-02
RMM:   7    -0.413162935979E+03   -0.14589E-04   -0.17781E-04  5314   0.127E-02    0.156E-02
RMM:   8    -0.413162940496E+03   -0.45173E-05   -0.25925E-05  4676   0.576E-03    0.635E-03
RMM:   9    -0.413162944979E+03   -0.44828E-05   -0.43395E-06  2723   0.241E-03    0.331E-03
RMM:  10    -0.413162953630E+03   -0.86505E-05   -0.13111E-06  2519   0.170E-03    0.187E-03
RMM:  11    -0.413162961232E+03   -0.76023E-05   -0.93404E-07  2426   0.131E-03    0.846E-04
RMM:  12    -0.413162967695E+03   -0.64632E-05   -0.63365E-07  2208   0.109E-03    0.418E-04
RMM:  13    -0.413162972117E+03   -0.44214E-05   -0.36124E-07  1860   0.872E-04    0.273E-04
RMM:  14    -0.413162976107E+03   -0.39909E-05   -0.26392E-07  1520   0.770E-04    0.186E-04
RMM:  15    -0.413162979909E+03   -0.38019E-05   -0.22335E-07  1548   0.741E-04    0.152E-04
RMM:  16    -0.413162983108E+03   -0.31983E-05   -0.15869E-07  1374   0.682E-04    0.106E-04
RMM:  17    -0.413162983931E+03   -0.82333E-06   -0.64167E-08   995   0.551E-04
  147 T=    60. E= -.41286642E+03 F= -.41316298E+03 E0= -.41314232E+03  EK= 0.29656E+00 SP= 0.00E+00 SK= 0.00E+00
       N       E                     dE             d eps       ncg     rms          rms(c)
RMM:   1    -0.413170992426E+03   -0.80093E-02   -0.57434E+00  4264   0.697E-01    0.859E-01
RMM:   2    -0.413168454044E+03    0.25384E-02   -0.74209E-02  4344   0.814E-02    0.622E-01
RMM:   3    -0.413163756935E+03    0.46971E-02   -0.43403E-02  4642   0.611E-02    0.216E-01
RMM:   4    -0.413165090727E+03   -0.13338E-02   -0.43133E-03  5107   0.530E-02    0.210E-01
RMM:   5    -0.413162669663E+03    0.24211E-02   -0.12812E-03  4810   0.364E-02    0.358E-02
RMM:   6    -0.413162686957E+03   -0.17294E-04   -0.39400E-04  5443   0.203E-02    0.266E-02
RMM:   7    -0.413162702515E+03   -0.15558E-04   -0.13395E-04  5056   0.110E-02    0.154E-02
RMM:   8    -0.413162705060E+03   -0.25447E-05   -0.19935E-05  4308   0.502E-03    0.539E-03
RMM:   9    -0.413162710038E+03   -0.49781E-05   -0.43774E-06  2624   0.228E-03    0.287E-03
RMM:  10    -0.413162717689E+03   -0.76513E-05   -0.11433E-06  2506   0.152E-03    0.171E-03
RMM:  11    -0.413162725582E+03   -0.78925E-05   -0.10810E-06  2341   0.124E-03    0.669E-04
RMM:  12    -0.413162730905E+03   -0.53232E-05   -0.51346E-07  2017   0.962E-04    0.337E-04
RMM:  13    -0.413162734943E+03   -0.40386E-05   -0.32586E-07  1658   0.813E-04    0.228E-04
RMM:  14    -0.413162739750E+03   -0.48068E-05   -0.35878E-07  1724   0.818E-04    0.180E-04
RMM:  15    -0.413162743067E+03   -0.33164E-05   -0.20409E-07  1407   0.693E-04    0.120E-04
RMM:  16    -0.413162745930E+03   -0.28634E-05   -0.14987E-07  1324   0.657E-04    0.802E-05
RMM:  17    -0.413162746526E+03   -0.59544E-06   -0.55684E-08   916   0.526E-04
  148 T=    60. E= -.41286622E+03 F= -.41316275E+03 E0= -.41314208E+03  EK= 0.29652E+00 SP= 0.00E+00 SK= 0.00E+00
       N       E                     dE             d eps       ncg     rms          rms(c)
RMM:   1    -0.413171497112E+03   -0.87512E-02   -0.54749E+00  4264   0.684E-01    0.872E-01
RMM:   2    -0.413167794019E+03    0.37031E-02   -0.71812E-02  4343   0.800E-02    0.620E-01
RMM:   3    -0.413162965629E+03    0.48284E-02   -0.44340E-02  4583   0.597E-02    0.201E-01
RMM:   4    -0.413162353621E+03    0.61201E-03   -0.23503E-03  5016   0.346E-02    0.936E-02
RMM:   5    -0.413161936266E+03    0.41736E-03   -0.33232E-04  4871   0.182E-02    0.357E-02
RMM:   6    -0.413161943314E+03   -0.70481E-05   -0.23427E-04  5219   0.155E-02    0.260E-02
RMM:   7    -0.413161954022E+03   -0.10709E-04   -0.10980E-04  4669   0.101E-02    0.163E-02
RMM:   8    -0.413161953413E+03    0.60922E-06   -0.16009E-05  3723   0.425E-03    0.488E-03
RMM:   9    -0.413161958092E+03   -0.46785E-05   -0.64396E-06  2564   0.241E-03    0.313E-03
RMM:  10    -0.413161961870E+03   -0.37782E-05   -0.12419E-06  2474   0.154E-03    0.224E-03
RMM:  11    -0.413161966150E+03   -0.42801E-05   -0.14539E-06  2304   0.124E-03    0.583E-04
RMM:  12    -0.413161969034E+03   -0.28841E-05   -0.44319E-07  1697   0.855E-04    0.345E-04
RMM:  13    -0.413161972624E+03   -0.35900E-05   -0.42565E-07  1829   0.863E-04    0.247E-04
RMM:  14    -0.413161974702E+03   -0.20781E-05   -0.19229E-07  1318   0.650E-04    0.152E-04
RMM:  15    -0.413161977816E+03   -0.31134E-05   -0.26491E-07  1468   0.734E-04    0.964E-05
RMM:  16    -0.413161978930E+03   -0.11140E-05   -0.81398E-08  1028   0.565E-04    0.655E-05
RMM:  17    -0.413161979973E+03   -0.10436E-05   -0.46576E-08   888   0.525E-04    0.421E-05
RMM:  18    -0.413161981701E+03   -0.17282E-05   -0.45361E-08   969   0.535E-04    0.254E-05
RMM:  19    -0.413161982165E+03   -0.46417E-06   -0.17022E-08   705   0.475E-04
  149 T=    60. E= -.41286620E+03 F= -.41316198E+03 E0= -.41314132E+03  EK= 0.29578E+00 SP= 0.00E+00 SK= 0.00E+00
       N       E                     dE             d eps       ncg     rms          rms(c)
RMM:   1    -0.413171954903E+03   -0.99732E-02   -0.53071E+00  4265   0.682E-01    0.856E-01
RMM:   2    -0.413168333507E+03    0.36214E-02   -0.69305E-02  4341   0.796E-02    0.617E-01
RMM:   3    -0.413163563985E+03    0.47695E-02   -0.49170E-02  4564   0.607E-02    0.243E-01
RMM:   4    -0.413162688102E+03    0.87588E-03   -0.34271E-03  5044   0.361E-02    0.977E-02
RMM:   5    -0.413162231309E+03    0.45679E-03   -0.37036E-04  4846   0.191E-02    0.333E-02
RMM:   6    -0.413162238786E+03   -0.74774E-05   -0.20183E-04  5225   0.145E-02    0.238E-02
RMM:   7    -0.413162267902E+03   -0.29116E-04   -0.98218E-05  4589   0.910E-03    0.148E-02
RMM:   8    -0.413162270373E+03   -0.24712E-05   -0.14237E-05  3540   0.400E-03    0.406E-03
RMM:   9    -0.413162276695E+03   -0.63214E-05   -0.47049E-06  2535   0.226E-03    0.329E-03
RMM:  10    -0.413162283427E+03   -0.67324E-05   -0.12186E-06  2470   0.148E-03    0.215E-03
RMM:  11    -0.413162290929E+03   -0.75021E-05   -0.13827E-06  2246   0.121E-03    0.587E-04
RMM:  12    -0.413162296122E+03   -0.51926E-05   -0.48173E-07  1751   0.876E-04    0.301E-04
RMM:  13    -0.413162301483E+03   -0.53609E-05   -0.45246E-07  1789   0.856E-04    0.222E-04
RMM:  14    -0.413162305037E+03   -0.35539E-05   -0.25468E-07  1401   0.703E-04    0.154E-04
RMM:  15    -0.413162308801E+03   -0.37646E-05   -0.25471E-07  1489   0.727E-04    0.756E-05
RMM:  16    -0.413162310172E+03   -0.13705E-05   -0.85364E-08  1013   0.559E-04    0.550E-05
RMM:  17    -0.413162311301E+03   -0.11298E-05   -0.50454E-08   915   0.519E-04    0.383E-05
RMM:  18    -0.413162312656E+03   -0.13546E-05   -0.42843E-08   915   0.513E-04    0.287E-05
RMM:  19    -0.413162312899E+03   -0.24316E-06   -0.16246E-08   671   0.465E-04
  150 T=    60. E= -.41286653E+03 F= -.41316231E+03 E0= -.41314165E+03  EK= 0.29578E+00 SP= 0.00E+00 SK= 0.00E+00
