       N       E                     dE             d eps       ncg     rms          rms(c)
RMM:   1     0.220130632021E+04    0.22013E+04   -0.52444E+04  2132   0.654E+02
RMM:   2     0.705643247181E+03   -0.14957E+04   -0.16263E+04  2132   0.177E+02
RMM:   3     0.137526366129E+03   -0.56812E+03   -0.65753E+03  2132   0.117E+02
RMM:   4    -0.159180058819E+03   -0.29671E+03   -0.27842E+03  2132   0.936E+01
RMM:   5    -0.287420434536E+03   -0.12824E+03   -0.11454E+03  2132   0.595E+01
RMM:   6    -0.349828739667E+03   -0.62408E+02   -0.55148E+02  2132   0.423E+01
RMM:   7    -0.382606627284E+03   -0.32778E+02   -0.30371E+02  2132   0.293E+01
RMM:   8    -0.404161731080E+03   -0.21555E+02   -0.18439E+02  2132   0.233E+01
RMM:   9    -0.436000053354E+03   -0.31838E+02   -0.30686E+02  6106   0.173E+01
RMM:  10    -0.441320944824E+03   -0.53209E+01   -0.63299E+01  6391   0.541E+00
RMM:  11    -0.442518094661E+03   -0.11971E+01   -0.11091E+01  6214   0.173E+00
RMM:  12    -0.442887313018E+03   -0.36922E+00   -0.25581E+00  6373   0.595E-01    0.134E+02
RMM:  13    -0.425607957751E+03    0.17279E+02   -0.80938E+01  4674   0.119E+01    0.712E+01
RMM:  14    -0.499886211483E+03   -0.74278E+02   -0.54249E+02  5427   0.233E+01    0.307E+01
RMM:  15    -0.415193491642E+03    0.84693E+02   -0.19843E+02  5077   0.163E+01    0.660E+00
RMM:  16    -0.414022470410E+03    0.11710E+01   -0.39203E+01  6077   0.607E+00    0.424E+00
RMM:  17    -0.413220676396E+03    0.80179E+00   -0.24246E+00  5394   0.184E+00    0.245E+00
RMM:  18    -0.413169160162E+03    0.51516E-01   -0.82906E-01  5966   0.934E-01    0.162E+00
RMM:  19    -0.413167360737E+03    0.17994E-02   -0.29074E-01  5727   0.574E-01    0.840E-01
RMM:  20    -0.413181490902E+03   -0.14130E-01   -0.19824E-01  5445   0.483E-01    0.515E-01
RMM:  21    -0.413167549253E+03    0.13942E-01   -0.31352E-02  5034   0.217E-01    0.243E-01
RMM:  22    -0.413165816243E+03    0.17330E-02   -0.14161E-02  6106   0.999E-02    0.140E-01
RMM:  23    -0.413164359969E+03    0.14563E-02   -0.56106E-03  5855   0.683E-02    0.822E-02
RMM:  24    -0.413162953717E+03    0.14063E-02   -0.16910E-03  5419   0.406E-02    0.403E-02
RMM:  25    -0.413162648076E+03    0.30564E-03   -0.87841E-04  5558   0.259E-02    0.330E-02
RMM:  26    -0.413162819976E+03   -0.17190E-03   -0.73593E-04  5836   0.274E-02    0.327E-02
RMM:  27    -0.413163246900E+03   -0.42692E-03   -0.20552E-04  4554   0.200E-02    0.175E-02
RMM:  28    -0.413163711730E+03   -0.46483E-03   -0.18904E-04  5295   0.192E-02    0.933E-03
RMM:  29    -0.413164090938E+03   -0.37921E-03   -0.10877E-04  4372   0.150E-02    0.466E-03
RMM:  30    -0.413164303545E+03   -0.21261E-03   -0.77671E-05  4167   0.984E-03    0.307E-03
RMM:  31    -0.413164414919E+03   -0.11137E-03   -0.50869E-05  3222   0.651E-03    0.302E-03
RMM:  32    -0.413164435746E+03   -0.20827E-04   -0.21064E-05  2951   0.303E-03    0.138E-03
RMM:  33    -0.413164442436E+03   -0.66899E-05   -0.82327E-06  2752   0.203E-03    0.489E-04
RMM:  34    -0.413164443200E+03   -0.76323E-06   -0.44208E-06  2651   0.165E-03
    1 T=    61. E= -.41286665E+03 F= -.41316444E+03 E0= -.41314195E+03  EK= 0.29780E+00 SP= 0.00E+00 SK= 0.00E+00
       N       E                     dE             d eps       ncg     rms          rms(c)
RMM:   1    -0.413165042589E+03   -0.60015E-03   -0.84714E+00  3998   0.593E-01    0.888E-01
RMM:   2    -0.413168962925E+03   -0.39203E-02   -0.10443E-01  3968   0.857E-02    0.654E-01
RMM:   3    -0.413164795564E+03    0.41674E-02   -0.21194E-02  4913   0.544E-02    0.122E-01
RMM:   4    -0.413191846163E+03   -0.27051E-01   -0.30281E-02  5194   0.144E-01    0.689E-01
RMM:   5    -0.413163918152E+03    0.27928E-01   -0.13410E-02  4840   0.116E-01    0.512E-02
RMM:   6    -0.413164107702E+03   -0.18955E-03   -0.24546E-03  5748   0.486E-02    0.345E-02
RMM:   7    -0.413164117709E+03   -0.10007E-04   -0.45177E-04  5787   0.188E-02    0.210E-02
RMM:   8    -0.413164116405E+03    0.13041E-05   -0.52274E-05  5157   0.778E-03    0.865E-03
RMM:   9    -0.413164119144E+03   -0.27389E-05   -0.11001E-05  3548   0.342E-03    0.639E-03
RMM:  10    -0.413164124289E+03   -0.51451E-05   -0.22829E-06  2601   0.219E-03    0.380E-03
RMM:  11    -0.413164128547E+03   -0.42583E-05   -0.12828E-06  2522   0.164E-03    0.203E-03
RMM:  12    -0.413164135038E+03   -0.64906E-05   -0.14898E-06  2542   0.171E-03    0.855E-04
RMM:  13    -0.413164137691E+03   -0.26535E-05   -0.66210E-07  2324   0.120E-03    0.619E-04
RMM:  14    -0.413164137820E+03   -0.12823E-06   -0.35588E-07  1859   0.836E-04
    2 T=    61. E= -.41286639E+03 F= -.41316414E+03 E0= -.41314164E+03  EK= 0.29775E+00 SP= 0.00E+00 SK= 0.00E+00
       N       E                     dE             d eps       ncg     rms          rms(c)
RMM:   1    -0.413165962529E+03   -0.18248E-02   -0.84578E+00  4188   0.598E-01    0.905E-01
RMM:   2    -0.413169188111E+03   -0.32256E-02   -0.10375E-01  3981   0.852E-02    0.650E-01
RMM:   3    -0.413165288101E+03    0.39000E-02   -0.19760E-02  4908   0.506E-02    0.115E-01
RMM:   4    -0.413192727294E+03   -0.27439E-01   -0.29402E-02  5160   0.144E-01    0.694E-01
RMM:   5    -0.413164519107E+03    0.28208E-01   -0.13342E-02  4818   0.115E-01    0.500E-02
RMM:   6    -0.413164722904E+03   -0.20380E-03   -0.24681E-03  5761   0.486E-02    0.357E-02
RMM:   7    -0.413164710412E+03    0.12493E-04   -0.45559E-04  5627   0.203E-02    0.224E-02
RMM:   8    -0.413164699467E+03    0.10944E-04   -0.60268E-05  5135   0.886E-03    0.104E-02
RMM:   9    -0.413164697706E+03    0.17616E-05   -0.12295E-05  3758   0.387E-03    0.764E-03
RMM:  10    -0.413164697917E+03   -0.21077E-06   -0.22467E-06  2601   0.238E-03
    3 T=    61. E= -.41286666E+03 F= -.41316470E+03 E0= -.41314220E+03  EK= 0.29803E+00 SP= 0.00E+00 SK= 0.00E+00
       N       E                     dE             d eps       ncg     rms          rms(c)
RMM:   1    -0.413165370011E+03   -0.67231E-03   -0.83960E+00  4223   0.601E-01    0.891E-01
RMM:   2    -0.413168700377E+03   -0.33304E-02   -0.10338E-01  4230   0.848E-02    0.645E-01
RMM:   3    -0.413171606649E+03   -0.29063E-02   -0.24435E-02  5166   0.903E-02    0.361E-01
RMM:   4    -0.413185217245E+03   -0.13611E-01   -0.37156E-02  5096   0.167E-01    0.596E-01
RMM:   5    -0.413164434915E+03    0.20782E-01   -0.75055E-03  4674   0.976E-02    0.588E-02
RMM:   6    -0.413164434195E+03    0.71986E-06   -0.15386E-03  5398   0.400E-02    0.322E-02
RMM:   7    -0.413164455705E+03   -0.21510E-04   -0.32263E-04  5942   0.168E-02    0.191E-02
RMM:   8    -0.413164449887E+03    0.58177E-05   -0.56566E-05  5115   0.893E-03    0.768E-03
RMM:   9    -0.413164448279E+03    0.16076E-05   -0.72287E-06  3292   0.349E-03    0.391E-03
RMM:  10    -0.413164449300E+03   -0.10201E-05   -0.15511E-06  2536   0.210E-03    0.246E-03
RMM:  11    -0.413164450829E+03   -0.15296E-05   -0.12539E-06  2531   0.175E-03    0.138E-03
RMM:  12    -0.413164451697E+03   -0.86793E-06   -0.74966E-07  2481   0.137E-03
    4 T=    61. E= -.41286638E+03 F= -.41316445E+03 E0= -.41314196E+03  EK= 0.29807E+00 SP= 0.00E+00 SK= 0.00E+00
       N       E                     dE             d eps       ncg     rms          rms(c)
RMM:   1    -0.413165373460E+03   -0.92263E-03   -0.84616E+00  4235   0.606E-01    0.886E-01
RMM:   2    -0.413169156446E+03   -0.37830E-02   -0.10466E-01  4011   0.838E-02    0.653E-01
RMM:   3    -0.413165518662E+03    0.36378E-02   -0.21361E-02  4964   0.547E-02    0.139E-01
RMM:   4    -0.413196602681E+03   -0.31084E-01   -0.34453E-02  5143   0.156E-01    0.740E-01
RMM:   5    -0.413164390452E+03    0.32212E-01   -0.15047E-02  4806   0.123E-01    0.511E-02
RMM:   6    -0.413164600848E+03   -0.21040E-03   -0.26894E-03  5744   0.511E-02    0.348E-02
RMM:   7    -0.413164600613E+03    0.23501E-06   -0.46654E-04  5732   0.201E-02    0.222E-02
RMM:   8    -0.413164596212E+03    0.44009E-05   -0.64559E-05  5160   0.896E-03    0.102E-02
RMM:   9    -0.413164596897E+03   -0.68439E-06   -0.12574E-05  3836   0.402E-03    0.731E-03
RMM:  10    -0.413164600992E+03   -0.40953E-05   -0.21299E-06  2588   0.232E-03    0.442E-03
RMM:  11    -0.413164604288E+03   -0.32956E-05   -0.11983E-06  2529   0.174E-03    0.248E-03
RMM:  12    -0.413164610009E+03   -0.57212E-05   -0.19449E-06  2609   0.201E-03    0.111E-03
RMM:  13    -0.413164612128E+03   -0.21190E-05   -0.66891E-07  2427   0.136E-03    0.835E-04
RMM:  14    -0.413164612026E+03    0.10190E-06   -0.25881E-07  1955   0.879E-04
    5 T=    61. E= -.41286641E+03 F= -.41316461E+03 E0= -.41314214E+03  EK= 0.29821E+00 SP= 0.00E+00 SK= 0.00E+00
       N       E                     dE             d eps       ncg     rms          rms(c)
RMM:   1    -0.413166253962E+03   -0.16418E-02   -0.84614E+00  4246   0.609E-01    0.902E-01
RMM:   2    -0.413169401343E+03   -0.31474E-02   -0.10410E-01  4018   0.830E-02    0.652E-01
RMM:   3    -0.413165636328E+03    0.37650E-02   -0.20012E-02  4899   0.485E-02    0.110E-01
RMM:   4    -0.413191135717E+03   -0.25499E-01   -0.27039E-02  5143   0.137E-01    0.670E-01
RMM:   5    -0.413164931804E+03    0.26204E-01   -0.12398E-02  4809   0.111E-01    0.490E-02
RMM:   6    -0.413165123315E+03   -0.19151E-03   -0.23584E-03  5747   0.467E-02    0.347E-02
RMM:   7    -0.413165116558E+03    0.67573E-05   -0.42582E-04  5606   0.197E-02    0.220E-02
RMM:   8    -0.413165104754E+03    0.11804E-04   -0.57642E-05  5036   0.857E-03    0.104E-02
RMM:   9    -0.413165102898E+03    0.18554E-05   -0.11403E-05  3715   0.379E-03    0.774E-03
RMM:  10    -0.413165103127E+03   -0.22829E-06   -0.20540E-06  2570   0.234E-03
    6 T=    61. E= -.41286667E+03 F= -.41316510E+03 E0= -.41314264E+03  EK= 0.29844E+00 SP= 0.00E+00 SK= 0.00E+00
       N       E                     dE             d eps       ncg     rms          rms(c)
RMM:   1    -0.413166037176E+03   -0.93428E-03   -0.84110E+00  4257   0.617E-01    0.897E-01
RMM:   2    -0.413169135967E+03   -0.30988E-02   -0.10358E-01  4286   0.844E-02    0.646E-01
RMM:   3    -0.413171637858E+03   -0.25019E-02   -0.24137E-02  5144   0.878E-02    0.352E-01
RMM:   4    -0.413186209483E+03   -0.14572E-01   -0.37347E-02  5083   0.166E-01    0.604E-01
RMM:   5    -0.413164844577E+03    0.21365E-01   -0.78018E-03  4671   0.985E-02    0.588E-02
RMM:   6    -0.413164852191E+03   -0.76143E-05   -0.16058E-03  5410   0.405E-02    0.326E-02
RMM:   7    -0.413164865538E+03   -0.13347E-04   -0.32728E-04  5929   0.166E-02    0.192E-02
RMM:   8    -0.413164859152E+03    0.63857E-05   -0.56134E-05  5102   0.878E-03    0.776E-03
RMM:   9    -0.413164856308E+03    0.28444E-05   -0.68634E-06  3238   0.343E-03    0.399E-03
RMM:  10    -0.413164856165E+03    0.14303E-06   -0.15668E-06  2532   0.210E-03
    7 T=    61. E= -.41286640E+03 F= -.41316486E+03 E0= -.41314241E+03  EK= 0.29845E+00 SP= 0.00E+00 SK= 0.00E+00
       N       E                     dE             d eps       ncg     rms          rms(c)
RMM:   1    -0.413166266970E+03   -0.14107E-02   -0.84399E+00  4269   0.618E-01    0.884E-01
RMM:   2    -0.413170177139E+03   -0.39102E-02   -0.10416E-01  4132   0.858E-02    0.651E-01
RMM:   3    -0.413166423653E+03    0.37535E-02   -0.21154E-02  4945   0.564E-02    0.141E-01
RMM:   4    -0.413198138633E+03   -0.31715E-01   -0.35271E-02  5131   0.157E-01    0.748E-01
RMM:   5    -0.413165257448E+03    0.32881E-01   -0.15385E-02  4800   0.124E-01    0.516E-02
RMM:   6    -0.413165469009E+03   -0.21156E-03   -0.27091E-03  5730   0.516E-02    0.351E-02
RMM:   7    -0.413165466603E+03    0.24054E-05   -0.47046E-04  5720   0.201E-02    0.222E-02
RMM:   8    -0.413165462196E+03    0.44070E-05   -0.64574E-05  5213   0.888E-03    0.101E-02
RMM:   9    -0.413165461735E+03    0.46079E-06   -0.12481E-05  3849   0.395E-03    0.716E-03
RMM:  10    -0.413165464500E+03   -0.27647E-05   -0.21031E-06  2581   0.228E-03    0.431E-03
RMM:  11    -0.413165466667E+03   -0.21665E-05   -0.11242E-06  2520   0.169E-03    0.244E-03
RMM:  12    -0.413165470368E+03   -0.37013E-05   -0.18706E-06  2599   0.196E-03    0.110E-03
RMM:  13    -0.413165471851E+03   -0.14826E-05   -0.71598E-07  2430   0.135E-03    0.891E-04
RMM:  14    -0.413165471604E+03    0.24654E-06   -0.25276E-07  1922   0.872E-04
    8 T=    61. E= -.41286669E+03 F= -.41316547E+03 E0= -.41314304E+03  EK= 0.29878E+00 SP= 0.00E+00 SK= 0.00E+00
       N       E                     dE             d eps       ncg     rms          rms(c)
RMM:   1    -0.413166834023E+03   -0.13622E-02   -0.84707E+00  4282   0.627E-01    0.898E-01
RMM:   2    -0.413170320546E+03   -0.34865E-02   -0.10403E-01  4158   0.863E-02    0.654E-01
RMM:   3    -0.413166216767E+03    0.41038E-02   -0.20506E-02  4863   0.529E-02    0.115E-01
RMM:   4    -0.413192797411E+03   -0.26581E-01   -0.28348E-02  5134   0.141E-01    0.684E-01
RMM:   5    -0.413165438194E+03    0.27359E-01   -0.12973E-02  4803   0.113E-01    0.490E-02
RMM:   6    -0.413165632354E+03   -0.19416E-03   -0.24109E-03  5767   0.473E-02    0.342E-02
RMM:   7    -0.413165624893E+03    0.74609E-05   -0.41766E-04  5623   0.196E-02    0.218E-02
RMM:   8    -0.413165615227E+03    0.96661E-05   -0.60404E-05  5039   0.873E-03    0.104E-02
RMM:   9    -0.413165613152E+03    0.20748E-05   -0.11795E-05  3780   0.389E-03    0.774E-03
RMM:  10    -0.413165613624E+03   -0.47224E-06   -0.20611E-06  2571   0.234E-03
    9 T=    61. E= -.41286656E+03 F= -.41316561E+03 E0= -.41314321E+03  EK= 0.29905E+00 SP= 0.00E+00 SK= 0.00E+00
       N       E                     dE             d eps       ncg     rms          rms(c)
RMM:   1    -0.413166928226E+03   -0.13151E-02   -0.84393E+00  4294   0.628E-01    0.903E-01
RMM:   2    -0.413170192266E+03   -0.32640E-02   -0.10372E-01  4325   0.872E-02    0.648E-01
RMM:   3    -0.413172752484E+03   -0.25602E-02   -0.24434E-02  5132   0.901E-02    0.359E-01
RMM:   4    -0.413186378095E+03   -0.13626E-01   -0.37017E-02  5075   0.166E-01    0.594E-01
RMM:   5    -0.413165668438E+03    0.20710E-01   -0.74866E-03  4659   0.968E-02    0.583E-02
RMM:   6    -0.413165678510E+03   -0.10072E-04   -0.15749E-03  5404   0.398E-02    0.329E-02
RMM:   7    -0.413165690066E+03   -0.11555E-04   -0.31543E-04  5889   0.167E-02    0.191E-02
RMM:   8    -0.413165682021E+03    0.80443E-05   -0.55458E-05  5090   0.878E-03    0.767E-03
RMM:   9    -0.413165678158E+03    0.38629E-05   -0.67968E-06  3209   0.337E-03    0.399E-03
RMM:  10    -0.413165676905E+03    0.12537E-05   -0.15866E-06  2532   0.209E-03    0.249E-03
RMM:  11    -0.413165674956E+03    0.19491E-05   -0.11368E-06  2511   0.170E-03    0.135E-03
RMM:  12    -0.413165673062E+03    0.18932E-05   -0.73642E-07  2462   0.136E-03    0.564E-04
RMM:  13    -0.413165671861E+03    0.12013E-05   -0.37739E-07  2094   0.994E-04    0.325E-04
RMM:  14    -0.413165670657E+03    0.12043E-05   -0.22938E-07  1600   0.791E-04    0.215E-04
RMM:  15    -0.413165668507E+03    0.21496E-05   -0.25882E-07  1581   0.772E-04    0.187E-04
RMM:  16    -0.413165666526E+03    0.19812E-05   -0.18363E-07  1321   0.691E-04    0.148E-04
RMM:  17    -0.413165664729E+03    0.17971E-05   -0.14175E-07  1262   0.654E-04    0.742E-05
RMM:  18    -0.413165663434E+03    0.12952E-05   -0.88633E-08  1057   0.594E-04    0.460E-05
RMM:  19    -0.413165662825E+03    0.60885E-06   -0.44245E-08   832   0.546E-04
   10 T=    61. E= -.41286631E+03 F= -.41316566E+03 E0= -.41314328E+03  EK= 0.29935E+00 SP= 0.00E+00 SK= 0.00E+00
       N       E                     dE             d eps       ncg     rms          rms(c)
RMM:   1    -0.413167228165E+03   -0.15647E-02   -0.84289E+00  4289   0.632E-01    0.884E-01
RMM:   2    -0.413170910768E+03   -0.36826E-02   -0.10410E-01  4213   0.854E-02    0.649E-01
RMM:   3    -0.413167438486E+03    0.34723E-02   -0.20839E-02  4939   0.560E-02    0.142E-01
RMM:   4    -0.413199823832E+03   -0.32385E-01   -0.36254E-02  5131   0.159E-01    0.755E-01
RMM:   5    -0.413166237013E+03    0.33587E-01   -0.15808E-02  4790   0.125E-01    0.520E-02
RMM:   6    -0.413166454293E+03   -0.21728E-03   -0.27549E-03  5723   0.518E-02    0.356E-02
RMM:   7    -0.413166452187E+03    0.21057E-05   -0.47278E-04  5630   0.203E-02    0.223E-02
RMM:   8    -0.413166443114E+03    0.90727E-05   -0.66498E-05  5210   0.910E-03    0.101E-02
RMM:   9    -0.413166440796E+03    0.23179E-05   -0.13262E-05  3921   0.409E-03    0.717E-03
RMM:  10    -0.413166442354E+03   -0.15575E-05   -0.21402E-06  2580   0.233E-03    0.435E-03
RMM:  11    -0.413166443543E+03   -0.11891E-05   -0.10596E-06  2505   0.166E-03    0.251E-03
RMM:  12    -0.413166445602E+03   -0.20587E-05   -0.16493E-06  2556   0.194E-03    0.111E-03
RMM:  13    -0.413166446351E+03   -0.74974E-06   -0.66506E-07  2414   0.136E-03
   11 T=    61. E= -.41286657E+03 F= -.41316645E+03 E0= -.41314409E+03  EK= 0.29988E+00 SP= 0.00E+00 SK= 0.00E+00
       N       E                     dE             d eps       ncg     rms          rms(c)
RMM:   1    -0.413167420155E+03   -0.97455E-03   -0.84918E+00  4293   0.635E-01    0.895E-01
RMM:   2    -0.413170884709E+03   -0.34646E-02   -0.10478E-01  4225   0.847E-02    0.656E-01
RMM:   3    -0.413167099943E+03    0.37848E-02   -0.21038E-02  4891   0.524E-02    0.123E-01
RMM:   4    -0.413195353138E+03   -0.28253E-01   -0.30642E-02  5130   0.146E-01    0.705E-01
RMM:   5    -0.413166199928E+03    0.29153E-01   -0.13814E-02  4792   0.117E-01    0.496E-02
RMM:   6    -0.413166403540E+03   -0.20361E-03   -0.25535E-03  5768   0.486E-02    0.339E-02
RMM:   7    -0.413166399909E+03    0.36306E-05   -0.42441E-04  5662   0.197E-02    0.218E-02
RMM:   8    -0.413166389710E+03    0.10199E-04   -0.64789E-05  5036   0.897E-03    0.106E-02
RMM:   9    -0.413166387290E+03    0.24207E-05   -0.12889E-05  3889   0.405E-03    0.783E-03
RMM:  10    -0.413166388038E+03   -0.74812E-06   -0.20888E-06  2569   0.236E-03
   12 T=    61. E= -.41286627E+03 F= -.41316639E+03 E0= -.41314406E+03  EK= 0.30012E+00 SP= 0.00E+00 SK= 0.00E+00
       N       E                     dE             d eps       ncg     rms          rms(c)
RMM:   1    -0.413168385842E+03   -0.19986E-02   -0.84702E+00  4303   0.642E-01    0.908E-01
RMM:   2    -0.413171193001E+03   -0.28072E-02   -0.10434E-01  4341   0.848E-02    0.651E-01
RMM:   3    -0.413174905836E+03   -0.37128E-02   -0.25209E-02  5142   0.922E-02    0.379E-01
RMM:   4    -0.413186452798E+03   -0.11547E-01   -0.36978E-02  5068   0.166E-01    0.576E-01
RMM:   5    -0.413167017602E+03    0.19435E-01   -0.68473E-03  4640   0.939E-02    0.581E-02
RMM:   6    -0.413167017665E+03   -0.62169E-07   -0.14634E-03  5364   0.383E-02    0.329E-02
RMM:   7    -0.413167025892E+03   -0.82271E-05   -0.29904E-04  5867   0.164E-02    0.189E-02
RMM:   8    -0.413167017678E+03    0.82137E-05   -0.53497E-05  5082   0.868E-03    0.753E-03
RMM:   9    -0.413167012727E+03    0.49513E-05   -0.62783E-06  3154   0.338E-03    0.386E-03
RMM:  10    -0.413167010891E+03    0.18359E-05   -0.14761E-06  2516   0.206E-03    0.239E-03
RMM:  11    -0.413167007924E+03    0.29672E-05   -0.11383E-06  2507   0.170E-03    0.133E-03
RMM:  12    -0.413167005396E+03    0.25279E-05   -0.66242E-07  2442   0.132E-03    0.562E-04
RMM:  13    -0.413167003612E+03    0.17834E-05   -0.35426E-07  2063   0.978E-04    0.331E-04
RMM:  14    -0.413167001910E+03    0.17018E-05   -0.20988E-07  1562   0.779E-04    0.219E-04
RMM:  15    -0.413166998758E+03    0.31522E-05   -0.24201E-07  1605   0.777E-04    0.200E-04
RMM:  16    -0.413166996219E+03    0.25393E-05   -0.15924E-07  1287   0.673E-04    0.140E-04
RMM:  17    -0.413166993950E+03    0.22694E-05   -0.12559E-07  1278   0.645E-04    0.732E-05
RMM:  18    -0.413166992640E+03    0.13097E-05   -0.67306E-08   977   0.572E-04    0.519E-05
RMM:  19    -0.413166991739E+03    0.90112E-06   -0.39148E-08   819   0.543E-04
   13 T=    61. E= -.41286642E+03 F= -.41316699E+03 E0= -.41314469E+03  EK= 0.30057E+00 SP= 0.00E+00 SK= 0.00E+00
       N       E                     dE             d eps       ncg     rms          rms(c)
RMM:   1    -0.413170370757E+03   -0.33781E-02   -0.84436E+00  4292   0.664E-01    0.887E-01
RMM:   2    -0.413172058331E+03   -0.16876E-02   -0.10549E-01  4247   0.851E-02    0.648E-01
RMM:   3    -0.413168644573E+03    0.34138E-02   -0.20378E-02  4983   0.539E-02    0.143E-01
RMM:   4    -0.413201960014E+03   -0.33315E-01   -0.37543E-02  5129   0.161E-01    0.765E-01
RMM:   5    -0.413167440179E+03    0.34520E-01   -0.16246E-02  4787   0.127E-01    0.526E-02
RMM:   6    -0.413167651276E+03   -0.21110E-03   -0.28161E-03  5723   0.525E-02    0.360E-02
RMM:   7    -0.413167642656E+03    0.86207E-05   -0.48470E-04  5643   0.204E-02    0.227E-02
RMM:   8    -0.413167633784E+03    0.88715E-05   -0.68828E-05  5221   0.918E-03    0.104E-02
RMM:   9    -0.413167630903E+03    0.28811E-05   -0.13290E-05  3934   0.411E-03    0.729E-03
RMM:  10    -0.413167630822E+03    0.80676E-07   -0.21457E-06  2574   0.232E-03
   14 T=    61. E= -.41286657E+03 F= -.41316763E+03 E0= -.41314536E+03  EK= 0.30106E+00 SP= 0.00E+00 SK= 0.00E+00
       N       E                     dE             d eps       ncg     rms          rms(c)
RMM:   1    -0.413168702027E+03   -0.10711E-02   -0.85113E+00  4302   0.648E-01    0.893E-01
RMM:   2    -0.413172477698E+03   -0.37757E-02   -0.10512E-01  4322   0.864E-02    0.657E-01
RMM:   3    -0.413175783508E+03   -0.33058E-02   -0.26830E-02  5130   0.949E-02    0.382E-01
RMM:   4    -0.413188953846E+03   -0.13170E-01   -0.39403E-02  5067   0.171E-01    0.603E-01
RMM:   5    -0.413167670956E+03    0.21283E-01   -0.77094E-03  4636   0.990E-02    0.573E-02
RMM:   6    -0.413167684543E+03   -0.13587E-04   -0.15733E-03  5385   0.395E-02    0.315E-02
RMM:   7    -0.413167703199E+03   -0.18655E-04   -0.31264E-04  5905   0.164E-02    0.188E-02
RMM:   8    -0.413167700660E+03    0.25392E-05   -0.55709E-05  5101   0.869E-03    0.752E-03
RMM:   9    -0.413167698976E+03    0.16835E-05   -0.64604E-06  3168   0.340E-03    0.386E-03
RMM:  10    -0.413167699959E+03   -0.98308E-06   -0.14775E-06  2515   0.204E-03
   15 T=    61. E= -.41286629E+03 F= -.41316770E+03 E0= -.41314547E+03  EK= 0.30141E+00 SP= 0.00E+00 SK= 0.00E+00
       N       E                     dE             d eps       ncg     rms          rms(c)
RMM:   1    -0.413170568094E+03   -0.28691E-02   -0.85054E+00  4300   0.669E-01    0.910E-01
RMM:   2    -0.413173293134E+03   -0.27250E-02   -0.10467E-01  4269   0.874E-02    0.653E-01
RMM:   3    -0.413169849405E+03    0.34437E-02   -0.20279E-02  4987   0.562E-02    0.150E-01
RMM:   4    -0.413204301574E+03   -0.34452E-01   -0.39203E-02  5128   0.165E-01    0.778E-01
RMM:   5    -0.413168548066E+03    0.35754E-01   -0.16683E-02  4789   0.129E-01    0.540E-02
RMM:   6    -0.413168761588E+03   -0.21352E-03   -0.29982E-03  5731   0.539E-02    0.371E-02
RMM:   7    -0.413168749883E+03    0.11705E-04   -0.50894E-04  5695   0.211E-02    0.237E-02
RMM:   8    -0.413168737363E+03    0.12520E-04   -0.73099E-05  5224   0.958E-03    0.111E-02
RMM:   9    -0.413168731235E+03    0.61281E-05   -0.13739E-05  3958   0.420E-03    0.764E-03
RMM:  10    -0.413168727139E+03    0.40953E-05   -0.23258E-06  2593   0.241E-03    0.457E-03
RMM:  11    -0.413168724688E+03    0.24519E-05   -0.11298E-06  2507   0.173E-03    0.270E-03
RMM:  12    -0.413168719382E+03    0.53057E-05   -0.19021E-06  2584   0.207E-03    0.120E-03
RMM:  13    -0.413168716005E+03    0.33766E-05   -0.75670E-07  2437   0.145E-03    0.983E-04
RMM:  14    -0.413168715963E+03    0.41742E-07   -0.28546E-07  2036   0.939E-04
   16 T=    62. E= -.41286657E+03 F= -.41316872E+03 E0= -.41314652E+03  EK= 0.30215E+00 SP= 0.00E+00 SK= 0.00E+00
       N       E                     dE             d eps       ncg     rms          rms(c)
RMM:   1    -0.413170247539E+03   -0.15315E-02   -0.84472E+00  4296   0.660E-01    0.892E-01
RMM:   2    -0.413173774278E+03   -0.35267E-02   -0.10446E-01  4268   0.888E-02    0.648E-01
RMM:   3    -0.413169907285E+03    0.38670E-02   -0.20105E-02  4904   0.533E-02    0.124E-01
RMM:   4    -0.413199690618E+03   -0.29783E-01   -0.32467E-02  5127   0.150E-01    0.723E-01
RMM:   5    -0.413168997883E+03    0.30693E-01   -0.14604E-02  4788   0.120E-01    0.506E-02
RMM:   6    -0.413169194684E+03   -0.19680E-03   -0.26684E-03  5762   0.499E-02    0.350E-02
RMM:   7    -0.413169188266E+03    0.64180E-05   -0.43896E-04  5630   0.201E-02    0.223E-02
RMM:   8    -0.413169172927E+03    0.15339E-04   -0.67778E-05  5082   0.925E-03    0.109E-02
RMM:   9    -0.413169168149E+03    0.47773E-05   -0.13388E-05  3935   0.417E-03    0.794E-03
RMM:  10    -0.413169165562E+03    0.25870E-05   -0.21851E-06  2582   0.239E-03    0.474E-03
RMM:  11    -0.413169163744E+03    0.18189E-05   -0.12114E-06  2507   0.180E-03    0.270E-03
RMM:  12    -0.413169160417E+03    0.33262E-05   -0.18436E-06  2571   0.207E-03    0.118E-03
RMM:  13    -0.413169158345E+03    0.20725E-05   -0.61302E-07  2390   0.137E-03    0.884E-04
RMM:  14    -0.413169158350E+03   -0.48094E-08   -0.25801E-07  1982   0.890E-04
   17 T=    62. E= -.41286643E+03 F= -.41316916E+03 E0= -.41314700E+03  EK= 0.30273E+00 SP= 0.00E+00 SK= 0.00E+00
       N       E                     dE             d eps       ncg     rms          rms(c)
RMM:   1    -0.413170638353E+03   -0.14800E-02   -0.85354E+00  4295   0.661E-01    0.892E-01
RMM:   2    -0.413174363489E+03   -0.37251E-02   -0.10587E-01  4272   0.882E-02    0.658E-01
RMM:   3    -0.413170527293E+03    0.38362E-02   -0.21682E-02  4902   0.553E-02    0.131E-01
RMM:   4    -0.413200303514E+03   -0.29776E-01   -0.32754E-02  5121   0.151E-01    0.724E-01
RMM:   5    -0.413169513962E+03    0.30790E-01   -0.14697E-02  4786   0.120E-01    0.500E-02
RMM:   6    -0.413169703404E+03   -0.18944E-03   -0.25628E-03  5746   0.497E-02    0.339E-02
RMM:   7    -0.413169697635E+03    0.57691E-05   -0.42980E-04  5621   0.200E-02    0.217E-02
RMM:   8    -0.413169687359E+03    0.10276E-04   -0.66179E-05  5087   0.920E-03    0.104E-02
RMM:   9    -0.413169684439E+03    0.29199E-05   -0.13049E-05  3889   0.414E-03    0.751E-03
RMM:  10    -0.413169684720E+03   -0.28155E-06   -0.20944E-06  2576   0.237E-03
   18 T=    62. E= -.41286630E+03 F= -.41316968E+03 E0= -.41314757E+03  EK= 0.30338E+00 SP= 0.00E+00 SK= 0.00E+00
       N       E                     dE             d eps       ncg     rms          rms(c)
RMM:   1    -0.413177408419E+03   -0.77240E-02   -0.85909E+00  4301   0.702E-01    0.909E-01
RMM:   2    -0.413175294450E+03    0.21140E-02   -0.11680E-01  4330   0.915E-02    0.658E-01
RMM:   3    -0.413177313671E+03   -0.20192E-02   -0.23318E-02  5128   0.868E-02    0.345E-01
RMM:   4    -0.413195856204E+03   -0.18543E-01   -0.41633E-02  5076   0.174E-01    0.651E-01
RMM:   5    -0.413170833393E+03    0.25023E-01   -0.94158E-03  4675   0.106E-01    0.602E-02
RMM:   6    -0.413170863243E+03   -0.29850E-04   -0.19111E-03  5429   0.435E-02    0.331E-02
RMM:   7    -0.413170868304E+03   -0.50608E-05   -0.35982E-04  5924   0.176E-02    0.203E-02
RMM:   8    -0.413170858245E+03    0.10059E-04   -0.65003E-05  5123   0.939E-03    0.827E-03
RMM:   9    -0.413170851767E+03    0.64782E-05   -0.83131E-06  3421   0.377E-03    0.416E-03
RMM:  10    -0.413170849488E+03    0.22790E-05   -0.17876E-06  2551   0.216E-03    0.266E-03
RMM:  11    -0.413170846015E+03    0.34725E-05   -0.11788E-06  2498   0.175E-03    0.147E-03
RMM:  12    -0.413170842625E+03    0.33906E-05   -0.70245E-07  2455   0.138E-03    0.580E-04
RMM:  13    -0.413170840514E+03    0.21104E-05   -0.35353E-07  2128   0.100E-03    0.329E-04
RMM:  14    -0.413170838677E+03    0.18372E-05   -0.19845E-07  1585   0.780E-04    0.226E-04
RMM:  15    -0.413170835187E+03    0.34902E-05   -0.18044E-07  1429   0.737E-04    0.160E-04
RMM:  16    -0.413170832325E+03    0.28618E-05   -0.12575E-07  1241   0.669E-04    0.142E-04
RMM:  17    -0.413170829165E+03    0.31602E-05   -0.11447E-07  1265   0.657E-04    0.760E-05
RMM:  18    -0.413170827322E+03    0.18430E-05   -0.64290E-08   993   0.592E-04    0.454E-05
RMM:  19    -0.413170826187E+03    0.11348E-05   -0.38712E-08   880   0.563E-04    0.301E-05
RMM:  20    -0.413170825894E+03    0.29317E-06   -0.18664E-08   736   0.536E-04
   19 T=    62. E= -.41286654E+03 F= -.41317083E+03 E0= -.41314875E+03  EK= 0.30429E+00 SP= 0.00E+00 SK= 0.00E+00
       N       E                     dE             d eps       ncg     rms          rms(c)
RMM:   1    -0.413174014947E+03   -0.31888E-02   -0.85085E+00  4295   0.699E-01    0.900E-01
RMM:   2    -0.413175514806E+03   -0.14999E-02   -0.10542E-01  4265   0.870E-02    0.651E-01
RMM:   3    -0.413172375120E+03    0.31397E-02   -0.20282E-02  4992   0.548E-02    0.149E-01
RMM:   4    -0.413206776599E+03   -0.34401E-01   -0.39348E-02  5124   0.165E-01    0.777E-01
RMM:   5    -0.413171099423E+03    0.35677E-01   -0.16836E-02  4781   0.129E-01    0.538E-02
RMM:   6    -0.413171299740E+03   -0.20032E-03   -0.29715E-03  5723   0.539E-02    0.369E-02
RMM:   7    -0.413171287551E+03    0.12189E-04   -0.50643E-04  5635   0.210E-02    0.235E-02
RMM:   8    -0.413171273926E+03    0.13625E-04   -0.74304E-05  5216   0.975E-03    0.109E-02
RMM:   9    -0.413171268037E+03    0.58890E-05   -0.14412E-05  4031   0.431E-03    0.756E-03
RMM:  10    -0.413171264526E+03    0.35105E-05   -0.23231E-06  2596   0.239E-03    0.459E-03
RMM:  11    -0.413171262489E+03    0.20369E-05   -0.10638E-06  2498   0.168E-03    0.274E-03
RMM:  12    -0.413171258207E+03    0.42822E-05   -0.16983E-06  2544   0.202E-03    0.121E-03
RMM:  13    -0.413171255660E+03    0.25476E-05   -0.71875E-07  2412   0.144E-03    0.955E-04
RMM:  14    -0.413171255512E+03    0.14719E-06   -0.28663E-07  2053   0.941E-04
   20 T=    62. E= -.41286630E+03 F= -.41317126E+03 E0= -.41314922E+03  EK= 0.30496E+00 SP= 0.00E+00 SK= 0.00E+00
       N       E                     dE             d eps       ncg     rms          rms(c)
RMM:   1    -0.413173341216E+03   -0.20856E-02   -0.85583E+00  4292   0.671E-01    0.892E-01
RMM:   2    -0.413177050705E+03   -0.37095E-02   -0.10635E-01  4274   0.869E-02    0.658E-01
RMM:   3    -0.413173139260E+03    0.39114E-02   -0.21636E-02  4911   0.530E-02    0.127E-01
RMM:   4    -0.413202104246E+03   -0.28965E-01   -0.31690E-02  5116   0.148E-01    0.714E-01
RMM:   5    -0.413172198697E+03    0.29906E-01   -0.14275E-02  4784   0.118E-01    0.497E-02
RMM:   6    -0.413172382988E+03   -0.18429E-03   -0.25746E-03  5772   0.491E-02    0.333E-02
RMM:   7    -0.413172383061E+03   -0.73356E-07   -0.41354E-04  5636   0.196E-02    0.214E-02
RMM:   8    -0.413172373140E+03    0.99208E-05   -0.69537E-05  5059   0.917E-03    0.108E-02
RMM:   9    -0.413172369628E+03    0.35122E-05   -0.13159E-05  3944   0.418E-03    0.784E-03
RMM:  10    -0.413172369033E+03    0.59562E-06   -0.20540E-06  2565   0.232E-03
   21 T=    62. E= -.41286647E+03 F= -.41317237E+03 E0= -.41315038E+03  EK= 0.30590E+00 SP= 0.00E+00 SK= 0.00E+00
       N       E                     dE             d eps       ncg     rms          rms(c)
RMM:   1    -0.413174953433E+03   -0.25838E-02   -0.85900E+00  4299   0.680E-01    0.909E-01
RMM:   2    -0.413178201272E+03   -0.32478E-02   -0.10631E-01  4343   0.875E-02    0.660E-01
RMM:   3    -0.413181076267E+03   -0.28750E-02   -0.25896E-02  5131   0.923E-02    0.370E-01
RMM:   4    -0.413195369962E+03   -0.14294E-01   -0.39575E-02  5064   0.171E-01    0.610E-01
RMM:   5    -0.413173484617E+03    0.21885E-01   -0.79137E-03  4649   0.996E-02    0.571E-02
RMM:   6    -0.413173506266E+03   -0.21648E-04   -0.16715E-03  5421   0.405E-02    0.328E-02
RMM:   7    -0.413173513091E+03   -0.68257E-05   -0.32474E-04  5849   0.168E-02    0.194E-02
RMM:   8    -0.413173505900E+03    0.71919E-05   -0.56265E-05  5087   0.877E-03    0.779E-03
RMM:   9    -0.413173500889E+03    0.50106E-05   -0.69138E-06  3206   0.341E-03    0.408E-03
RMM:  10    -0.413173498563E+03    0.23259E-05   -0.15542E-06  2528   0.207E-03    0.256E-03
RMM:  11    -0.413173495361E+03    0.32023E-05   -0.10004E-06  2481   0.164E-03    0.134E-03
RMM:  12    -0.413173491988E+03    0.33729E-05   -0.65068E-07  2438   0.132E-03    0.523E-04
RMM:  13    -0.413173489934E+03    0.20541E-05   -0.32363E-07  2060   0.964E-04    0.316E-04
RMM:  14    -0.413173488078E+03    0.18561E-05   -0.17900E-07  1545   0.755E-04    0.209E-04
RMM:  15    -0.413173484438E+03    0.36392E-05   -0.15764E-07  1393   0.717E-04    0.171E-04
RMM:  16    -0.413173481645E+03    0.27933E-05   -0.10223E-07  1161   0.647E-04    0.153E-04
RMM:  17    -0.413173478736E+03    0.29090E-05   -0.87270E-08  1132   0.625E-04    0.749E-05
RMM:  18    -0.413173476331E+03    0.24054E-05   -0.60058E-08  1032   0.594E-04    0.356E-05
RMM:  19    -0.413173475229E+03    0.11020E-05   -0.30911E-08   825   0.554E-04    0.282E-05
RMM:  20    -0.413173474837E+03    0.39162E-06   -0.14037E-08   693   0.536E-04
   22 T=    62. E= -.41286655E+03 F= -.41317347E+03 E0= -.41315153E+03  EK= 0.30693E+00 SP= 0.00E+00 SK= 0.00E+00
       N       E                     dE             d eps       ncg     rms          rms(c)
RMM:   1    -0.413175852278E+03   -0.23770E-02   -0.85668E+00  4294   0.691E-01    0.910E-01
RMM:   2    -0.413178860376E+03   -0.30081E-02   -0.10626E-01  4281   0.896E-02    0.655E-01
RMM:   3    -0.413175145063E+03    0.37153E-02   -0.20253E-02  4940   0.561E-02    0.142E-01
RMM:   4    -0.413209215562E+03   -0.34070E-01   -0.38226E-02  5120   0.163E-01    0.772E-01
RMM:   5    -0.413173992220E+03    0.35223E-01   -0.16711E-02  4781   0.128E-01    0.534E-02
RMM:   6    -0.413174198018E+03   -0.20580E-03   -0.29862E-03  5744   0.533E-02    0.372E-02
RMM:   7    -0.413174186479E+03    0.11539E-04   -0.50052E-04  5628   0.212E-02    0.236E-02
RMM:   8    -0.413174172711E+03    0.13768E-04   -0.75563E-05  5197   0.977E-03    0.113E-02
RMM:   9    -0.413174166039E+03    0.66712E-05   -0.14450E-05  4042   0.435E-03    0.793E-03
RMM:  10    -0.413174161415E+03    0.46246E-05   -0.23454E-06  2597   0.244E-03    0.480E-03
RMM:  11    -0.413174158494E+03    0.29208E-05   -0.11486E-06  2502   0.174E-03    0.284E-03
RMM:  12    -0.413174152660E+03    0.58344E-05   -0.18679E-06  2571   0.211E-03    0.123E-03
RMM:  13    -0.413174149038E+03    0.36219E-05   -0.72140E-07  2417   0.145E-03    0.101E-03
RMM:  14    -0.413174149151E+03   -0.11352E-06   -0.28678E-07  2045   0.940E-04
   23 T=    63. E= -.41286631E+03 F= -.41317415E+03 E0= -.41315225E+03  EK= 0.30784E+00 SP= 0.00E+00 SK= 0.00E+00
       N       E                     dE             d eps       ncg     rms          rms(c)
RMM:   1    -0.413176784554E+03   -0.26355E-02   -0.85925E+00  4297   0.686E-01    0.894E-01
RMM:   2    -0.413180803086E+03   -0.40185E-02   -0.10694E-01  4285   0.906E-02    0.658E-01
RMM:   3    -0.413176298553E+03    0.45045E-02   -0.21297E-02  4810   0.546E-02    0.111E-01
RMM:   4    -0.413200775144E+03   -0.24477E-01   -0.25961E-02  5119   0.135E-01    0.657E-01
RMM:   5    -0.413175598078E+03    0.25177E-01   -0.12191E-02  4795   0.109E-01    0.477E-02
RMM:   6    -0.413175746721E+03   -0.14864E-03   -0.21951E-03  5810   0.446E-02    0.307E-02
RMM:   7    -0.413175747595E+03   -0.87385E-06   -0.30279E-04  5652   0.175E-02    0.178E-02
RMM:   8    -0.413175740088E+03    0.75069E-05   -0.61808E-05  5002   0.833E-03    0.107E-02
RMM:   9    -0.413175735005E+03    0.50825E-05   -0.12012E-05  3912   0.402E-03    0.782E-03
RMM:  10    -0.413175733317E+03    0.16885E-05   -0.18680E-06  2549   0.229E-03    0.466E-03
RMM:  11    -0.413175731751E+03    0.15663E-05   -0.15726E-06  2528   0.199E-03    0.241E-03
RMM:  12    -0.413175729490E+03    0.22602E-05   -0.14838E-06  2521   0.189E-03    0.103E-03
RMM:  13    -0.413175728472E+03    0.10181E-05   -0.48105E-07  2309   0.123E-03    0.653E-04
RMM:  14    -0.413175728076E+03    0.39689E-06   -0.22340E-07  1820   0.836E-04
   24 T=    63. E= -.41286664E+03 F= -.41317573E+03 E0= -.41315388E+03  EK= 0.30909E+00 SP= 0.00E+00 SK= 0.00E+00
       N       E                     dE             d eps       ncg     rms          rms(c)
RMM:   1    -0.413178035637E+03   -0.23072E-02   -0.86594E+00  4293   0.692E-01    0.908E-01
RMM:   2    -0.413181632548E+03   -0.35969E-02   -0.10771E-01  4285   0.919E-02    0.664E-01
RMM:   3    -0.413177419960E+03    0.42126E-02   -0.21394E-02  4854   0.569E-02    0.121E-01
RMM:   4    -0.413206197571E+03   -0.28778E-01   -0.31051E-02  5121   0.147E-01    0.710E-01
RMM:   5    -0.413176564253E+03    0.29633E-01   -0.14170E-02  4791   0.118E-01    0.503E-02
RMM:   6    -0.413176749036E+03   -0.18478E-03   -0.26086E-03  5793   0.489E-02    0.349E-02
RMM:   7    -0.413176740955E+03    0.80811E-05   -0.43217E-04  5592   0.203E-02    0.221E-02
RMM:   8    -0.413176728228E+03    0.12728E-04   -0.67175E-05  5077   0.943E-03    0.109E-02
RMM:   9    -0.413176722944E+03    0.52831E-05   -0.13286E-05  3898   0.419E-03    0.786E-03
RMM:  10    -0.413176720112E+03    0.28328E-05   -0.21429E-06  2585   0.241E-03    0.471E-03
RMM:  11    -0.413176717922E+03    0.21895E-05   -0.13064E-06  2515   0.185E-03    0.255E-03
RMM:  12    -0.413176714387E+03    0.35351E-05   -0.16846E-06  2538   0.202E-03    0.110E-03
RMM:  13    -0.413176712439E+03    0.19482E-05   -0.56168E-07  2367   0.133E-03    0.776E-04
RMM:  14    -0.413176712251E+03    0.18775E-06   -0.25369E-07  1944   0.877E-04
   25 T=    63. E= -.41286646E+03 F= -.41317671E+03 E0= -.41315491E+03  EK= 0.31025E+00 SP= 0.00E+00 SK= 0.00E+00
       N       E                     dE             d eps       ncg     rms          rms(c)
RMM:   1    -0.413179852980E+03   -0.31405E-02   -0.86538E+00  4295   0.710E-01    0.919E-01
RMM:   2    -0.413182612466E+03   -0.27595E-02   -0.10801E-01  4284   0.963E-02    0.660E-01
RMM:   3    -0.413178511966E+03    0.41005E-02   -0.20131E-02  4802   0.538E-02    0.105E-01
RMM:   4    -0.413203230001E+03   -0.24718E-01   -0.25889E-02  5131   0.134E-01    0.658E-01
RMM:   5    -0.413177930561E+03    0.25299E-01   -0.12368E-02  4797   0.109E-01    0.489E-02
RMM:   6    -0.413178067173E+03   -0.13661E-03   -0.22394E-03  5823   0.449E-02    0.329E-02
RMM:   7    -0.413178057291E+03    0.98821E-05   -0.33329E-04  5597   0.186E-02    0.193E-02
RMM:   8    -0.413178045091E+03    0.12201E-04   -0.63493E-05  4982   0.874E-03    0.110E-02
RMM:   9    -0.413178038061E+03    0.70292E-05   -0.12164E-05  3908   0.409E-03    0.801E-03
RMM:  10    -0.413178032804E+03    0.52578E-05   -0.20301E-06  2569   0.238E-03    0.470E-03
RMM:  11    -0.413178027827E+03    0.49764E-05   -0.14987E-06  2530   0.196E-03    0.249E-03
RMM:  12    -0.413178020798E+03    0.70290E-05   -0.15732E-06  2535   0.196E-03    0.107E-03
RMM:  13    -0.413178017567E+03    0.32314E-05   -0.52221E-07  2330   0.128E-03    0.676E-04
RMM:  14    -0.413178017042E+03    0.52448E-06   -0.24759E-07  1892   0.865E-04
   26 T=    63. E= -.41286643E+03 F= -.41317802E+03 E0= -.41315627E+03  EK= 0.31158E+00 SP= 0.00E+00 SK= 0.00E+00
       N       E                     dE             d eps       ncg     rms          rms(c)
RMM:   1    -0.413181221903E+03   -0.32043E-02   -0.86462E+00  4293   0.711E-01    0.900E-01
RMM:   2    -0.413184526590E+03   -0.33047E-02   -0.10835E-01  4280   0.961E-02    0.660E-01
RMM:   3    -0.413180384137E+03    0.41425E-02   -0.21008E-02  4780   0.560E-02    0.105E-01
RMM:   4    -0.413203812546E+03   -0.23428E-01   -0.24569E-02  5131   0.131E-01    0.642E-01
RMM:   5    -0.413179770476E+03    0.24042E-01   -0.11746E-02  4800   0.106E-01    0.477E-02
RMM:   6    -0.413179911462E+03   -0.14099E-03   -0.21316E-03  5834   0.436E-02    0.320E-02
RMM:   7    -0.413179907434E+03    0.40288E-05   -0.33112E-04  5579   0.183E-02    0.194E-02
RMM:   8    -0.413179896896E+03    0.10538E-04   -0.59605E-05  4960   0.858E-03    0.105E-02
RMM:   9    -0.413179891785E+03    0.51111E-05   -0.11515E-05  3805   0.397E-03    0.767E-03
RMM:  10    -0.413179888876E+03    0.29086E-05   -0.19145E-06  2547   0.233E-03    0.449E-03
RMM:  11    -0.413179886157E+03    0.27195E-05   -0.14710E-06  2530   0.194E-03    0.230E-03
RMM:  12    -0.413179882441E+03    0.37162E-05   -0.13801E-06  2503   0.185E-03    0.100E-03
RMM:  13    -0.413179880669E+03    0.17719E-05   -0.48628E-07  2312   0.123E-03    0.632E-04
RMM:  14    -0.413179880142E+03    0.52668E-06   -0.22811E-07  1819   0.837E-04
   27 T=    64. E= -.41286673E+03 F= -.41317988E+03 E0= -.41315818E+03  EK= 0.31315E+00 SP= 0.00E+00 SK= 0.00E+00
       N       E                     dE             d eps       ncg     rms          rms(c)
RMM:   1    -0.413182247370E+03   -0.23667E-02   -0.87471E+00  4292   0.709E-01    0.910E-01
RMM:   2    -0.413185785691E+03   -0.35383E-02   -0.10968E-01  4279   0.980E-02    0.669E-01
RMM:   3    -0.413181460068E+03    0.43256E-02   -0.22009E-02  4762   0.564E-02    0.107E-01
RMM:   4    -0.413204390097E+03   -0.22930E-01   -0.24014E-02  5135   0.130E-01    0.636E-01
RMM:   5    -0.413180823765E+03    0.23566E-01   -0.11520E-02  4800   0.105E-01    0.474E-02
RMM:   6    -0.413180961571E+03   -0.13781E-03   -0.20996E-03  5840   0.431E-02    0.319E-02
RMM:   7    -0.413180959088E+03    0.24835E-05   -0.32330E-04  5582   0.181E-02    0.192E-02
RMM:   8    -0.413180950751E+03    0.83370E-05   -0.57871E-05  4953   0.848E-03    0.104E-02
RMM:   9    -0.413180946054E+03    0.46969E-05   -0.11241E-05  3771   0.393E-03    0.759E-03
RMM:  10    -0.413180943971E+03    0.20834E-05   -0.19030E-06  2546   0.232E-03    0.440E-03
RMM:  11    -0.413180941973E+03    0.19974E-05   -0.14710E-06  2530   0.194E-03    0.224E-03
RMM:  12    -0.413180939216E+03    0.27566E-05   -0.13952E-06  2508   0.185E-03    0.102E-03
RMM:  13    -0.413180937825E+03    0.13919E-05   -0.48419E-07  2318   0.123E-03    0.646E-04
RMM:  14    -0.413180937332E+03    0.49271E-06   -0.22602E-07  1825   0.835E-04
   28 T=    64. E= -.41286644E+03 F= -.41318094E+03 E0= -.41315929E+03  EK= 0.31450E+00 SP= 0.00E+00 SK= 0.00E+00
       N       E                     dE             d eps       ncg     rms          rms(c)
RMM:   1    -0.413190294502E+03   -0.93567E-02   -0.88098E+00  4292   0.775E-01    0.927E-01
RMM:   2    -0.413187794531E+03    0.25000E-02   -0.11543E-01  4278   0.104E-01    0.667E-01
RMM:   3    -0.413183240429E+03    0.45541E-02   -0.19891E-02  4639   0.505E-02    0.829E-02
RMM:   4    -0.413196864585E+03   -0.13624E-01   -0.13877E-02  5141   0.986E-02    0.492E-01
RMM:   5    -0.413182993089E+03    0.13871E-01   -0.69765E-03  4825   0.808E-02    0.449E-02
RMM:   6    -0.413183056842E+03   -0.63752E-04   -0.13112E-03  5849   0.334E-02    0.279E-02
RMM:   7    -0.413183051408E+03    0.54340E-05   -0.16703E-04  5460   0.141E-02    0.139E-02
RMM:   8    -0.413183042055E+03    0.93529E-05   -0.25121E-05  4507   0.549E-03    0.830E-03
RMM:   9    -0.413183039887E+03    0.21678E-05   -0.65044E-06  3211   0.302E-03    0.655E-03
RMM:  10    -0.413183034502E+03    0.53846E-05   -0.14276E-06  2513   0.212E-03    0.355E-03
RMM:  11    -0.413183028945E+03    0.55568E-05   -0.13510E-06  2521   0.185E-03    0.186E-03
RMM:  12    -0.413183023161E+03    0.57845E-05   -0.91096E-07  2462   0.155E-03    0.100E-03
RMM:  13    -0.413183021058E+03    0.21031E-05   -0.35646E-07  2182   0.104E-03    0.536E-04
RMM:  14    -0.413183019654E+03    0.14037E-05   -0.16599E-07  1560   0.751E-04    0.396E-04
RMM:  15    -0.413183015043E+03    0.46113E-05   -0.18067E-07  1946   0.786E-04    0.334E-04
RMM:  16    -0.413183011591E+03    0.34521E-05   -0.84606E-08  1258   0.624E-04    0.291E-04
RMM:  17    -0.413183008488E+03    0.31025E-05   -0.44443E-08   870   0.554E-04    0.188E-04
RMM:  18    -0.413183004808E+03    0.36801E-05   -0.55803E-08  1042   0.594E-04    0.532E-05
RMM:  19    -0.413183003105E+03    0.17033E-05   -0.26867E-08   877   0.564E-04    0.972E-05
RMM:  20    -0.413183002984E+03    0.12124E-06   -0.88019E-09   658   0.523E-04
   29 T=    64. E= -.41286676E+03 F= -.41318300E+03 E0= -.41316141E+03  EK= 0.31625E+00 SP= 0.00E+00 SK= 0.00E+00
       N       E                     dE             d eps       ncg     rms          rms(c)
RMM:   1    -0.413187516387E+03   -0.45133E-02   -0.87419E+00  4289   0.756E-01    0.908E-01
RMM:   2    -0.413189972697E+03   -0.24563E-02   -0.11288E-01  4277   0.107E-01    0.663E-01
RMM:   3    -0.413185136785E+03    0.48359E-02   -0.20579E-02  4632   0.568E-02    0.847E-02
RMM:   4    -0.413200405744E+03   -0.15269E-01   -0.15552E-02  5143   0.104E-01    0.521E-01
RMM:   5    -0.413184809174E+03    0.15597E-01   -0.78129E-03  4816   0.855E-02    0.447E-02
RMM:   6    -0.413184884045E+03   -0.74871E-04   -0.14406E-03  5850   0.350E-02    0.280E-02
RMM:   7    -0.413184881093E+03    0.29516E-05   -0.18292E-04  5503   0.143E-02    0.143E-02
RMM:   8    -0.413184871748E+03    0.93450E-05   -0.27424E-05  4589   0.573E-03    0.846E-03
RMM:   9    -0.413184870714E+03    0.10338E-05   -0.75580E-06  3408   0.319E-03    0.673E-03
RMM:  10    -0.413184867148E+03    0.35660E-05   -0.14609E-06  2516   0.213E-03    0.369E-03
RMM:  11    -0.413184864180E+03    0.29684E-05   -0.12649E-06  2505   0.180E-03    0.195E-03
RMM:  12    -0.413184860596E+03    0.35840E-05   -0.10174E-06  2473   0.161E-03    0.103E-03
RMM:  13    -0.413184859236E+03    0.13595E-05   -0.37202E-07  2201   0.108E-03    0.551E-04
RMM:  14    -0.413184858433E+03    0.80299E-06   -0.17166E-07  1617   0.758E-04
   30 T=    65. E= -.41286678E+03 F= -.41318486E+03 E0= -.41316331E+03  EK= 0.31808E+00 SP= 0.00E+00 SK= 0.00E+00
       N       E                     dE             d eps       ncg     rms          rms(c)
RMM:   1    -0.413187889164E+03   -0.30299E-02   -0.88542E+00  4295   0.741E-01    0.913E-01
RMM:   2    -0.413192081222E+03   -0.41921E-02   -0.11218E-01  4278   0.108E-01    0.674E-01
RMM:   3    -0.413186877775E+03    0.52034E-02   -0.22574E-02  4593   0.621E-02    0.882E-02
RMM:   4    -0.413200595386E+03   -0.13718E-01   -0.13937E-02  5139   0.999E-02    0.496E-01
RMM:   5    -0.413186503029E+03    0.14092E-01   -0.70068E-03  4812   0.811E-02    0.439E-02
RMM:   6    -0.413186575047E+03   -0.72018E-04   -0.13246E-03  5846   0.336E-02    0.278E-02
RMM:   7    -0.413186580219E+03   -0.51725E-05   -0.20828E-04  5470   0.152E-02    0.162E-02
RMM:   8    -0.413186568149E+03    0.12071E-04   -0.32927E-05  4746   0.649E-03    0.862E-03
RMM:   9    -0.413186567338E+03    0.81057E-06   -0.67707E-06  3227   0.320E-03
   31 T=    65. E= -.41286654E+03 F= -.41318657E+03 E0= -.41316507E+03  EK= 0.32003E+00 SP= 0.00E+00 SK= 0.00E+00
       N       E                     dE             d eps       ncg     rms          rms(c)
RMM:   1    -0.413197862272E+03   -0.11294E-01   -0.89503E+00  4295   0.823E-01    0.933E-01
RMM:   2    -0.413194380733E+03    0.34815E-02   -0.12059E-01  4311   0.117E-01    0.674E-01
RMM:   3    -0.413192845349E+03    0.15354E-02   -0.22612E-02  5013   0.874E-02    0.264E-01
RMM:   4    -0.413224956118E+03   -0.32111E-01   -0.46949E-02  5083   0.183E-01    0.777E-01
RMM:   5    -0.413188994968E+03    0.35961E-01   -0.15270E-02  4742   0.127E-01    0.585E-02
RMM:   6    -0.413189146910E+03   -0.15194E-03   -0.30164E-03  5742   0.525E-02    0.371E-02
RMM:   7    -0.413189148112E+03   -0.12020E-05   -0.48810E-04  5714   0.205E-02    0.242E-02
RMM:   8    -0.413189139875E+03    0.82369E-05   -0.87899E-05  5180   0.106E-02    0.111E-02
RMM:   9    -0.413189130795E+03    0.90802E-05   -0.13488E-05  3954   0.453E-03    0.599E-03
RMM:  10    -0.413189125149E+03    0.56459E-05   -0.28183E-06  2663   0.253E-03    0.381E-03
RMM:  11    -0.413189120324E+03    0.48246E-05   -0.11668E-06  2499   0.180E-03    0.205E-03
RMM:  12    -0.413189112362E+03    0.79623E-05   -0.11368E-06  2484   0.172E-03    0.782E-04
RMM:  13    -0.413189108009E+03    0.43530E-05   -0.56534E-07  2362   0.125E-03    0.517E-04
RMM:  14    -0.413189106453E+03    0.15559E-05   -0.27972E-07  1972   0.899E-04    0.391E-04
RMM:  15    -0.413189103592E+03    0.28611E-05   -0.15335E-07  1468   0.727E-04    0.193E-04
RMM:  16    -0.413189097169E+03    0.64226E-05   -0.15433E-07  1587   0.735E-04    0.297E-04
RMM:  17    -0.413189093653E+03    0.35166E-05   -0.77268E-08  1039   0.611E-04    0.218E-04
RMM:  18    -0.413189088784E+03    0.48687E-05   -0.80312E-08  1182   0.628E-04    0.116E-04
RMM:  19    -0.413189086918E+03    0.18661E-05   -0.49638E-08   994   0.581E-04    0.496E-05
RMM:  20    -0.413189086079E+03    0.83886E-06   -0.26083E-08   824   0.553E-04
   32 T=    66. E= -.41286671E+03 F= -.41318909E+03 E0= -.41316764E+03  EK= 0.32237E+00 SP= 0.00E+00 SK= 0.00E+00
       N       E                     dE             d eps       ncg     rms          rms(c)
RMM:   1    -0.413198088764E+03   -0.90018E-02   -0.89179E+00  4298   0.842E-01    0.921E-01
RMM:   2    -0.413195950268E+03    0.21385E-02   -0.11903E-01  4282   0.120E-01    0.670E-01
RMM:   3    -0.413191140712E+03    0.48096E-02   -0.20566E-02  4446   0.668E-02    0.714E-02
RMM:   4    -0.413198094705E+03   -0.69540E-02   -0.70810E-03  5150   0.709E-02    0.355E-01
RMM:   5    -0.413191011428E+03    0.70833E-02   -0.36272E-03  4828   0.583E-02    0.428E-02
RMM:   6    -0.413191057280E+03   -0.45852E-04   -0.89340E-04  5750   0.274E-02    0.298E-02
RMM:   7    -0.413191041245E+03    0.16035E-04   -0.25967E-04  5275   0.165E-02    0.189E-02
RMM:   8    -0.413191026313E+03    0.14932E-04   -0.23033E-05  4436   0.615E-03    0.807E-03
RMM:   9    -0.413191023897E+03    0.24163E-05   -0.36849E-06  2762   0.251E-03    0.539E-03
RMM:  10    -0.413191019802E+03    0.40948E-05   -0.15483E-06  2510   0.200E-03    0.285E-03
RMM:  11    -0.413191015858E+03    0.39445E-05   -0.10154E-06  2470   0.164E-03    0.138E-03
RMM:  12    -0.413191012205E+03    0.36521E-05   -0.54795E-07  2310   0.124E-03    0.653E-04
RMM:  13    -0.413191009933E+03    0.22720E-05   -0.29252E-07  1946   0.912E-04    0.316E-04
RMM:  14    -0.413191007266E+03    0.26674E-05   -0.15522E-07  1445   0.726E-04    0.206E-04
RMM:  15    -0.413191003622E+03    0.36438E-05   -0.95795E-08  1158   0.657E-04    0.113E-04
RMM:  16    -0.413191000722E+03    0.29000E-05   -0.63638E-08  1003   0.620E-04    0.753E-05
RMM:  17    -0.413190997447E+03    0.32755E-05   -0.56709E-08  1067   0.613E-04    0.502E-05
RMM:  18    -0.413190994541E+03    0.29060E-05   -0.45865E-08  1048   0.596E-04    0.434E-05
RMM:  19    -0.413190993795E+03    0.74604E-06   -0.19135E-08   740   0.540E-04
   33 T=    66. E= -.41286642E+03 F= -.41319099E+03 E0= -.41316959E+03  EK= 0.32457E+00 SP= 0.00E+00 SK= 0.00E+00
       N       E                     dE             d eps       ncg     rms          rms(c)
RMM:   1    -0.413194933932E+03   -0.39394E-02   -0.89806E+00  4303   0.781E-01    0.919E-01
RMM:   2    -0.413198493344E+03   -0.35594E-02   -0.11602E-01  4277   0.120E-01    0.680E-01
RMM:   3    -0.413193549757E+03    0.49436E-02   -0.22853E-02  4413   0.716E-02    0.720E-02
RMM:   4    -0.413198810351E+03   -0.52606E-02   -0.53911E-03  5149   0.627E-02    0.312E-01
RMM:   5    -0.413193373282E+03    0.54371E-02   -0.27728E-03  4824   0.511E-02    0.416E-02
RMM:   6    -0.413193422405E+03   -0.49122E-04   -0.78403E-04  5692   0.258E-02    0.299E-02
RMM:   7    -0.413193405302E+03    0.17102E-04   -0.25217E-04  5207   0.164E-02    0.189E-02
RMM:   8    -0.413193393169E+03    0.12133E-04   -0.22747E-05  4365   0.587E-03    0.767E-03
RMM:   9    -0.413193391944E+03    0.12246E-05   -0.30724E-06  2676   0.236E-03    0.499E-03
RMM:  10    -0.413193390260E+03    0.16846E-05   -0.13953E-06  2485   0.192E-03    0.258E-03
RMM:  11    -0.413193388813E+03    0.14470E-05   -0.88055E-07  2446   0.151E-03    0.124E-03
RMM:  12    -0.413193387074E+03    0.17392E-05   -0.50584E-07  2261   0.116E-03    0.556E-04
RMM:  13    -0.413193385716E+03    0.13579E-05   -0.26620E-07  1864   0.866E-04    0.297E-04
RMM:  14    -0.413193383896E+03    0.18200E-05   -0.13813E-07  1287   0.698E-04    0.212E-04
RMM:  15    -0.413193381258E+03    0.26373E-05   -0.96729E-08  1096   0.650E-04    0.103E-04
RMM:  16    -0.413193379324E+03    0.19348E-05   -0.61139E-08   961   0.617E-04    0.698E-05
RMM:  17    -0.413193376605E+03    0.27189E-05   -0.58512E-08  1036   0.613E-04    0.484E-05
RMM:  18    -0.413193374739E+03    0.18655E-05   -0.39933E-08   978   0.585E-04    0.454E-05
RMM:  19    -0.413193374026E+03    0.71354E-06   -0.16318E-08   707   0.539E-04
   34 T=    67. E= -.41286646E+03 F= -.41319337E+03 E0= -.41317202E+03  EK= 0.32691E+00 SP= 0.00E+00 SK= 0.00E+00
       N       E                     dE             d eps       ncg     rms          rms(c)
RMM:   1    -0.413201402007E+03   -0.80273E-02   -0.90644E+00  4302   0.841E-01    0.938E-01
RMM:   2    -0.413200813271E+03    0.58874E-03   -0.12097E-01  4273   0.127E-01    0.682E-01
RMM:   3    -0.413196122814E+03    0.46905E-02   -0.21404E-02  4276   0.735E-02    0.605E-02
RMM:   4    -0.413196114173E+03    0.86406E-05   -0.31200E-04  4892   0.119E-02    0.425E-02
RMM:   5    -0.413196393081E+03   -0.27891E-03   -0.41204E-04  5149   0.186E-02    0.783E-02
RMM:   6    -0.413196157349E+03    0.23573E-03   -0.39639E-04  5201   0.191E-02    0.367E-02
RMM:   7    -0.413196082932E+03    0.74417E-04   -0.21157E-04  4957   0.159E-02    0.136E-02
RMM:   8    -0.413196080621E+03    0.23110E-05   -0.31284E-05  4818   0.576E-03    0.516E-03
RMM:   9    -0.413196079133E+03    0.14880E-05   -0.42537E-06  2535   0.221E-03    0.231E-03
RMM:  10    -0.413196074107E+03    0.50257E-05   -0.11011E-06  2423   0.154E-03    0.900E-04
RMM:  11    -0.413196070406E+03    0.37018E-05   -0.38641E-07  1921   0.992E-04    0.548E-04
RMM:  12    -0.413196066429E+03    0.39770E-05   -0.19791E-07  1553   0.772E-04    0.445E-04
RMM:  13    -0.413196063723E+03    0.27056E-05   -0.85535E-08  1056   0.634E-04    0.303E-04
RMM:  14    -0.413196058354E+03    0.53691E-05   -0.13297E-07  1389   0.699E-04    0.249E-04
RMM:  15    -0.413196056042E+03    0.23120E-05   -0.46007E-08   786   0.588E-04    0.168E-04
RMM:  16    -0.413196052737E+03    0.33054E-05   -0.35209E-08   812   0.579E-04    0.862E-05
RMM:  17    -0.413196049742E+03    0.29948E-05   -0.35451E-08   910   0.582E-04    0.785E-05
RMM:  18    -0.413196049013E+03    0.72901E-06   -0.13647E-08   631   0.520E-04
   35 T=    67. E= -.41286668E+03 F= -.41319605E+03 E0= -.41317474E+03  EK= 0.32937E+00 SP= 0.00E+00 SK= 0.00E+00
       N       E                     dE             d eps       ncg     rms          rms(c)
RMM:   1    -0.413208972466E+03   -0.12923E-01   -0.91140E+00  4298   0.899E-01    0.937E-01
RMM:   2    -0.413202872882E+03    0.60996E-02   -0.12860E-01  4266   0.135E-01    0.679E-01
RMM:   3    -0.413198287915E+03    0.45850E-02   -0.20117E-02  4373   0.727E-02    0.733E-02
RMM:   4    -0.413202353588E+03   -0.40657E-02   -0.42966E-03  5171   0.556E-02    0.273E-01
RMM:   5    -0.413198259083E+03    0.40945E-02   -0.21733E-03  4832   0.457E-02    0.433E-02
RMM:   6    -0.413198296532E+03   -0.37450E-04   -0.69914E-04  5594   0.263E-02    0.331E-02
RMM:   7    -0.413198266962E+03    0.29570E-04   -0.27262E-04  5097   0.174E-02    0.192E-02
RMM:   8    -0.413198256280E+03    0.10682E-04   -0.30502E-05  4857   0.633E-03    0.812E-03
RMM:   9    -0.413198254213E+03    0.20671E-05   -0.42333E-06  2731   0.248E-03    0.440E-03
RMM:  10    -0.413198249451E+03    0.47612E-05   -0.12224E-06  2485   0.186E-03    0.242E-03
RMM:  11    -0.413198244625E+03    0.48264E-05   -0.76450E-07  2435   0.139E-03    0.103E-03
RMM:  12    -0.413198240325E+03    0.42999E-05   -0.39856E-07  2173   0.105E-03    0.467E-04
RMM:  13    -0.413198236537E+03    0.37882E-05   -0.22027E-07  1689   0.819E-04    0.274E-04
RMM:  14    -0.413198233112E+03    0.34251E-05   -0.10907E-07  1173   0.675E-04    0.195E-04
RMM:  15    -0.413198228539E+03    0.45730E-05   -0.75565E-08  1043   0.642E-04    0.984E-05
RMM:  16    -0.413198224632E+03    0.39069E-05   -0.63956E-08  1095   0.626E-04    0.769E-05
RMM:  17    -0.413198222264E+03    0.23680E-05   -0.37117E-08   903   0.579E-04    0.471E-05
RMM:  18    -0.413198218522E+03    0.37423E-05   -0.38107E-08   978   0.590E-04    0.302E-05
RMM:  19    -0.413198218068E+03    0.45407E-06   -0.11940E-08   603   0.525E-04
   36 T=    68. E= -.41286652E+03 F= -.41319822E+03 E0= -.41317696E+03  EK= 0.33170E+00 SP= 0.00E+00 SK= 0.00E+00
       N       E                     dE             d eps       ncg     rms          rms(c)
RMM:   1    -0.413203694919E+03   -0.54764E-02   -0.91146E+00  4307   0.854E-01    0.926E-01
RMM:   2    -0.413206468307E+03   -0.27734E-02   -0.12032E-01  4265   0.127E-01    0.684E-01
RMM:   3    -0.413201333347E+03    0.51350E-02   -0.22653E-02  4484   0.714E-02    0.747E-02
RMM:   4    -0.413209934868E+03   -0.86015E-02   -0.87531E-03  5163   0.793E-02    0.396E-01
RMM:   5    -0.413201134935E+03    0.87999E-02   -0.44813E-03  4826   0.655E-02    0.438E-02
RMM:   6    -0.413201163874E+03   -0.28939E-04   -0.10333E-03  5714   0.309E-02    0.317E-02
RMM:   7    -0.413201158512E+03    0.53619E-05   -0.31053E-04  5276   0.178E-02    0.201E-02
RMM:   8    -0.413201144423E+03    0.14090E-04   -0.34657E-05  4908   0.697E-03    0.912E-03
RMM:   9    -0.413201143035E+03    0.13880E-05   -0.52227E-06  2893   0.284E-03    0.544E-03
RMM:  10    -0.413201140932E+03    0.21029E-05   -0.16831E-06  2535   0.215E-03    0.287E-03
RMM:  11    -0.413201138583E+03    0.23484E-05   -0.10649E-06  2477   0.168E-03    0.141E-03
RMM:  12    -0.413201136108E+03    0.24758E-05   -0.63667E-07  2385   0.130E-03    0.710E-04
RMM:  13    -0.413201134326E+03    0.17812E-05   -0.32740E-07  1986   0.947E-04    0.344E-04
RMM:  14    -0.413201132467E+03    0.18595E-05   -0.16930E-07  1468   0.739E-04    0.219E-04
RMM:  15    -0.413201129595E+03    0.28725E-05   -0.10610E-07  1171   0.667E-04    0.125E-04
RMM:  16    -0.413201126969E+03    0.26257E-05   -0.73936E-08  1024   0.636E-04    0.781E-05
RMM:  17    -0.413201125099E+03    0.18694E-05   -0.44237E-08   899   0.600E-04    0.500E-05
RMM:  18    -0.413201121682E+03    0.34179E-05   -0.56237E-08  1142   0.620E-04    0.335E-05
RMM:  19    -0.413201120807E+03    0.87494E-06   -0.21080E-08   753   0.544E-04
   37 T=    68. E= -.41286681E+03 F= -.41320112E+03 E0= -.41317990E+03  EK= 0.33431E+00 SP= 0.00E+00 SK= 0.00E+00
       N       E                     dE             d eps       ncg     rms          rms(c)
RMM:   1    -0.413211937319E+03   -0.10816E-01   -0.92580E+00  4309   0.920E-01    0.944E-01
RMM:   2    -0.413209271426E+03    0.26659E-02   -0.12263E-01  4262   0.124E-01    0.691E-01
RMM:   3    -0.413204205813E+03    0.50656E-02   -0.22464E-02  4703   0.679E-02    0.102E-01
RMM:   4    -0.413228706228E+03   -0.24500E-01   -0.25296E-02  5137   0.133E-01    0.658E-01
RMM:   5    -0.413203705732E+03    0.25000E-01   -0.12485E-02  4811   0.109E-01    0.497E-02
RMM:   6    -0.413203752462E+03   -0.46730E-04   -0.21506E-03  5821   0.441E-02    0.327E-02
RMM:   7    -0.413203766912E+03   -0.14449E-04   -0.35080E-04  5577   0.184E-02    0.199E-02
RMM:   8    -0.413203752876E+03    0.14036E-04   -0.59495E-05  5061   0.844E-03    0.105E-02
RMM:   9    -0.413203751435E+03    0.14410E-05   -0.13430E-05  4046   0.437E-03    0.714E-03
RMM:  10    -0.413203747536E+03    0.38989E-05   -0.22331E-06  2621   0.247E-03    0.392E-03
RMM:  11    -0.413203745033E+03    0.25025E-05   -0.10188E-06  2487   0.169E-03    0.235E-03
RMM:  12    -0.413203739535E+03    0.54985E-05   -0.15379E-06  2526   0.195E-03    0.127E-03
RMM:  13    -0.413203736555E+03    0.29793E-05   -0.54815E-07  2353   0.130E-03    0.743E-04
RMM:  14    -0.413203735934E+03    0.62162E-06   -0.23593E-07  1913   0.860E-04
   38 T=    69. E= -.41286682E+03 F= -.41320374E+03 E0= -.41318256E+03  EK= 0.33692E+00 SP= 0.00E+00 SK= 0.00E+00
       N       E                     dE             d eps       ncg     rms          rms(c)
RMM:   1    -0.413219974031E+03   -0.16237E-01   -0.93248E+00  4309   0.101E+00    0.953E-01
RMM:   2    -0.413211879711E+03    0.80943E-02   -0.13283E-01  4263   0.127E-01    0.688E-01
RMM:   3    -0.413206919119E+03    0.49606E-02   -0.20462E-02  4850   0.626E-02    0.126E-01
RMM:   4    -0.413241604375E+03   -0.34685E-01   -0.36625E-02  5133   0.160E-01    0.777E-01
RMM:   5    -0.413206227581E+03    0.35377E-01   -0.17537E-02  4800   0.129E-01    0.543E-02
RMM:   6    -0.413206312215E+03   -0.84634E-04   -0.29719E-03  5815   0.515E-02    0.354E-02
RMM:   7    -0.413206319053E+03   -0.68383E-05   -0.39848E-04  5647   0.192E-02    0.193E-02
RMM:   8    -0.413206307558E+03    0.11495E-04   -0.58360E-05  5008   0.804E-03    0.107E-02
RMM:   9    -0.413206305509E+03    0.20496E-05   -0.20518E-05  4524   0.485E-03    0.812E-03
RMM:  10    -0.413206297856E+03    0.76526E-05   -0.29316E-06  2678   0.276E-03    0.447E-03
RMM:  11    -0.413206293817E+03    0.40386E-05   -0.13723E-06  2501   0.191E-03    0.275E-03
RMM:  12    -0.413206283870E+03    0.99475E-05   -0.18965E-06  2538   0.222E-03    0.138E-03
RMM:  13    -0.413206279236E+03    0.46342E-05   -0.70946E-07  2421   0.149E-03    0.883E-04
RMM:  14    -0.413206278479E+03    0.75619E-06   -0.28235E-07  2092   0.953E-04
   39 T=    69. E= -.41286670E+03 F= -.41320628E+03 E0= -.41318514E+03  EK= 0.33958E+00 SP= 0.00E+00 SK= 0.00E+00
       N       E                     dE             d eps       ncg     rms          rms(c)
RMM:   1    -0.413221259164E+03   -0.14980E-01   -0.93481E+00  4309   0.102E+00    0.937E-01
RMM:   2    -0.413215317447E+03    0.59417E-02   -0.12812E-01  4264   0.126E-01    0.690E-01
RMM:   3    -0.413210395065E+03    0.49224E-02   -0.22314E-02  4889   0.683E-02    0.141E-01
RMM:   4    -0.413249219731E+03   -0.38825E-01   -0.42541E-02  5133   0.172E-01    0.823E-01
RMM:   5    -0.413209303535E+03    0.39916E-01   -0.19415E-02  4795   0.137E-01    0.553E-02
RMM:   6    -0.413209411258E+03   -0.10772E-03   -0.33016E-03  5820   0.540E-02    0.351E-02
RMM:   7    -0.413209423408E+03   -0.12150E-04   -0.40379E-04  5650   0.191E-02    0.186E-02
RMM:   8    -0.413209415796E+03    0.76114E-05   -0.47726E-05  4751   0.711E-03    0.949E-03
RMM:   9    -0.413209414941E+03    0.85489E-06   -0.16109E-05  4156   0.421E-03    0.711E-03
RMM:  10    -0.413209410208E+03    0.47332E-05   -0.33380E-06  2763   0.259E-03    0.429E-03
RMM:  11    -0.413209406822E+03    0.33861E-05   -0.14812E-06  2503   0.199E-03    0.256E-03
RMM:  12    -0.413209399304E+03    0.75184E-05   -0.19124E-06  2552   0.216E-03    0.120E-03
RMM:  13    -0.413209396715E+03    0.25886E-05   -0.56628E-07  2416   0.138E-03    0.785E-04
RMM:  14    -0.413209396335E+03    0.38006E-06   -0.23694E-07  1979   0.878E-04
   40 T=    70. E= -.41286697E+03 F= -.41320940E+03 E0= -.41318830E+03  EK= 0.34243E+00 SP= 0.00E+00 SK= 0.00E+00
       N       E                     dE             d eps       ncg     rms          rms(c)
RMM:   1    -0.413217058628E+03   -0.76619E-02   -0.94082E+00  4307   0.101E+00    0.949E-01
RMM:   2    -0.413217663833E+03   -0.60520E-03   -0.13088E-01  4267   0.133E-01    0.701E-01
RMM:   3    -0.413213320048E+03    0.43438E-02   -0.23387E-02  4966   0.737E-02    0.182E-01
RMM:   4    -0.413257933611E+03   -0.44614E-01   -0.52278E-02  5122   0.191E-01    0.884E-01
RMM:   5    -0.413211443614E+03    0.46490E-01   -0.21968E-02  4783   0.147E-01    0.589E-02
RMM:   6    -0.413211578617E+03   -0.13500E-03   -0.37901E-03  5807   0.578E-02    0.364E-02
RMM:   7    -0.413211594055E+03   -0.15438E-04   -0.48029E-04  5719   0.205E-02    0.211E-02
RMM:   8    -0.413211595852E+03   -0.17970E-05   -0.10272E-04  5216   0.102E-02    0.135E-02
RMM:   9    -0.413211585151E+03    0.10701E-04   -0.23495E-05  4591   0.555E-03    0.745E-03
RMM:  10    -0.413211581564E+03    0.35876E-05   -0.40343E-06  2797   0.292E-03    0.443E-03
RMM:  11    -0.413211578911E+03    0.26523E-05   -0.14327E-06  2509   0.200E-03    0.269E-03
RMM:  12    -0.413211572707E+03    0.62046E-05   -0.16536E-06  2534   0.206E-03    0.115E-03
RMM:  13    -0.413211568475E+03    0.42316E-05   -0.72898E-07  2431   0.145E-03    0.758E-04
RMM:  14    -0.413211567742E+03    0.73297E-06   -0.30283E-07  2093   0.965E-04
   41 T=    70. E= -.41286660E+03 F= -.41321157E+03 E0= -.41319050E+03  EK= 0.34497E+00 SP= 0.00E+00 SK= 0.00E+00
       N       E                     dE             d eps       ncg     rms          rms(c)
RMM:   1    -0.413240147307E+03   -0.28579E-01   -0.96206E+00  4310   0.118E+00    0.967E-01
RMM:   2    -0.413219908076E+03    0.20239E-01   -0.14992E-01  4299   0.135E-01    0.699E-01
RMM:   3    -0.413216729860E+03    0.31782E-02   -0.20745E-02  5033   0.740E-02    0.233E-01
RMM:   4    -0.413263145464E+03   -0.46416E-01   -0.58341E-02  5110   0.203E-01    0.907E-01
RMM:   5    -0.413214095517E+03    0.49050E-01   -0.22634E-02  4770   0.151E-01    0.627E-02
RMM:   6    -0.413214230537E+03   -0.13502E-03   -0.39456E-03  5781   0.593E-02    0.386E-02
RMM:   7    -0.413214241606E+03   -0.11069E-04   -0.53624E-04  5731   0.215E-02    0.238E-02
RMM:   8    -0.413214239282E+03    0.23238E-05   -0.13327E-04  5245   0.118E-02    0.147E-02
RMM:   9    -0.413214224315E+03    0.14967E-04   -0.24369E-05  4581   0.602E-03    0.687E-03
RMM:  10    -0.413214218558E+03    0.57573E-05   -0.54642E-06  3029   0.304E-03    0.421E-03
RMM:  11    -0.413214214033E+03    0.45244E-05   -0.13932E-06  2510   0.200E-03    0.246E-03
RMM:  12    -0.413214204887E+03    0.91459E-05   -0.12536E-06  2486   0.189E-03    0.982E-04
RMM:  13    -0.413214198897E+03    0.59905E-05   -0.59470E-07  2400   0.134E-03    0.600E-04
RMM:  14    -0.413214197706E+03    0.11904E-05   -0.28063E-07  2050   0.932E-04    0.407E-04
RMM:  15    -0.413214195216E+03    0.24908E-05   -0.14457E-07  1525   0.729E-04    0.251E-04
RMM:  16    -0.413214187165E+03    0.80511E-05   -0.14241E-07  1668   0.749E-04    0.328E-04
RMM:  17    -0.413214185462E+03    0.17027E-05   -0.54636E-08   979   0.585E-04    0.221E-04
RMM:  18    -0.413214179489E+03    0.59728E-05   -0.67806E-08  1278   0.632E-04    0.159E-04
RMM:  19    -0.413214177656E+03    0.18336E-05   -0.34238E-08   929   0.562E-04    0.551E-05
RMM:  20    -0.413214175888E+03    0.17676E-05   -0.36272E-08  1060   0.579E-04    0.112E-04
RMM:  21    -0.413214175815E+03    0.72698E-07   -0.12531E-08   696   0.521E-04
   42 T=    71. E= -.41286671E+03 F= -.41321418E+03 E0= -.41319314E+03  EK= 0.34747E+00 SP= 0.00E+00 SK= 0.00E+00
       N       E                     dE             d eps       ncg     rms          rms(c)
RMM:   1    -0.413233173143E+03   -0.18997E-01   -0.95139E+00  4310   0.119E+00    0.947E-01
RMM:   2    -0.413222032317E+03    0.11141E-01   -0.14095E-01  4318   0.140E-01    0.697E-01
RMM:   3    -0.413220505170E+03    0.15271E-02   -0.23569E-02  5061   0.864E-02    0.282E-01
RMM:   4    -0.413257883451E+03   -0.37378E-01   -0.54986E-02  5094   0.198E-01    0.836E-01
RMM:   5    -0.413216243790E+03    0.41640E-01   -0.17928E-02  4738   0.138E-01    0.613E-02
RMM:   6    -0.413216333362E+03   -0.89572E-04   -0.33447E-03  5762   0.545E-02    0.371E-02
RMM:   7    -0.413216339984E+03   -0.66227E-05   -0.50753E-04  5697   0.209E-02    0.241E-02
RMM:   8    -0.413216335933E+03    0.40519E-05   -0.12423E-04  5211   0.117E-02    0.133E-02
RMM:   9    -0.413216324850E+03    0.11083E-04   -0.18885E-05  4355   0.555E-03    0.594E-03
RMM:  10    -0.413216321427E+03    0.34227E-05   -0.42888E-06  2851   0.275E-03    0.367E-03
RMM:  11    -0.413216318516E+03    0.29110E-05   -0.12623E-06  2498   0.189E-03    0.205E-03
RMM:  12    -0.413216312802E+03    0.57147E-05   -0.10643E-06  2479   0.171E-03    0.845E-04
RMM:  13    -0.413216309047E+03    0.37543E-05   -0.50920E-07  2335   0.122E-03    0.453E-04
RMM:  14    -0.413216307861E+03    0.11860E-05   -0.25122E-07  1902   0.872E-04    0.311E-04
RMM:  15    -0.413216305147E+03    0.27141E-05   -0.14123E-07  1442   0.716E-04    0.151E-04
RMM:  16    -0.413216301112E+03    0.40351E-05   -0.98440E-08  1192   0.668E-04    0.140E-04
RMM:  17    -0.413216298772E+03    0.23407E-05   -0.61207E-08  1027   0.622E-04    0.878E-05
RMM:  18    -0.413216295927E+03    0.28448E-05   -0.51092E-08  1068   0.619E-04    0.627E-05
RMM:  19    -0.413216293277E+03    0.26497E-05   -0.43840E-08  1099   0.603E-04    0.350E-05
RMM:  20    -0.413216292514E+03    0.76327E-06   -0.20819E-08   793   0.548E-04
   43 T=    71. E= -.41286673E+03 F= -.41321629E+03 E0= -.41319529E+03  EK= 0.34956E+00 SP= 0.00E+00 SK= 0.00E+00
       N       E                     dE             d eps       ncg     rms          rms(c)
RMM:   1    -0.413228680254E+03   -0.12387E-01   -0.95693E+00  4312   0.120E+00    0.951E-01
RMM:   2    -0.413223596078E+03    0.50842E-02   -0.14248E-01  4327   0.149E-01    0.708E-01
RMM:   3    -0.413222890397E+03    0.70568E-03   -0.25767E-02  5059   0.944E-02    0.313E-01
RMM:   4    -0.413257667141E+03   -0.34777E-01   -0.55785E-02  5086   0.201E-01    0.821E-01
RMM:   5    -0.413217497361E+03    0.40170E-01   -0.16776E-02  4722   0.135E-01    0.612E-02
RMM:   6    -0.413217570310E+03   -0.72949E-04   -0.31728E-03  5748   0.531E-02    0.359E-02
RMM:   7    -0.413217573484E+03   -0.31738E-05   -0.47157E-04  5689   0.205E-02    0.235E-02
RMM:   8    -0.413217570162E+03    0.33219E-05   -0.12160E-04  5189   0.116E-02    0.126E-02
RMM:   9    -0.413217561246E+03    0.89155E-05   -0.17864E-05  4318   0.550E-03    0.541E-03
RMM:  10    -0.413217559022E+03    0.22248E-05   -0.40290E-06  2814   0.265E-03    0.337E-03
RMM:  11    -0.413217556808E+03    0.22135E-05   -0.12367E-06  2496   0.185E-03    0.184E-03
RMM:  12    -0.413217552691E+03    0.41172E-05   -0.98815E-07  2478   0.161E-03    0.770E-04
RMM:  13    -0.413217549879E+03    0.28118E-05   -0.46764E-07  2254   0.115E-03    0.379E-04
RMM:  14    -0.413217548498E+03    0.13811E-05   -0.23577E-07  1780   0.839E-04    0.251E-04
RMM:  15    -0.413217545000E+03    0.34980E-05   -0.15932E-07  1409   0.736E-04    0.146E-04
RMM:  16    -0.413217542730E+03    0.22698E-05   -0.96207E-08  1163   0.659E-04    0.113E-04
RMM:  17    -0.413217540584E+03    0.21466E-05   -0.69141E-08  1078   0.629E-04    0.774E-05
RMM:  18    -0.413217537823E+03    0.27608E-05   -0.59811E-08  1149   0.625E-04    0.428E-05
RMM:  19    -0.413217535662E+03    0.21606E-05   -0.39649E-08   991   0.588E-04    0.332E-05
RMM:  20    -0.413217535029E+03    0.63318E-06   -0.21099E-08   778   0.552E-04
   44 T=    71. E= -.41286647E+03 F= -.41321754E+03 E0= -.41319655E+03  EK= 0.35107E+00 SP= 0.00E+00 SK= 0.00E+00
       N       E                     dE             d eps       ncg     rms          rms(c)
RMM:   1    -0.413243925027E+03   -0.26389E-01   -0.96763E+00  4309   0.135E+00    0.973E-01
RMM:   2    -0.413224641052E+03    0.19284E-01   -0.15127E-01  4332   0.160E-01    0.707E-01
RMM:   3    -0.413226683766E+03   -0.20427E-02   -0.25637E-02  5082   0.104E-01    0.384E-01
RMM:   4    -0.413249957568E+03   -0.23274E-01   -0.50429E-02  5063   0.193E-01    0.725E-01
RMM:   5    -0.413218917587E+03    0.31040E-01   -0.11958E-02  4686   0.119E-01    0.609E-02
RMM:   6    -0.413218929422E+03   -0.11835E-04   -0.24269E-03  5661   0.471E-02    0.362E-02
RMM:   7    -0.413218929663E+03   -0.24094E-06   -0.42046E-04  5634   0.198E-02    0.238E-02
RMM:   8    -0.413218922739E+03    0.69240E-05   -0.11923E-04  5113   0.119E-02    0.117E-02
RMM:   9    -0.413218911196E+03    0.11543E-04   -0.15295E-05  4232   0.543E-03    0.482E-03
RMM:  10    -0.413218907138E+03    0.40576E-05   -0.34499E-06  2773   0.248E-03    0.292E-03
RMM:  11    -0.413218902353E+03    0.47850E-05   -0.11585E-06  2490   0.179E-03    0.156E-03
RMM:  12    -0.413218895799E+03    0.65543E-05   -0.73624E-07  2437   0.144E-03    0.673E-04
RMM:  13    -0.413218891930E+03    0.38686E-05   -0.35550E-07  2060   0.102E-03    0.307E-04
RMM:  14    -0.413218889146E+03    0.27838E-05   -0.19575E-07  1605   0.791E-04    0.195E-04
RMM:  15    -0.413218883350E+03    0.57964E-05   -0.14133E-07  1358   0.729E-04    0.142E-04
RMM:  16    -0.413218880849E+03    0.25007E-05   -0.84174E-08  1143   0.656E-04    0.920E-05
RMM:  17    -0.413218876758E+03    0.40910E-05   -0.76665E-08  1274   0.653E-04    0.536E-05
RMM:  18    -0.413218873757E+03    0.30007E-05   -0.51841E-08  1119   0.605E-04    0.401E-05
RMM:  19    -0.413218871628E+03    0.21289E-05   -0.36808E-08   999   0.570E-04    0.255E-05
RMM:  20    -0.413218871221E+03    0.40706E-06   -0.18207E-08   735   0.531E-04
   45 T=    72. E= -.41286675E+03 F= -.41321887E+03 E0= -.41319791E+03  EK= 0.35212E+00 SP= 0.00E+00 SK= 0.00E+00
       N       E                     dE             d eps       ncg     rms          rms(c)
RMM:   1    -0.413240354413E+03   -0.21483E-01   -0.95521E+00  4310   0.141E+00    0.956E-01
RMM:   2    -0.413224354572E+03    0.16000E-01   -0.14779E-01  4351   0.169E-01    0.700E-01
RMM:   3    -0.413229295208E+03   -0.49406E-02   -0.28086E-02  5095   0.117E-01    0.445E-01
RMM:   4    -0.413243158238E+03   -0.13863E-01   -0.47029E-02  5044   0.189E-01    0.646E-01
RMM:   5    -0.413218607680E+03    0.24551E-01   -0.86175E-03  4642   0.107E-01    0.590E-02
RMM:   6    -0.413218581187E+03    0.26493E-04   -0.18811E-03  5564   0.417E-02    0.339E-02
RMM:   7    -0.413218577296E+03    0.38911E-05   -0.35063E-04  5564   0.184E-02    0.226E-02
RMM:   8    -0.413218568343E+03    0.89533E-05   -0.12097E-04  5071   0.119E-02    0.107E-02
RMM:   9    -0.413218557262E+03    0.11081E-04   -0.13710E-05  4131   0.525E-03    0.444E-03
RMM:  10    -0.413218553780E+03    0.34822E-05   -0.26995E-06  2685   0.231E-03    0.260E-03
RMM:  11    -0.413218549107E+03    0.46728E-05   -0.11269E-06  2490   0.173E-03    0.136E-03
RMM:  12    -0.413218543534E+03    0.55724E-05   -0.66425E-07  2414   0.135E-03    0.656E-04
RMM:  13    -0.413218540022E+03    0.35122E-05   -0.31609E-07  1923   0.958E-04    0.294E-04
RMM:  14    -0.413218536948E+03    0.30739E-05   -0.18032E-07  1465   0.758E-04    0.169E-04
RMM:  15    -0.413218531910E+03    0.50385E-05   -0.13536E-07  1291   0.716E-04    0.124E-04
RMM:  16    -0.413218529346E+03    0.25635E-05   -0.85941E-08  1136   0.653E-04    0.826E-05
RMM:  17    -0.413218524269E+03    0.50773E-05   -0.88015E-08  1395   0.671E-04    0.605E-05
RMM:  18    -0.413218522252E+03    0.20168E-05   -0.48304E-08  1040   0.576E-04    0.355E-05
RMM:  19    -0.413218520567E+03    0.16852E-05   -0.33818E-08   921   0.550E-04    0.191E-05
RMM:  20    -0.413218520223E+03    0.34345E-06   -0.19437E-08   729   0.519E-04
   46 T=    72. E= -.41286654E+03 F= -.41321852E+03 E0= -.41319758E+03  EK= 0.35198E+00 SP= 0.00E+00 SK= 0.00E+00
       N       E                     dE             d eps       ncg     rms          rms(c)
RMM:   1    -0.413231666615E+03   -0.13146E-01   -0.95028E+00  4310   0.142E+00    0.947E-01
RMM:   2    -0.413223453623E+03    0.82130E-02   -0.14630E-01  4372   0.175E-01    0.708E-01
RMM:   3    -0.413231049668E+03   -0.75960E-02   -0.31709E-02  5094   0.130E-01    0.495E-01
RMM:   4    -0.413239827083E+03   -0.87774E-02   -0.47931E-02  5038   0.192E-01    0.616E-01
RMM:   5    -0.413217459899E+03    0.22367E-01   -0.74130E-03  4612   0.103E-01    0.582E-02
RMM:   6    -0.413217413437E+03    0.46462E-04   -0.16158E-03  5462   0.392E-02    0.314E-02
RMM:   7    -0.413217417148E+03   -0.37113E-05   -0.30069E-04  5561   0.173E-02    0.214E-02
RMM:   8    -0.413217409953E+03    0.71957E-05   -0.12331E-04  5069   0.119E-02    0.100E-02
RMM:   9    -0.413217400225E+03    0.97273E-05   -0.12858E-05  4045   0.516E-03    0.424E-03
RMM:  10    -0.413217397929E+03    0.22968E-05   -0.26677E-06  2685   0.225E-03    0.244E-03
RMM:  11    -0.413217394460E+03    0.34684E-05   -0.11618E-06  2488   0.174E-03    0.125E-03
RMM:  12    -0.413217390914E+03    0.35460E-05   -0.63492E-07  2373   0.131E-03    0.652E-04
RMM:  13    -0.413217388218E+03    0.26957E-05   -0.31526E-07  1858   0.941E-04    0.299E-04
RMM:  14    -0.413217385608E+03    0.26108E-05   -0.18398E-07  1411   0.753E-04    0.165E-04
RMM:  15    -0.413217382096E+03    0.35119E-05   -0.14148E-07  1335   0.715E-04    0.116E-04
RMM:  16    -0.413217379925E+03    0.21709E-05   -0.90479E-08  1187   0.649E-04    0.834E-05
RMM:  17    -0.413217375592E+03    0.43331E-05   -0.95401E-08  1403   0.670E-04    0.587E-05
RMM:  18    -0.413217374248E+03    0.13436E-05   -0.42457E-08   913   0.558E-04    0.370E-05
RMM:  19    -0.413217373031E+03    0.12174E-05   -0.29868E-08   874   0.546E-04    0.202E-05
RMM:  20    -0.413217372228E+03    0.80261E-06   -0.19304E-08   759   0.527E-04
   47 T=    71. E= -.41286666E+03 F= -.41321737E+03 E0= -.41319645E+03  EK= 0.35072E+00 SP= 0.00E+00 SK= 0.00E+00
       N       E                     dE             d eps       ncg     rms          rms(c)
RMM:   1    -0.413238937737E+03   -0.21565E-01   -0.94881E+00  4307   0.157E+00    0.962E-01
RMM:   2    -0.413220933618E+03    0.18004E-01   -0.15572E-01  4424   0.190E-01    0.707E-01
RMM:   3    -0.413235156452E+03   -0.14223E-01   -0.34821E-02  5127   0.146E-01    0.605E-01
RMM:   4    -0.413230085851E+03    0.50706E-02   -0.44923E-02  4991   0.189E-01    0.508E-01
RMM:   5    -0.413215163509E+03    0.14922E-01   -0.46762E-03  4563   0.908E-02    0.582E-02
RMM:   6    -0.413215060376E+03    0.10313E-03   -0.87198E-04  5051   0.318E-02    0.307E-02
RMM:   7    -0.413215054374E+03    0.60014E-05   -0.19371E-04  5541   0.141E-02    0.164E-02
RMM:   8    -0.413215055674E+03   -0.12994E-05   -0.11999E-04  5217   0.113E-02    0.122E-02
RMM:   9    -0.413215039790E+03    0.15884E-04   -0.19410E-05  4465   0.589E-03    0.438E-03
RMM:  10    -0.413215037000E+03    0.27901E-05   -0.35079E-06  2766   0.246E-03    0.241E-03
RMM:  11    -0.413215031344E+03    0.56554E-05   -0.14017E-06  2440   0.193E-03    0.130E-03
RMM:  12    -0.413215027544E+03    0.38007E-05   -0.61538E-07  2353   0.136E-03    0.769E-04
RMM:  13    -0.413215023317E+03    0.42262E-05   -0.30116E-07  1846   0.967E-04    0.380E-04
RMM:  14    -0.413215018979E+03    0.43389E-05   -0.15768E-07  1433   0.741E-04    0.205E-04
RMM:  15    -0.413215014962E+03    0.40167E-05   -0.99366E-08  1155   0.658E-04    0.123E-04
RMM:  16    -0.413215012004E+03    0.29576E-05   -0.71220E-08  1095   0.620E-04    0.102E-04
RMM:  17    -0.413215007736E+03    0.42683E-05   -0.65343E-08  1177   0.616E-04    0.609E-05
RMM:  18    -0.413215005277E+03    0.24590E-05   -0.37248E-08   910   0.555E-04    0.494E-05
RMM:  19    -0.413215004179E+03    0.10976E-05   -0.19661E-08   716   0.519E-04    0.329E-05
RMM:  20    -0.413215002771E+03    0.14079E-05   -0.19232E-08   759   0.525E-04    0.163E-05
RMM:  21    -0.413215002474E+03    0.29704E-06   -0.97056E-09   589   0.496E-04
   48 T=    71. E= -.41286690E+03 F= -.41321500E+03 E0= -.41319409E+03  EK= 0.34811E+00 SP= 0.00E+00 SK= 0.00E+00
       N       E                     dE             d eps       ncg     rms          rms(c)
RMM:   1    -0.413244617867E+03   -0.29615E-01   -0.93920E+00  4303   0.172E+00    0.949E-01
RMM:   2    -0.413215976458E+03    0.28641E-01   -0.16520E-01  4483   0.203E-01    0.696E-01
RMM:   3    -0.413237323750E+03   -0.21347E-01   -0.38360E-02  5142   0.162E-01    0.703E-01
RMM:   4    -0.413220650408E+03    0.16673E-01   -0.43660E-02  4971   0.189E-01    0.427E-01
RMM:   5    -0.413210506808E+03    0.10144E-01   -0.39442E-03  4573   0.876E-02    0.623E-02
RMM:   6    -0.413210346801E+03    0.16001E-03   -0.50155E-04  4720   0.289E-02    0.321E-02
RMM:   7    -0.413210352155E+03   -0.53540E-05   -0.26578E-04  5815   0.171E-02    0.200E-02
RMM:   8    -0.413210334320E+03    0.17835E-04   -0.96371E-05  5112   0.110E-02    0.106E-02
RMM:   9    -0.413210327205E+03    0.71149E-05   -0.16385E-05  4545   0.545E-03    0.457E-03
RMM:  10    -0.413210323265E+03    0.39402E-05   -0.23070E-06  2637   0.239E-03    0.246E-03
RMM:  11    -0.413210317324E+03    0.59411E-05   -0.13650E-06  2493   0.191E-03    0.173E-03
[...]
RMM:   9    -0.413158335548E+03   -0.15746E-05   -0.11005E-05  3444   0.381E-03    0.362E-03
RMM:  10    -0.413158338191E+03   -0.26432E-05   -0.24107E-06  2596   0.212E-03    0.233E-03
RMM:  11    -0.413158342010E+03   -0.38189E-05   -0.15433E-06  2531   0.180E-03    0.137E-03
RMM:  12    -0.413158343415E+03   -0.14044E-05   -0.72622E-07  2433   0.131E-03    0.588E-04
RMM:  13    -0.413158344107E+03   -0.69263E-06   -0.41072E-07  1962   0.971E-04
  136 T=    59. E= -.41286680E+03 F= -.41315834E+03 E0= -.41313760E+03  EK= 0.29155E+00 SP= 0.00E+00 SK= 0.00E+00
       N       E                     dE             d eps       ncg     rms          rms(c)
RMM:   1    -0.413152453658E+03    0.58898E-02   -0.96042E+00  4267   0.828E-01    0.832E-01
RMM:   2    -0.413160894557E+03   -0.84409E-02   -0.11551E-01  4319   0.977E-02    0.606E-01
RMM:   3    -0.413160361661E+03    0.53290E-03   -0.85914E-03  5070   0.527E-02    0.186E-01
RMM:   4    -0.413198027275E+03   -0.37666E-01   -0.44179E-02  5134   0.176E-01    0.814E-01
RMM:   5    -0.413159024805E+03    0.39002E-01   -0.18371E-02  4791   0.137E-01    0.559E-02
RMM:   6    -0.413159046370E+03   -0.21564E-04   -0.30583E-03  5682   0.531E-02    0.228E-02
RMM:   7    -0.413159085338E+03   -0.38969E-04   -0.40970E-04  6065   0.170E-02    0.161E-02
RMM:   8    -0.413159098406E+03   -0.13068E-04   -0.72591E-05  5314   0.837E-03    0.871E-03
RMM:   9    -0.413159105266E+03   -0.68602E-05   -0.11670E-05  3483   0.387E-03    0.368E-03
RMM:  10    -0.413159111624E+03   -0.63580E-05   -0.28040E-06  2632   0.222E-03    0.245E-03
RMM:  11    -0.413159120586E+03   -0.89622E-05   -0.16740E-06  2546   0.185E-03    0.137E-03
RMM:  12    -0.413159125609E+03   -0.50223E-05   -0.89952E-07  2469   0.138E-03    0.572E-04
RMM:  13    -0.413159128206E+03   -0.25969E-05   -0.48632E-07  1995   0.102E-03    0.332E-04
RMM:  14    -0.413159129944E+03   -0.17385E-05   -0.31404E-07  1567   0.850E-04    0.218E-04
RMM:  15    -0.413159132554E+03   -0.26096E-05   -0.58149E-07  2005   0.947E-04    0.198E-04
RMM:  16    -0.413159132749E+03   -0.19527E-06   -0.17210E-07  1250   0.651E-04
  137 T=    59. E= -.41286701E+03 F= -.41315913E+03 E0= -.41313840E+03  EK= 0.29212E+00 SP= 0.00E+00 SK= 0.00E+00
       N       E                     dE             d eps       ncg     rms          rms(c)
RMM:   1    -0.413153486989E+03    0.56456E-02   -0.94801E+00  4267   0.830E-01    0.847E-01
RMM:   2    -0.413161172658E+03   -0.76857E-02   -0.11336E-01  4321   0.967E-02    0.610E-01
RMM:   3    -0.413160159298E+03    0.10134E-02   -0.91490E-03  5045   0.507E-02    0.169E-01
RMM:   4    -0.413197396081E+03   -0.37237E-01   -0.42282E-02  5139   0.172E-01    0.806E-01
RMM:   5    -0.413159103562E+03    0.38293E-01   -0.18315E-02  4793   0.136E-01    0.555E-02
RMM:   6    -0.413159129122E+03   -0.25560E-04   -0.29852E-03  5697   0.528E-02    0.250E-02
RMM:   7    -0.413159162813E+03   -0.33690E-04   -0.40610E-04  6034   0.171E-02    0.167E-02
RMM:   8    -0.413159173074E+03   -0.10261E-04   -0.75896E-05  5312   0.874E-03    0.888E-03
RMM:   9    -0.413159176079E+03   -0.30051E-05   -0.11275E-05  3481   0.387E-03    0.383E-03
RMM:  10    -0.413159180971E+03   -0.48917E-05   -0.29658E-06  2656   0.226E-03    0.260E-03
RMM:  11    -0.413159186842E+03   -0.58707E-05   -0.15302E-06  2530   0.182E-03    0.137E-03
RMM:  12    -0.413159190386E+03   -0.35448E-05   -0.89378E-07  2455   0.139E-03    0.507E-04
RMM:  13    -0.413159191826E+03   -0.14397E-05   -0.46191E-07  2028   0.101E-03    0.322E-04
RMM:  14    -0.413159192702E+03   -0.87645E-06   -0.29826E-07  1557   0.840E-04
  138 T=    60. E= -.41286683E+03 F= -.41315919E+03 E0= -.41313847E+03  EK= 0.29236E+00 SP= 0.00E+00 SK= 0.00E+00
       N       E                     dE             d eps       ncg     rms          rms(c)
RMM:   1    -0.413154092682E+03    0.50991E-02   -0.92699E+00  4269   0.820E-01    0.857E-01
RMM:   2    -0.413160585366E+03   -0.64927E-02   -0.11004E-01  4319   0.948E-02    0.604E-01
RMM:   3    -0.413159574069E+03    0.10113E-02   -0.96755E-03  5036   0.473E-02    0.156E-01
RMM:   4    -0.413194185734E+03   -0.34612E-01   -0.38398E-02  5143   0.163E-01    0.777E-01
RMM:   5    -0.413158781903E+03    0.35404E-01   -0.17162E-02  4796   0.131E-01    0.557E-02
RMM:   6    -0.413158799153E+03   -0.17251E-04   -0.28064E-03  5686   0.513E-02    0.278E-02
RMM:   7    -0.413158826202E+03   -0.27049E-04   -0.40303E-04  6004   0.172E-02    0.174E-02
RMM:   8    -0.413158830613E+03   -0.44113E-05   -0.76912E-05  5305   0.900E-03    0.902E-03
RMM:   9    -0.413158829325E+03    0.12888E-05   -0.10641E-05  3469   0.384E-03    0.406E-03
RMM:  10    -0.413158831199E+03   -0.18741E-05   -0.30195E-06  2667   0.231E-03    0.276E-03
RMM:  11    -0.413158832724E+03   -0.15251E-05   -0.14640E-06  2521   0.183E-03    0.142E-03
RMM:  12    -0.413158833140E+03   -0.41584E-06   -0.94245E-07  2457   0.142E-03
  139 T=    59. E= -.41286672E+03 F= -.41315883E+03 E0= -.41313812E+03  EK= 0.29212E+00 SP= 0.00E+00 SK= 0.00E+00
       N       E                     dE             d eps       ncg     rms          rms(c)
RMM:   1    -0.413155058661E+03    0.37741E-02   -0.90197E+00  4272   0.813E-01    0.832E-01
RMM:   2    -0.413161906010E+03   -0.68473E-02   -0.10859E-01  4317   0.938E-02    0.606E-01
RMM:   3    -0.413160082710E+03    0.18233E-02   -0.10276E-02  5018   0.458E-02    0.130E-01
RMM:   4    -0.413191557086E+03   -0.31474E-01   -0.34094E-02  5145   0.154E-01    0.740E-01
RMM:   5    -0.413159475071E+03    0.32082E-01   -0.15630E-02  4807   0.124E-01    0.519E-02
RMM:   6    -0.413159508137E+03   -0.33066E-04   -0.25897E-03  5707   0.489E-02    0.274E-02
RMM:   7    -0.413159537372E+03   -0.29235E-04   -0.37910E-04  5966   0.166E-02    0.167E-02
RMM:   8    -0.413159548064E+03   -0.10692E-04   -0.69741E-05  5238   0.862E-03    0.861E-03
RMM:   9    -0.413159550623E+03   -0.25592E-05   -0.97071E-06  3394   0.368E-03    0.411E-03
RMM:  10    -0.413159556607E+03   -0.59836E-05   -0.27855E-06  2639   0.225E-03    0.278E-03
RMM:  11    -0.413159562125E+03   -0.55180E-05   -0.14210E-06  2531   0.178E-03    0.140E-03
RMM:  12    -0.413159566630E+03   -0.45051E-05   -0.11190E-06  2481   0.147E-03    0.528E-04
RMM:  13    -0.413159568133E+03   -0.15028E-05   -0.54746E-07  2102   0.105E-03    0.379E-04
RMM:  14    -0.413159568813E+03   -0.68007E-06   -0.33279E-07  1611   0.853E-04
  140 T=    60. E= -.41286696E+03 F= -.41315957E+03 E0= -.41313886E+03  EK= 0.29261E+00 SP= 0.00E+00 SK= 0.00E+00
       N       E                     dE             d eps       ncg     rms          rms(c)
RMM:   1    -0.413155816555E+03    0.37516E-02   -0.88881E+00  4266   0.810E-01    0.841E-01
RMM:   2    -0.413162290685E+03   -0.64741E-02   -0.10715E-01  4316   0.940E-02    0.615E-01
RMM:   3    -0.413159863154E+03    0.24275E-02   -0.11659E-02  4997   0.463E-02    0.118E-01
RMM:   4    -0.413189235120E+03   -0.29372E-01   -0.31716E-02  5139   0.149E-01    0.715E-01
RMM:   5    -0.413159324893E+03    0.29910E-01   -0.14570E-02  4806   0.119E-01    0.522E-02
RMM:   6    -0.413159350534E+03   -0.25641E-04   -0.24640E-03  5690   0.475E-02    0.282E-02
RMM:   7    -0.413159381605E+03   -0.31072E-04   -0.37040E-04  5955   0.164E-02    0.167E-02
RMM:   8    -0.413159392060E+03   -0.10454E-04   -0.67981E-05  5234   0.858E-03    0.859E-03
RMM:   9    -0.413159395061E+03   -0.30015E-05   -0.89984E-06  3329   0.357E-03    0.415E-03
RMM:  10    -0.413159401744E+03   -0.66832E-05   -0.26897E-06  2622   0.226E-03    0.277E-03
RMM:  11    -0.413159408057E+03   -0.63130E-05   -0.14186E-06  2528   0.178E-03    0.138E-03
RMM:  12    -0.413159413180E+03   -0.51226E-05   -0.10691E-06  2475   0.144E-03    0.542E-04
RMM:  13    -0.413159415094E+03   -0.19141E-05   -0.52772E-07  2083   0.104E-03    0.376E-04
RMM:  14    -0.413159416166E+03   -0.10719E-05   -0.33847E-07  1648   0.856E-04    0.222E-04
RMM:  15    -0.413159417050E+03   -0.88420E-06   -0.39691E-07  1767   0.851E-04
  141 T=    60. E= -.41286658E+03 F= -.41315942E+03 E0= -.41313872E+03  EK= 0.29284E+00 SP= 0.00E+00 SK= 0.00E+00
       N       E                     dE             d eps       ncg     rms          rms(c)
RMM:   1    -0.413157002323E+03    0.24138E-02   -0.86647E+00  4264   0.804E-01    0.858E-01
RMM:   2    -0.413162015069E+03   -0.50127E-02   -0.10369E-01  4318   0.914E-02    0.610E-01
RMM:   3    -0.413159783133E+03    0.22319E-02   -0.12305E-02  4981   0.449E-02    0.115E-01
RMM:   4    -0.413185796044E+03   -0.26013E-01   -0.27752E-02  5142   0.139E-01    0.674E-01
RMM:   5    -0.413159369558E+03    0.26426E-01   -0.13010E-02  4812   0.113E-01    0.520E-02
RMM:   6    -0.413159386068E+03   -0.16510E-04   -0.22038E-03  5687   0.454E-02    0.308E-02
RMM:   7    -0.413159402960E+03   -0.16892E-04   -0.36141E-04  5887   0.165E-02    0.173E-02
RMM:   8    -0.413159405829E+03   -0.28693E-05   -0.64532E-05  5214   0.857E-03    0.875E-03
RMM:   9    -0.413159404553E+03    0.12764E-05   -0.83282E-06  3267   0.345E-03    0.444E-03
RMM:  10    -0.413159406048E+03   -0.14950E-05   -0.25232E-06  2603   0.227E-03    0.283E-03
RMM:  11    -0.413159406645E+03   -0.59748E-06   -0.12640E-06  2510   0.173E-03
  142 T=    60. E= -.41286678E+03 F= -.41315941E+03 E0= -.41313871E+03  EK= 0.29263E+00 SP= 0.00E+00 SK= 0.00E+00
       N       E                     dE             d eps       ncg     rms          rms(c)
RMM:   1    -0.413157543337E+03    0.18627E-02   -0.83919E+00  4264   0.795E-01    0.835E-01
RMM:   2    -0.413162874695E+03   -0.53314E-02   -0.10129E-01  4326   0.900E-02    0.607E-01
RMM:   3    -0.413159775095E+03    0.30996E-02   -0.13233E-02  4911   0.419E-02    0.802E-02
RMM:   4    -0.413173024031E+03   -0.13249E-01   -0.13848E-02  5159   0.988E-02    0.485E-01
RMM:   5    -0.413159620519E+03    0.13404E-01   -0.67433E-03  4833   0.808E-02    0.446E-02
RMM:   6    -0.413159625977E+03   -0.54582E-05   -0.12322E-03  5664   0.346E-02    0.298E-02
RMM:   7    -0.413159641280E+03   -0.15303E-04   -0.26528E-04  5679   0.145E-02    0.156E-02
RMM:   8    -0.413159644513E+03   -0.32331E-05   -0.45080E-05  5084   0.745E-03    0.793E-03
RMM:   9    -0.413159645683E+03   -0.11704E-05   -0.49390E-06  2921   0.271E-03    0.416E-03
RMM:  10    -0.413159650713E+03   -0.50293E-05   -0.18354E-06  2557   0.203E-03    0.239E-03
RMM:  11    -0.413159654204E+03   -0.34915E-05   -0.11030E-06  2501   0.154E-03    0.116E-03
RMM:  12    -0.413159656765E+03   -0.25608E-05   -0.91068E-07  2412   0.132E-03    0.571E-04
RMM:  13    -0.413159657762E+03   -0.99713E-06   -0.58230E-07  2093   0.103E-03
  143 T=    60. E= -.41286681E+03 F= -.41315966E+03 E0= -.41313897E+03  EK= 0.29285E+00 SP= 0.00E+00 SK= 0.00E+00
       N       E                     dE             d eps       ncg     rms          rms(c)
RMM:   1    -0.413158479781E+03    0.11770E-02   -0.82773E+00  4264   0.793E-01    0.838E-01
RMM:   2    -0.413163589292E+03   -0.51095E-02   -0.10044E-01  4337   0.888E-02    0.618E-01
RMM:   3    -0.413159835681E+03    0.37536E-02   -0.15455E-02  4806   0.412E-02    0.592E-02
RMM:   4    -0.413163975627E+03   -0.41399E-02   -0.44638E-03  5158   0.580E-02    0.274E-01
RMM:   5    -0.413159783891E+03    0.41917E-02   -0.21646E-03  4848   0.463E-02    0.403E-02
RMM:   6    -0.413159784535E+03   -0.64438E-06   -0.52757E-04  5518   0.237E-02    0.285E-02
RMM:   7    -0.413159797057E+03   -0.12521E-04   -0.19984E-04  5352   0.126E-02    0.158E-02
RMM:   8    -0.413159797353E+03   -0.29598E-06   -0.28972E-05  4805   0.636E-03    0.768E-03
RMM:   9    -0.413159799711E+03   -0.23578E-05   -0.45505E-06  2711   0.232E-03    0.333E-03
RMM:  10    -0.413159807639E+03   -0.79281E-05   -0.13781E-06  2528   0.175E-03    0.171E-03
RMM:  11    -0.413159814596E+03   -0.69577E-05   -0.10835E-06  2482   0.143E-03    0.792E-04
RMM:  12    -0.413159818814E+03   -0.42181E-05   -0.72104E-07  2139   0.112E-03    0.365E-04
RMM:  13    -0.413159821419E+03   -0.26043E-05   -0.51035E-07  1922   0.936E-04    0.276E-04
RMM:  14    -0.413159823102E+03   -0.16830E-05   -0.45755E-07  1637   0.848E-04    0.213E-04
RMM:  15    -0.413159823647E+03   -0.54502E-06   -0.40591E-07  1710   0.820E-04
  144 T=    60. E= -.41286650E+03 F= -.41315982E+03 E0= -.41313914E+03  EK= 0.29332E+00 SP= 0.00E+00 SK= 0.00E+00
       N       E                     dE             d eps       ncg     rms          rms(c)
RMM:   1    -0.413160155596E+03   -0.33249E-03   -0.80776E+00  4264   0.787E-01    0.857E-01
RMM:   2    -0.413163881614E+03   -0.37260E-02   -0.97551E-02  4334   0.880E-02    0.615E-01
RMM:   3    -0.413160455677E+03    0.34259E-02   -0.15814E-02  4858   0.412E-02    0.685E-02
RMM:   4    -0.413167319313E+03   -0.68636E-02   -0.73040E-03  5161   0.727E-02    0.351E-01
RMM:   5    -0.413160373154E+03    0.69462E-02   -0.35595E-03  4833   0.591E-02    0.439E-02
RMM:   6    -0.413160371531E+03    0.16227E-05   -0.79407E-04  5559   0.285E-02    0.312E-02
RMM:   7    -0.413160373539E+03   -0.20078E-05   -0.22823E-04  5433   0.137E-02    0.159E-02
RMM:   8    -0.413160371359E+03    0.21797E-05   -0.34336E-05  4968   0.675E-03    0.779E-03
RMM:   9    -0.413160371416E+03   -0.56956E-07   -0.45865E-06  2808   0.242E-03
  145 T=    60. E= -.41286686E+03 F= -.41316037E+03 E0= -.41313970E+03  EK= 0.29351E+00 SP= 0.00E+00 SK= 0.00E+00
       N       E                     dE             d eps       ncg     rms          rms(c)
RMM:   1    -0.413160249658E+03    0.12170E-03   -0.78411E+00  4267   0.779E-01    0.842E-01
RMM:   2    -0.413163931634E+03   -0.36820E-02   -0.95214E-02  4341   0.869E-02    0.611E-01
RMM:   3    -0.413160379283E+03    0.35524E-02   -0.17108E-02  4985   0.442E-02    0.864E-02
RMM:   4    -0.413176069843E+03   -0.15691E-01   -0.16739E-02  5153   0.109E-01    0.527E-01
RMM:   5    -0.413160105354E+03    0.15964E-01   -0.79475E-03  4833   0.880E-02    0.495E-02
RMM:   6    -0.413160093630E+03    0.11724E-04   -0.14700E-03  5619   0.379E-02    0.313E-02
RMM:   7    -0.413160108682E+03   -0.15052E-04   -0.29464E-04  5754   0.152E-02    0.166E-02
RMM:   8    -0.413160109865E+03   -0.11824E-05   -0.51051E-05  5144   0.788E-03    0.845E-03
RMM:   9    -0.413160110237E+03   -0.37217E-06   -0.58262E-06  2973   0.291E-03
  146 T=    60. E= -.41286658E+03 F= -.41316011E+03 E0= -.41313944E+03  EK= 0.29353E+00 SP= 0.00E+00 SK= 0.00E+00
       N       E                     dE             d eps       ncg     rms          rms(c)
RMM:   1    -0.413161319634E+03   -0.12098E-02   -0.77540E+00  4267   0.777E-01    0.838E-01
RMM:   2    -0.413165180475E+03   -0.38608E-02   -0.94519E-02  4347   0.869E-02    0.620E-01
RMM:   3    -0.413161344717E+03    0.38358E-02   -0.20338E-02  5029   0.512E-02    0.123E-01
RMM:   4    -0.413184140295E+03   -0.22796E-01   -0.25308E-02  5134   0.134E-01    0.636E-01
RMM:   5    -0.413160677020E+03    0.23463E-01   -0.11394E-02  4818   0.106E-01    0.538E-02
RMM:   6    -0.413160664024E+03    0.12996E-04   -0.19656E-03  5640   0.437E-02    0.302E-02
RMM:   7    -0.413160696859E+03   -0.32836E-04   -0.34203E-04  5907   0.161E-02    0.169E-02
RMM:   8    -0.413160705566E+03   -0.87070E-05   -0.60312E-05  5227   0.842E-03    0.868E-03
RMM:   9    -0.413160708700E+03   -0.31340E-05   -0.75710E-06  3181   0.333E-03    0.416E-03
RMM:  10    -0.413160716177E+03   -0.74767E-05   -0.25452E-06  2605   0.229E-03    0.262E-03
RMM:  11    -0.413160723431E+03   -0.72540E-05   -0.15721E-06  2536   0.183E-03    0.129E-03
RMM:  12    -0.413160728693E+03   -0.52625E-05   -0.10786E-06  2463   0.144E-03    0.582E-04
RMM:  13    -0.413160731143E+03   -0.24495E-05   -0.57823E-07  2071   0.105E-03    0.379E-04
RMM:  14    -0.413160732985E+03   -0.18426E-05   -0.46015E-07  1811   0.916E-04    0.239E-04
RMM:  15    -0.413160733928E+03   -0.94259E-06   -0.39776E-07  1743   0.843E-04
  147 T=    60. E= -.41286658E+03 F= -.41316073E+03 E0= -.41314007E+03  EK= 0.29416E+00 SP= 0.00E+00 SK= 0.00E+00
       N       E                     dE             d eps       ncg     rms          rms(c)
RMM:   1    -0.413162728565E+03   -0.19956E-02   -0.76051E+00  4264   0.773E-01    0.856E-01
RMM:   2    -0.413165484970E+03   -0.27564E-02   -0.92456E-02  4340   0.869E-02    0.620E-01
RMM:   3    -0.413161344690E+03    0.41403E-02   -0.20081E-02  4735   0.429E-02    0.669E-02
RMM:   4    -0.413161448060E+03   -0.10337E-03   -0.58314E-04  5132   0.250E-02    0.715E-02
RMM:   5    -0.413161309005E+03    0.13905E-03   -0.24611E-04  4952   0.163E-02    0.508E-02
RMM:   6    -0.413161258930E+03    0.50075E-04   -0.31850E-04  5193   0.182E-02    0.309E-02
RMM:   7    -0.413161247333E+03    0.11597E-04   -0.16748E-04  4788   0.120E-02    0.165E-02
RMM:   8    -0.413161242920E+03    0.44134E-05   -0.13185E-05  3996   0.468E-03    0.787E-03
RMM:   9    -0.413161245111E+03   -0.21916E-05   -0.92179E-06  2774   0.281E-03    0.190E-03
RMM:  10    -0.413161248460E+03   -0.33491E-05   -0.19552E-06  2504   0.210E-03    0.109E-03
RMM:  11    -0.413161250738E+03   -0.22781E-05   -0.11316E-06  2482   0.154E-03    0.637E-04
RMM:  12    -0.413161251309E+03   -0.57007E-06   -0.41245E-07  2091   0.101E-03
  148 T=    60. E= -.41286687E+03 F= -.41316125E+03 E0= -.41314059E+03  EK= 0.29438E+00 SP= 0.00E+00 SK= 0.00E+00
       N       E                     dE             d eps       ncg     rms          rms(c)
RMM:   1    -0.413162583305E+03   -0.13326E-02   -0.74326E+00  4264   0.769E-01    0.850E-01
RMM:   2    -0.413164950099E+03   -0.23668E-02   -0.90750E-02  4346   0.858E-02    0.614E-01
RMM:   3    -0.413160808232E+03    0.41419E-02   -0.20617E-02  4837   0.435E-02    0.738E-02
RMM:   4    -0.413164538179E+03   -0.37299E-02   -0.41994E-03  5170   0.566E-02    0.266E-01
RMM:   5    -0.413160652584E+03    0.38856E-02   -0.20076E-03  4850   0.446E-02    0.431E-02
RMM:   6    -0.413160656768E+03   -0.41841E-05   -0.59761E-04  5469   0.249E-02    0.316E-02
RMM:   7    -0.413160651466E+03    0.53018E-05   -0.20307E-04  5251   0.132E-02    0.167E-02
RMM:   8    -0.413160648292E+03    0.31744E-05   -0.26745E-05  4891   0.588E-03    0.770E-03
RMM:   9    -0.413160649169E+03   -0.87681E-06   -0.58307E-06  2772   0.254E-03
  149 T=    60. E= -.41286647E+03 F= -.41316065E+03 E0= -.41313999E+03  EK= 0.29418E+00 SP= 0.00E+00 SK= 0.00E+00
       N       E                     dE             d eps       ncg     rms          rms(c)
RMM:   1    -0.413163626871E+03   -0.29786E-02   -0.73738E+00  4264   0.769E-01    0.839E-01
RMM:   2    -0.413166550334E+03   -0.29235E-02   -0.90099E-02  4357   0.853E-02    0.619E-01
RMM:   3    -0.413162486196E+03    0.40641E-02   -0.24124E-02  5052   0.524E-02    0.142E-01
RMM:   4    -0.413184627527E+03   -0.22141E-01   -0.25227E-02  5142   0.133E-01    0.630E-01
RMM:   5    -0.413161615772E+03    0.23012E-01   -0.11074E-02  4821   0.104E-01    0.539E-02
RMM:   6    -0.413161643179E+03   -0.27408E-04   -0.19736E-03  5646   0.430E-02    0.306E-02
RMM:   7    -0.413161666655E+03   -0.23475E-04   -0.34375E-04  5899   0.162E-02    0.178E-02
RMM:   8    -0.413161673003E+03   -0.63481E-05   -0.56329E-05  5311   0.820E-03    0.858E-03
RMM:   9    -0.413161676088E+03   -0.30856E-05   -0.78903E-06  3247   0.343E-03    0.419E-03
RMM:  10    -0.413161683408E+03   -0.73195E-05   -0.26244E-06  2621   0.233E-03    0.261E-03
RMM:  11    -0.413161689097E+03   -0.56892E-05   -0.13199E-06  2516   0.174E-03    0.137E-03
RMM:  12    -0.413161694124E+03   -0.50271E-05   -0.10481E-06  2484   0.143E-03    0.661E-04
RMM:  13    -0.413161696335E+03   -0.22108E-05   -0.52517E-07  2116   0.105E-03    0.383E-04
RMM:  14    -0.413161697740E+03   -0.14046E-05   -0.34609E-07  1742   0.870E-04    0.259E-04
RMM:  15    -0.413161698720E+03   -0.98018E-06   -0.31407E-07  1554   0.798E-04
  150 T=    60. E= -.41286675E+03 F= -.41316170E+03 E0= -.41314104E+03  EK= 0.29495E+00 SP= 0.00E+00 SK= 0.00E+00
