       N       E                     dE             d eps       ncg     rms          rms(c)
RMM:   1     0.220102342862E+04    0.22010E+04   -0.52445E+04  2132   0.654E+02
RMM:   2     0.705685909587E+03   -0.14953E+04   -0.16262E+04  2132   0.177E+02
RMM:   3     0.137843673699E+03   -0.56784E+03   -0.65675E+03  2132   0.117E+02
RMM:   4    -0.159279340102E+03   -0.29712E+03   -0.27875E+03  2132   0.936E+01
RMM:   5    -0.287398490699E+03   -0.12812E+03   -0.11438E+03  2132   0.595E+01
RMM:   6    -0.349748415688E+03   -0.62350E+02   -0.55181E+02  2132   0.423E+01
RMM:   7    -0.382690890894E+03   -0.32942E+02   -0.30496E+02  2132   0.293E+01
RMM:   8    -0.404227836889E+03   -0.21537E+02   -0.18446E+02  2132   0.234E+01
RMM:   9    -0.436095627169E+03   -0.31868E+02   -0.30754E+02  6112   0.173E+01
RMM:  10    -0.441318283675E+03   -0.52227E+01   -0.62549E+01  6393   0.539E+00
RMM:  11    -0.442530057332E+03   -0.12118E+01   -0.11092E+01  6221   0.173E+00
RMM:  12    -0.442893454220E+03   -0.36340E+00   -0.27181E+00  6361   0.598E-01    0.134E+02
RMM:  13    -0.425588985038E+03    0.17304E+02   -0.81025E+01  4674   0.119E+01    0.712E+01
RMM:  14    -0.498984528326E+03   -0.73396E+02   -0.53771E+02  5417   0.232E+01    0.306E+01
RMM:  15    -0.416033682102E+03    0.82951E+02   -0.19962E+02  5099   0.163E+01    0.708E+00
RMM:  16    -0.414019162883E+03    0.20145E+01   -0.39315E+01  6090   0.609E+00    0.426E+00
RMM:  17    -0.413214970066E+03    0.80419E+00   -0.25299E+00  5408   0.188E+00    0.244E+00
RMM:  18    -0.413173474162E+03    0.41496E-01   -0.77177E-01  5982   0.905E-01    0.167E+00
RMM:  19    -0.413169418520E+03    0.40556E-02   -0.27452E-01  5710   0.562E-01    0.875E-01
RMM:  20    -0.413188447201E+03   -0.19029E-01   -0.26370E-01  5572   0.537E-01    0.611E-01
RMM:  21    -0.413168577183E+03    0.19870E-01   -0.34614E-02  5004   0.236E-01    0.285E-01
RMM:  22    -0.413165578286E+03    0.29989E-02   -0.20907E-02  5939   0.135E-01    0.136E-01
RMM:  23    -0.413164579495E+03    0.99879E-03   -0.58375E-03  6048   0.677E-02    0.861E-02
RMM:  24    -0.413163274772E+03    0.13047E-02   -0.17393E-03  5321   0.423E-02    0.496E-02
RMM:  25    -0.413162730495E+03    0.54428E-03   -0.91136E-04  5143   0.289E-02    0.409E-02
RMM:  26    -0.413162827545E+03   -0.97050E-04   -0.99161E-04  5803   0.321E-02    0.332E-02
RMM:  27    -0.413163259233E+03   -0.43169E-03   -0.20942E-04  4545   0.205E-02    0.187E-02
RMM:  28    -0.413163709025E+03   -0.44979E-03   -0.16309E-04  5124   0.178E-02    0.962E-03
RMM:  29    -0.413164091857E+03   -0.38283E-03   -0.11284E-04  4529   0.154E-02    0.433E-03
RMM:  30    -0.413164325397E+03   -0.23354E-03   -0.83444E-05  4402   0.106E-02    0.407E-03
RMM:  31    -0.413164453903E+03   -0.12851E-03   -0.55839E-05  3231   0.709E-03    0.352E-03
RMM:  32    -0.413164479439E+03   -0.25535E-04   -0.22372E-05  2981   0.317E-03    0.178E-03
RMM:  33    -0.413164491063E+03   -0.11624E-04   -0.91340E-06  2818   0.231E-03    0.591E-04
RMM:  34    -0.413164492913E+03   -0.18505E-05   -0.48961E-06  2626   0.160E-03    0.580E-04
RMM:  35    -0.413164492518E+03    0.39521E-06   -0.22309E-06  2309   0.122E-03
    1 T=    61. E= -.41286671E+03 F= -.41316449E+03 E0= -.41314200E+03  EK= 0.29778E+00 SP= 0.00E+00 SK= 0.00E+00
       N       E                     dE             d eps       ncg     rms          rms(c)
RMM:   1    -0.413163085061E+03    0.14079E-02   -0.89938E+00  3984   0.614E-01    0.886E-01
RMM:   2    -0.413168398823E+03   -0.53138E-02   -0.11035E-01  3885   0.883E-02    0.651E-01
RMM:   3    -0.413164649891E+03    0.37489E-02   -0.16872E-02  4873   0.495E-02    0.105E-01
RMM:   4    -0.413190751771E+03   -0.26102E-01   -0.28185E-02  5194   0.140E-01    0.675E-01
RMM:   5    -0.413164015533E+03    0.26736E-01   -0.12888E-02  4844   0.113E-01    0.485E-02
RMM:   6    -0.413164209690E+03   -0.19416E-03   -0.23691E-03  5784   0.474E-02    0.336E-02
RMM:   7    -0.413164211494E+03   -0.18038E-05   -0.43490E-04  5699   0.191E-02    0.210E-02
RMM:   8    -0.413164208292E+03    0.32018E-05   -0.55927E-05  5129   0.820E-03    0.927E-03
RMM:   9    -0.413164210371E+03   -0.20793E-05   -0.11864E-05  3641   0.364E-03    0.694E-03
RMM:  10    -0.413164215218E+03   -0.48472E-05   -0.22631E-06  2600   0.222E-03    0.421E-03
RMM:  11    -0.413164219451E+03   -0.42327E-05   -0.13243E-06  2523   0.171E-03    0.232E-03
RMM:  12    -0.413164226315E+03   -0.68638E-05   -0.18135E-06  2582   0.189E-03    0.987E-04
RMM:  13    -0.413164229060E+03   -0.27448E-05   -0.69041E-07  2387   0.128E-03    0.727E-04
RMM:  14    -0.413164228972E+03    0.87690E-07   -0.34921E-07  1883   0.851E-04
    2 T=    61. E= -.41286653E+03 F= -.41316423E+03 E0= -.41314173E+03  EK= 0.29770E+00 SP= 0.00E+00 SK= 0.00E+00
       N       E                     dE             d eps       ncg     rms          rms(c)
RMM:   1    -0.413164011468E+03    0.21759E-03   -0.89911E+00  4185   0.619E-01    0.904E-01
RMM:   2    -0.413168547999E+03   -0.45365E-02   -0.10923E-01  3882   0.863E-02    0.647E-01
RMM:   3    -0.413165126232E+03    0.34218E-02   -0.15929E-02  4850   0.456E-02    0.103E-01
RMM:   4    -0.413189185537E+03   -0.24059E-01   -0.25089E-02  5162   0.132E-01    0.649E-01
RMM:   5    -0.413164625277E+03    0.24560E-01   -0.11800E-02  4831   0.108E-01    0.477E-02
RMM:   6    -0.413164797491E+03   -0.17221E-03   -0.21510E-03  5775   0.452E-02    0.335E-02
RMM:   7    -0.413164785568E+03    0.11923E-04   -0.40259E-04  5621   0.192E-02    0.208E-02
RMM:   8    -0.413164774879E+03    0.10688E-04   -0.54981E-05  5040   0.836E-03    0.971E-03
RMM:   9    -0.413164773169E+03    0.17105E-05   -0.10987E-05  3644   0.368E-03    0.731E-03
RMM:  10    -0.413164773332E+03   -0.16319E-06   -0.20014E-06  2567   0.227E-03
    3 T=    61. E= -.41286684E+03 F= -.41316477E+03 E0= -.41314228E+03  EK= 0.29794E+00 SP= 0.00E+00 SK= 0.00E+00
       N       E                     dE             d eps       ncg     rms          rms(c)
RMM:   1    -0.413163444583E+03    0.13286E-02   -0.89275E+00  4220   0.622E-01    0.890E-01
RMM:   2    -0.413168188336E+03   -0.47438E-02   -0.10888E-01  4217   0.875E-02    0.641E-01
RMM:   3    -0.413169813910E+03   -0.16256E-02   -0.19437E-02  5159   0.803E-02    0.315E-01
RMM:   4    -0.413189620545E+03   -0.19807E-01   -0.39290E-02  5116   0.170E-01    0.654E-01
RMM:   5    -0.413164485742E+03    0.25135E-01   -0.96673E-03  4710   0.107E-01    0.603E-02
RMM:   6    -0.413164512150E+03   -0.26408E-04   -0.18899E-03  5482   0.440E-02    0.317E-02
RMM:   7    -0.413164534394E+03   -0.22244E-04   -0.36672E-04  5993   0.171E-02    0.193E-02
RMM:   8    -0.413164529984E+03    0.44105E-05   -0.63994E-05  5166   0.912E-03    0.802E-03
RMM:   9    -0.413164528214E+03    0.17700E-05   -0.80336E-06  3416   0.361E-03    0.409E-03
RMM:  10    -0.413164529340E+03   -0.11265E-05   -0.17964E-06  2555   0.216E-03    0.263E-03
RMM:  11    -0.413164530990E+03   -0.16497E-05   -0.13517E-06  2534   0.182E-03    0.149E-03
RMM:  12    -0.413164531893E+03   -0.90274E-06   -0.79193E-07  2491   0.142E-03
    4 T=    61. E= -.41286655E+03 F= -.41316453E+03 E0= -.41314204E+03  EK= 0.29798E+00 SP= 0.00E+00 SK= 0.00E+00
       N       E                     dE             d eps       ncg     rms          rms(c)
RMM:   1    -0.413163430319E+03    0.11007E-02   -0.89928E+00  4235   0.627E-01    0.884E-01
RMM:   2    -0.413168721416E+03   -0.52911E-02   -0.11058E-01  4092   0.890E-02    0.650E-01
RMM:   3    -0.413165299917E+03    0.34215E-02   -0.16903E-02  4921   0.514E-02    0.118E-01
RMM:   4    -0.413195946118E+03   -0.30646E-01   -0.32793E-02  5141   0.151E-01    0.732E-01
RMM:   5    -0.413164475063E+03    0.31471E-01   -0.14819E-02  4811   0.122E-01    0.500E-02
RMM:   6    -0.413164684723E+03   -0.20966E-03   -0.26606E-03  5752   0.504E-02    0.335E-02
RMM:   7    -0.413164690413E+03   -0.56899E-05   -0.45129E-04  5726   0.196E-02    0.214E-02
RMM:   8    -0.413164686909E+03    0.35036E-05   -0.64832E-05  5105   0.883E-03    0.993E-03
RMM:   9    -0.413164687785E+03   -0.87580E-06   -0.12863E-05  3845   0.400E-03    0.731E-03
RMM:  10    -0.413164691774E+03   -0.39892E-05   -0.20369E-06  2583   0.226E-03    0.448E-03
RMM:  11    -0.413164695376E+03   -0.36016E-05   -0.12410E-06  2524   0.177E-03    0.245E-03
RMM:  12    -0.413164701015E+03   -0.56395E-05   -0.19421E-06  2606   0.200E-03    0.108E-03
RMM:  13    -0.413164702856E+03   -0.18407E-05   -0.59915E-07  2394   0.131E-03    0.764E-04
RMM:  14    -0.413164702708E+03    0.14765E-06   -0.24496E-07  1908   0.856E-04
    5 T=    61. E= -.41286652E+03 F= -.41316470E+03 E0= -.41314223E+03  EK= 0.29818E+00 SP= 0.00E+00 SK= 0.00E+00
       N       E                     dE             d eps       ncg     rms          rms(c)
RMM:   1    -0.413164563087E+03    0.13977E-03   -0.90117E+00  4246   0.642E-01    0.901E-01
RMM:   2    -0.413168786308E+03   -0.42232E-02   -0.11013E-01  4078   0.884E-02    0.649E-01
RMM:   3    -0.413165501703E+03    0.32846E-02   -0.16027E-02  4840   0.457E-02    0.100E-01
RMM:   4    -0.413188767685E+03   -0.23266E-01   -0.24102E-02  5145   0.130E-01    0.639E-01
RMM:   5    -0.413165013009E+03    0.23755E-01   -0.11432E-02  4814   0.106E-01    0.471E-02
RMM:   6    -0.413165182224E+03   -0.16921E-03   -0.20821E-03  5765   0.442E-02    0.328E-02
RMM:   7    -0.413165175070E+03    0.71538E-05   -0.38950E-04  5612   0.189E-02    0.205E-02
RMM:   8    -0.413165165641E+03    0.94291E-05   -0.52716E-05  4979   0.822E-03    0.960E-03
RMM:   9    -0.413165164261E+03    0.13794E-05   -0.10500E-05  3615   0.364E-03    0.726E-03
RMM:  10    -0.413165164593E+03   -0.33134E-06   -0.18705E-06  2552   0.225E-03
    6 T=    61. E= -.41286669E+03 F= -.41316516E+03 E0= -.41314270E+03  EK= 0.29847E+00 SP= 0.00E+00 SK= 0.00E+00
       N       E                     dE             d eps       ncg     rms          rms(c)
RMM:   1    -0.413164027508E+03    0.11368E-02   -0.89630E+00  4255   0.639E-01    0.897E-01
RMM:   2    -0.413168501751E+03   -0.44742E-02   -0.10926E-01  4239   0.875E-02    0.642E-01
RMM:   3    -0.413169665351E+03   -0.11636E-02   -0.18972E-02  5126   0.771E-02    0.299E-01
RMM:   4    -0.413191550888E+03   -0.21886E-01   -0.39884E-02  5102   0.170E-01    0.673E-01
RMM:   5    -0.413164887610E+03    0.26663E-01   -0.10504E-02  4712   0.110E-01    0.602E-02
RMM:   6    -0.413164935690E+03   -0.48079E-04   -0.20373E-03  5492   0.452E-02    0.322E-02
RMM:   7    -0.413164951744E+03   -0.16055E-04   -0.37570E-04  5989   0.172E-02    0.195E-02
RMM:   8    -0.413164944631E+03    0.71137E-05   -0.64658E-05  5165   0.909E-03    0.811E-03
RMM:   9    -0.413164940859E+03    0.37720E-05   -0.81297E-06  3375   0.357E-03    0.421E-03
RMM:  10    -0.413164940623E+03    0.23606E-06   -0.19703E-06  2576   0.219E-03
    7 T=    61. E= -.41286643E+03 F= -.41316494E+03 E0= -.41314249E+03  EK= 0.29851E+00 SP= 0.00E+00 SK= 0.00E+00
       N       E                     dE             d eps       ncg     rms          rms(c)
RMM:   1    -0.413164282656E+03    0.65820E-03   -0.89878E+00  4266   0.644E-01    0.882E-01
RMM:   2    -0.413169572841E+03   -0.52902E-02   -0.11027E-01  4121   0.892E-02    0.648E-01
RMM:   3    -0.413166310482E+03    0.32624E-02   -0.16750E-02  4950   0.526E-02    0.131E-01
RMM:   4    -0.413200083759E+03   -0.33773E-01   -0.36830E-02  5132   0.160E-01    0.768E-01
RMM:   5    -0.413165321110E+03    0.34763E-01   -0.16383E-02  4803   0.127E-01    0.518E-02
RMM:   6    -0.413165531991E+03   -0.21088E-03   -0.28283E-03  5735   0.526E-02    0.341E-02
RMM:   7    -0.413165535419E+03   -0.34283E-05   -0.47563E-04  5769   0.198E-02    0.216E-02
RMM:   8    -0.413165530549E+03    0.48704E-05   -0.68013E-05  5196   0.888E-03    0.985E-03
RMM:   9    -0.413165529838E+03    0.71096E-06   -0.12910E-05  3870   0.402E-03    0.698E-03
RMM:  10    -0.413165532564E+03   -0.27262E-05   -0.20935E-06  2581   0.224E-03    0.431E-03
RMM:  11    -0.413165534882E+03   -0.23177E-05   -0.11783E-06  2526   0.171E-03    0.238E-03
RMM:  12    -0.413165538516E+03   -0.36344E-05   -0.18270E-06  2584   0.195E-03    0.103E-03
RMM:  13    -0.413165539898E+03   -0.13817E-05   -0.67269E-07  2409   0.133E-03    0.825E-04
RMM:  14    -0.413165539657E+03    0.24156E-06   -0.24998E-07  1910   0.863E-04
    8 T=    61. E= -.41286675E+03 F= -.41316554E+03 E0= -.41314311E+03  EK= 0.29879E+00 SP= 0.00E+00 SK= 0.00E+00
       N       E                     dE             d eps       ncg     rms          rms(c)
RMM:   1    -0.413164702943E+03    0.83696E-03   -0.90279E+00  4280   0.647E-01    0.897E-01
RMM:   2    -0.413169757078E+03   -0.50541E-02   -0.11014E-01  4180   0.895E-02    0.651E-01
RMM:   3    -0.413166086235E+03    0.36708E-02   -0.16249E-02  4825   0.482E-02    0.102E-01
RMM:   4    -0.413190781652E+03   -0.24695E-01   -0.25712E-02  5136   0.134E-01    0.658E-01
RMM:   5    -0.413165542301E+03    0.25239E-01   -0.12162E-02  4810   0.109E-01    0.472E-02
RMM:   6    -0.413165716014E+03   -0.17371E-03   -0.21715E-03  5768   0.450E-02    0.321E-02
RMM:   7    -0.413165712746E+03    0.32685E-05   -0.38447E-04  5637   0.188E-02    0.204E-02
RMM:   8    -0.413165702698E+03    0.10048E-04   -0.57719E-05  4979   0.848E-03    0.977E-03
RMM:   9    -0.413165701081E+03    0.16170E-05   -0.11447E-05  3752   0.382E-03    0.739E-03
RMM:  10    -0.413165701680E+03   -0.59933E-06   -0.18743E-06  2554   0.225E-03
    9 T=    61. E= -.41286670E+03 F= -.41316570E+03 E0= -.41314329E+03  EK= 0.29900E+00 SP= 0.00E+00 SK= 0.00E+00
       N       E                     dE             d eps       ncg     rms          rms(c)
RMM:   1    -0.413164993087E+03    0.70799E-03   -0.90048E+00  4292   0.652E-01    0.903E-01
RMM:   2    -0.413169624052E+03   -0.46310E-02   -0.10944E-01  4285   0.892E-02    0.644E-01
RMM:   3    -0.413170845143E+03   -0.12211E-02   -0.19218E-02  5131   0.793E-02    0.309E-01
RMM:   4    -0.413191231598E+03   -0.20386E-01   -0.39249E-02  5092   0.169E-01    0.659E-01
RMM:   5    -0.413165742250E+03    0.25489E-01   -0.98737E-03  4702   0.107E-01    0.596E-02
RMM:   6    -0.413165781975E+03   -0.39725E-04   -0.19512E-03  5483   0.440E-02    0.325E-02
RMM:   7    -0.413165794597E+03   -0.12622E-04   -0.36312E-04  5964   0.172E-02    0.195E-02
RMM:   8    -0.413165786838E+03    0.77588E-05   -0.63009E-05  5140   0.906E-03    0.806E-03
RMM:   9    -0.413165782253E+03    0.45852E-05   -0.78159E-06  3348   0.357E-03    0.418E-03
RMM:  10    -0.413165781007E+03    0.12464E-05   -0.18434E-06  2555   0.217E-03    0.269E-03
RMM:  11    -0.413165779080E+03    0.19271E-05   -0.12606E-06  2513   0.178E-03    0.146E-03
RMM:  12    -0.413165777149E+03    0.19300E-05   -0.76671E-07  2472   0.141E-03    0.573E-04
RMM:  13    -0.413165776048E+03    0.11010E-05   -0.38663E-07  2121   0.102E-03    0.324E-04
RMM:  14    -0.413165774989E+03    0.10590E-05   -0.23232E-07  1640   0.807E-04    0.218E-04
RMM:  15    -0.413165773292E+03    0.16976E-05   -0.21746E-07  1481   0.753E-04    0.148E-04
RMM:  16    -0.413165771582E+03    0.17102E-05   -0.17892E-07  1368   0.702E-04    0.141E-04
RMM:  17    -0.413165769892E+03    0.16897E-05   -0.14453E-07  1288   0.663E-04    0.751E-05
RMM:  18    -0.413165768635E+03    0.12566E-05   -0.91092E-08  1067   0.604E-04    0.349E-05
RMM:  19    -0.413165768057E+03    0.57850E-06   -0.48761E-08   880   0.557E-04
   10 T=    61. E= -.41286649E+03 F= -.41316577E+03 E0= -.41314338E+03  EK= 0.29928E+00 SP= 0.00E+00 SK= 0.00E+00
       N       E                     dE             d eps       ncg     rms          rms(c)
RMM:   1    -0.413165199022E+03    0.56961E-03   -0.89898E+00  4288   0.656E-01    0.883E-01
RMM:   2    -0.413170408326E+03   -0.52093E-02   -0.11025E-01  4210   0.885E-02    0.646E-01
RMM:   3    -0.413167234088E+03    0.31742E-02   -0.16348E-02  4922   0.512E-02    0.126E-01
RMM:   4    -0.413200059012E+03   -0.32825E-01   -0.35544E-02  5131   0.157E-01    0.757E-01
RMM:   5    -0.413166320410E+03    0.33739E-01   -0.15948E-02  4795   0.125E-01    0.514E-02
RMM:   6    -0.413166537597E+03   -0.21719E-03   -0.28489E-03  5738   0.518E-02    0.344E-02
RMM:   7    -0.413166538644E+03   -0.10470E-05   -0.47037E-04  5667   0.198E-02    0.219E-02
RMM:   8    -0.413166532130E+03    0.65139E-05   -0.67161E-05  5162   0.894E-03    0.101E-02
RMM:   9    -0.413166530514E+03    0.16156E-05   -0.13306E-05  3938   0.409E-03    0.732E-03
RMM:  10    -0.413166531857E+03   -0.13431E-05   -0.20125E-06  2576   0.224E-03    0.451E-03
RMM:  11    -0.413166533057E+03   -0.11998E-05   -0.11120E-06  2505   0.170E-03    0.257E-03
RMM:  12    -0.413166535057E+03   -0.19997E-05   -0.17195E-06  2564   0.197E-03    0.108E-03
RMM:  13    -0.413166535745E+03   -0.68820E-06   -0.61548E-07  2395   0.134E-03
   11 T=    61. E= -.41286671E+03 F= -.41316654E+03 E0= -.41314418E+03  EK= 0.29982E+00 SP= 0.00E+00 SK= 0.00E+00
       N       E                     dE             d eps       ncg     rms          rms(c)
RMM:   1    -0.413166188525E+03    0.34653E-03   -0.90724E+00  4295   0.673E-01    0.894E-01
RMM:   2    -0.413170354648E+03   -0.41661E-02   -0.11160E-01  4213   0.893E-02    0.653E-01
RMM:   3    -0.413166916830E+03    0.34378E-02   -0.16437E-02  4857   0.483E-02    0.105E-01
RMM:   4    -0.413193216054E+03   -0.26299E-01   -0.27593E-02  5125   0.138E-01    0.679E-01
RMM:   5    -0.413166309474E+03    0.26907E-01   -0.12845E-02  4796   0.112E-01    0.478E-02
RMM:   6    -0.413166496282E+03   -0.18681E-03   -0.23736E-03  5781   0.464E-02    0.319E-02
RMM:   7    -0.413166496459E+03   -0.17720E-06   -0.38309E-04  5662   0.187E-02    0.204E-02
RMM:   8    -0.413166487105E+03    0.93541E-05   -0.63919E-05  4984   0.870E-03    0.102E-02
RMM:   9    -0.413166485074E+03    0.20307E-05   -0.12478E-05  3913   0.402E-03    0.768E-03
RMM:  10    -0.413166485715E+03   -0.64092E-06   -0.18985E-06  2552   0.226E-03
   12 T=    61. E= -.41286637E+03 F= -.41316649E+03 E0= -.41314415E+03  EK= 0.30011E+00 SP= 0.00E+00 SK= 0.00E+00
       N       E                     dE             d eps       ncg     rms          rms(c)
RMM:   1    -0.413166299092E+03    0.18598E-03   -0.90578E+00  4304   0.665E-01    0.908E-01
RMM:   2    -0.413170521996E+03   -0.42229E-02   -0.11032E-01  4300   0.895E-02    0.647E-01
RMM:   3    -0.413173496904E+03   -0.29749E-02   -0.20357E-02  5140   0.852E-02    0.346E-01
RMM:   4    -0.413189291279E+03   -0.15794E-01   -0.37977E-02  5071   0.167E-01    0.615E-01
RMM:   5    -0.413167073861E+03    0.22217E-01   -0.81745E-03  4663   0.998E-02    0.589E-02
RMM:   6    -0.413167086901E+03   -0.13040E-04   -0.16811E-03  5421   0.408E-02    0.323E-02
RMM:   7    -0.413167095755E+03   -0.88537E-05   -0.32612E-04  5922   0.168E-02    0.190E-02
RMM:   8    -0.413167087455E+03    0.83005E-05   -0.59127E-05  5106   0.894E-03    0.771E-03
RMM:   9    -0.413167082162E+03    0.52924E-05   -0.73591E-06  3292   0.351E-03    0.398E-03
RMM:  10    -0.413167080362E+03    0.18004E-05   -0.15954E-06  2529   0.210E-03    0.252E-03
RMM:  11    -0.413167077373E+03    0.29892E-05   -0.12157E-06  2508   0.175E-03    0.143E-03
RMM:  12    -0.413167074840E+03    0.25327E-05   -0.68291E-07  2458   0.136E-03    0.580E-04
RMM:  13    -0.413167073205E+03    0.16351E-05   -0.35193E-07  2075   0.984E-04    0.324E-04
RMM:  14    -0.413167071693E+03    0.15122E-05   -0.20652E-07  1572   0.779E-04    0.219E-04
RMM:  15    -0.413167069114E+03    0.25781E-05   -0.20774E-07  1478   0.750E-04    0.155E-04
RMM:  16    -0.413167066948E+03    0.21666E-05   -0.15161E-07  1317   0.681E-04    0.138E-04
RMM:  17    -0.413167064573E+03    0.23746E-05   -0.14136E-07  1316   0.663E-04    0.752E-05
RMM:  18    -0.413167063359E+03    0.12142E-05   -0.70099E-08  1016   0.585E-04    0.431E-05
RMM:  19    -0.413167062549E+03    0.80973E-06   -0.40961E-08   866   0.551E-04
   13 T=    61. E= -.41286647E+03 F= -.41316706E+03 E0= -.41314476E+03  EK= 0.30059E+00 SP= 0.00E+00 SK= 0.00E+00
       N       E                     dE             d eps       ncg     rms          rms(c)
RMM:   1    -0.413166419157E+03    0.64420E-03   -0.90107E+00  4293   0.668E-01    0.886E-01
RMM:   2    -0.413171457877E+03   -0.50387E-02   -0.11044E-01  4226   0.890E-02    0.644E-01
RMM:   3    -0.413168471458E+03    0.29864E-02   -0.16100E-02  4926   0.516E-02    0.131E-01
RMM:   4    -0.413202455018E+03   -0.33984E-01   -0.37084E-02  5118   0.160E-01    0.770E-01
RMM:   5    -0.413167515605E+03    0.34939E-01   -0.16532E-02  4791   0.128E-01    0.521E-02
RMM:   6    -0.413167729912E+03   -0.21431E-03   -0.29186E-03  5736   0.525E-02    0.350E-02
RMM:   7    -0.413167724744E+03    0.51686E-05   -0.47773E-04  5661   0.201E-02    0.221E-02
RMM:   8    -0.413167717074E+03    0.76692E-05   -0.69396E-05  5190   0.911E-03    0.102E-02
RMM:   9    -0.413167714000E+03    0.30742E-05   -0.13759E-05  3987   0.416E-03    0.734E-03
RMM:  10    -0.413167713767E+03    0.23358E-06   -0.20801E-06  2570   0.227E-03
   14 T=    61. E= -.41286663E+03 F= -.41316771E+03 E0= -.41314544E+03  EK= 0.30109E+00 SP= 0.00E+00 SK= 0.00E+00
       N       E                     dE             d eps       ncg     rms          rms(c)
RMM:   1    -0.413166534777E+03    0.11792E-02   -0.91017E+00  4303   0.672E-01    0.891E-01
RMM:   2    -0.413171919536E+03   -0.53848E-02   -0.11170E-01  4302   0.909E-02    0.654E-01
RMM:   3    -0.413175199050E+03   -0.32795E-02   -0.21887E-02  5132   0.912E-02    0.368E-01
RMM:   4    -0.413190528842E+03   -0.15330E-01   -0.40325E-02  5060   0.172E-01    0.622E-01
RMM:   5    -0.413167754638E+03    0.22774E-01   -0.82360E-03  4649   0.101E-01    0.584E-02
RMM:   6    -0.413167762071E+03   -0.74322E-05   -0.16622E-03  5393   0.405E-02    0.306E-02
RMM:   7    -0.413167781785E+03   -0.19714E-04   -0.32267E-04  5937   0.166E-02    0.185E-02
RMM:   8    -0.413167779623E+03    0.21619E-05   -0.60676E-05  5121   0.893E-03    0.755E-03
RMM:   9    -0.413167777842E+03    0.17812E-05   -0.74293E-06  3286   0.358E-03    0.385E-03
RMM:  10    -0.413167778864E+03   -0.10221E-05   -0.15271E-06  2518   0.206E-03    0.244E-03
RMM:  11    -0.413167780280E+03   -0.14163E-05   -0.12726E-06  2519   0.176E-03    0.145E-03
RMM:  12    -0.413167780695E+03   -0.41415E-06   -0.65916E-07  2451   0.134E-03
   15 T=    61. E= -.41286638E+03 F= -.41316778E+03 E0= -.41314555E+03  EK= 0.30140E+00 SP= 0.00E+00 SK= 0.00E+00
       N       E                     dE             d eps       ncg     rms          rms(c)
RMM:   1    -0.413168123849E+03   -0.34357E-03   -0.91080E+00  4295   0.684E-01    0.910E-01
RMM:   2    -0.413172677275E+03   -0.45534E-02   -0.11081E-01  4244   0.902E-02    0.649E-01
RMM:   3    -0.413169598278E+03    0.30790E-02   -0.15988E-02  4942   0.512E-02    0.135E-01
RMM:   4    -0.413204090020E+03   -0.34492E-01   -0.37533E-02  5122   0.161E-01    0.775E-01
RMM:   5    -0.413168645797E+03    0.35444E-01   -0.16779E-02  4791   0.129E-01    0.527E-02
RMM:   6    -0.413168862016E+03   -0.21622E-03   -0.30380E-03  5751   0.533E-02    0.360E-02
RMM:   7    -0.413168853241E+03    0.87749E-05   -0.48973E-04  5699   0.206E-02    0.229E-02
RMM:   8    -0.413168840718E+03    0.12522E-04   -0.73752E-05  5171   0.937E-03    0.109E-02
RMM:   9    -0.413168834553E+03    0.61651E-05   -0.14135E-05  4012   0.425E-03    0.782E-03
RMM:  10    -0.413168830603E+03    0.39503E-05   -0.21844E-06  2576   0.234E-03    0.477E-03
RMM:  11    -0.413168827971E+03    0.26318E-05   -0.11756E-06  2507   0.176E-03    0.280E-03
RMM:  12    -0.413168822709E+03    0.52618E-05   -0.19999E-06  2596   0.211E-03    0.118E-03
RMM:  13    -0.413168819852E+03    0.28576E-05   -0.68736E-07  2418   0.143E-03    0.948E-04
RMM:  14    -0.413168820046E+03   -0.19443E-06   -0.27003E-07  2004   0.916E-04
   16 T=    62. E= -.41286672E+03 F= -.41316882E+03 E0= -.41314662E+03  EK= 0.30210E+00 SP= 0.00E+00 SK= 0.00E+00
       N       E                     dE             d eps       ncg     rms          rms(c)
RMM:   1    -0.413169833985E+03   -0.10141E-02   -0.90703E+00  4293   0.706E-01    0.892E-01
RMM:   2    -0.413173149899E+03   -0.33159E-02   -0.11208E-01  4255   0.910E-02    0.645E-01
RMM:   3    -0.413169758184E+03    0.33917E-02   -0.15525E-02  4870   0.480E-02    0.113E-01
RMM:   4    -0.413198282669E+03   -0.28524E-01   -0.30099E-02  5125   0.144E-01    0.706E-01
RMM:   5    -0.413169115903E+03    0.29167E-01   -0.14026E-02  4793   0.117E-01    0.492E-02
RMM:   6    -0.413169298951E+03   -0.18305E-03   -0.25553E-03  5786   0.482E-02    0.333E-02
RMM:   7    -0.413169294988E+03    0.39629E-05   -0.40638E-04  5656   0.193E-02    0.211E-02
RMM:   8    -0.413169281724E+03    0.13264E-04   -0.66841E-05  5043   0.896E-03    0.105E-02
RMM:   9    -0.413169276748E+03    0.49765E-05   -0.13223E-05  3958   0.413E-03    0.783E-03
RMM:  10    -0.413169274129E+03    0.26193E-05   -0.19973E-06  2570   0.229E-03    0.476E-03
RMM:  11    -0.413169272066E+03    0.20629E-05   -0.13054E-06  2515   0.184E-03    0.260E-03
RMM:  12    -0.413169268691E+03    0.33744E-05   -0.17128E-06  2551   0.201E-03    0.107E-03
RMM:  13    -0.413169267094E+03    0.15970E-05   -0.55047E-07  2364   0.131E-03    0.730E-04
RMM:  14    -0.413169267066E+03    0.28442E-07   -0.24528E-07  1918   0.864E-04
   17 T=    62. E= -.41286655E+03 F= -.41316927E+03 E0= -.41314711E+03  EK= 0.30272E+00 SP= 0.00E+00 SK= 0.00E+00
       N       E                     dE             d eps       ncg     rms          rms(c)
RMM:   1    -0.413168407548E+03    0.85955E-03   -0.91455E+00  4296   0.685E-01    0.890E-01
RMM:   2    -0.413173791747E+03   -0.53842E-02   -0.11273E-01  4259   0.903E-02    0.655E-01
RMM:   3    -0.413170339638E+03    0.34521E-02   -0.16677E-02  4873   0.505E-02    0.114E-01
RMM:   4    -0.413200255627E+03   -0.29916E-01   -0.31880E-02  5122   0.148E-01    0.723E-01
RMM:   5    -0.413169593998E+03    0.30662E-01   -0.14698E-02  4789   0.120E-01    0.495E-02
RMM:   6    -0.413169790267E+03   -0.19627E-03   -0.26438E-03  5769   0.493E-02    0.331E-02
RMM:   7    -0.413169788979E+03    0.12887E-05   -0.42493E-04  5650   0.193E-02    0.212E-02
RMM:   8    -0.413169780633E+03    0.83458E-05   -0.66382E-05  5072   0.890E-03    0.102E-02
RMM:   9    -0.413169777897E+03    0.27353E-05   -0.13135E-05  3948   0.411E-03    0.753E-03
RMM:  10    -0.413169778030E+03   -0.13283E-06   -0.19418E-06  2561   0.224E-03
   18 T=    62. E= -.41286636E+03 F= -.41316978E+03 E0= -.41314766E+03  EK= 0.30342E+00 SP= 0.00E+00 SK= 0.00E+00
       N       E                     dE             d eps       ncg     rms          rms(c)
RMM:   1    -0.413171080142E+03   -0.13022E-02   -0.91807E+00  4302   0.714E-01    0.910E-01
RMM:   2    -0.413174659850E+03   -0.35797E-02   -0.11390E-01  4319   0.941E-02    0.653E-01
RMM:   3    -0.413177465746E+03   -0.28059E-02   -0.20364E-02  5126   0.867E-02    0.348E-01
RMM:   4    -0.413194365471E+03   -0.16900E-01   -0.39687E-02  5068   0.170E-01    0.631E-01
RMM:   5    -0.413170936867E+03    0.23429E-01   -0.86788E-03  4667   0.102E-01    0.589E-02
RMM:   6    -0.413170955047E+03   -0.18181E-04   -0.17680E-03  5431   0.415E-02    0.321E-02
RMM:   7    -0.413170961177E+03   -0.61291E-05   -0.33396E-04  5918   0.169E-02    0.192E-02
RMM:   8    -0.413170952737E+03    0.84398E-05   -0.61684E-05  5122   0.906E-03    0.781E-03
RMM:   9    -0.413170946746E+03    0.59907E-05   -0.76195E-06  3325   0.359E-03    0.400E-03
RMM:  10    -0.413170944518E+03    0.22276E-05   -0.16465E-06  2529   0.212E-03    0.253E-03
RMM:  11    -0.413170940826E+03    0.36921E-05   -0.11917E-06  2505   0.175E-03    0.142E-03
RMM:  12    -0.413170937550E+03    0.32763E-05   -0.65926E-07  2450   0.136E-03    0.553E-04
RMM:  13    -0.413170935506E+03    0.20437E-05   -0.33141E-07  2066   0.971E-04    0.313E-04
RMM:  14    -0.413170933626E+03    0.18807E-05   -0.18998E-07  1543   0.769E-04    0.211E-04
RMM:  15    -0.413170930492E+03    0.31331E-05   -0.17394E-07  1421   0.729E-04    0.144E-04
RMM:  16    -0.413170927851E+03    0.26419E-05   -0.12354E-07  1253   0.667E-04    0.133E-04
RMM:  17    -0.413170924743E+03    0.31078E-05   -0.11917E-07  1284   0.661E-04    0.740E-05
RMM:  18    -0.413170923128E+03    0.16146E-05   -0.62525E-08   985   0.583E-04    0.424E-05
RMM:  19    -0.413170922150E+03    0.97807E-06   -0.37527E-08   863   0.554E-04
   19 T=    62. E= -.41286661E+03 F= -.41317092E+03 E0= -.41314885E+03  EK= 0.30431E+00 SP= 0.00E+00 SK= 0.00E+00
       N       E                     dE             d eps       ncg     rms          rms(c)
RMM:   1    -0.413170184645E+03    0.73848E-03   -0.91277E+00  4296   0.696E-01    0.900E-01
RMM:   2    -0.413174810382E+03   -0.46257E-02   -0.11183E-01  4257   0.919E-02    0.647E-01
RMM:   3    -0.413172165842E+03    0.26445E-02   -0.15782E-02  4946   0.525E-02    0.139E-01
RMM:   4    -0.413207699485E+03   -0.35534E-01   -0.39050E-02  5119   0.164E-01    0.786E-01
RMM:   5    -0.413171161493E+03    0.36538E-01   -0.17454E-02  4787   0.131E-01    0.530E-02
RMM:   6    -0.413171364485E+03   -0.20299E-03   -0.29889E-03  5738   0.538E-02    0.359E-02
RMM:   7    -0.413171354364E+03    0.10120E-04   -0.49387E-04  5672   0.205E-02    0.226E-02
RMM:   8    -0.413171342435E+03    0.11929E-04   -0.74545E-05  5222   0.944E-03    0.106E-02
RMM:   9    -0.413171336396E+03    0.60398E-05   -0.14696E-05  4077   0.431E-03    0.744E-03
RMM:  10    -0.413171332830E+03    0.35661E-05   -0.21826E-06  2575   0.231E-03    0.460E-03
RMM:  11    -0.413171330509E+03    0.23206E-05   -0.10847E-06  2501   0.168E-03    0.269E-03
RMM:  12    -0.413171325940E+03    0.45685E-05   -0.17048E-06  2553   0.201E-03    0.114E-03
RMM:  13    -0.413171323393E+03    0.25474E-05   -0.66698E-07  2404   0.139E-03    0.931E-04
RMM:  14    -0.413171323495E+03   -0.10241E-06   -0.26587E-07  1997   0.909E-04
   20 T=    62. E= -.41286635E+03 F= -.41317132E+03 E0= -.41314929E+03  EK= 0.30498E+00 SP= 0.00E+00 SK= 0.00E+00
       N       E                     dE             d eps       ncg     rms          rms(c)
RMM:   1    -0.413171866935E+03   -0.54354E-03   -0.92031E+00  4291   0.714E-01    0.891E-01
RMM:   2    -0.413176393476E+03   -0.45265E-02   -0.11363E-01  4261   0.917E-02    0.655E-01
RMM:   3    -0.413172945848E+03    0.34476E-02   -0.16489E-02  4863   0.499E-02    0.108E-01
RMM:   4    -0.413200979268E+03   -0.28033E-01   -0.29630E-02  5122   0.143E-01    0.700E-01
RMM:   5    -0.413172292567E+03    0.28687E-01   -0.13858E-02  4792   0.116E-01    0.484E-02
RMM:   6    -0.413172469936E+03   -0.17737E-03   -0.24800E-03  5808   0.477E-02    0.316E-02
RMM:   7    -0.413172470919E+03   -0.98346E-06   -0.37461E-04  5651   0.186E-02    0.199E-02
RMM:   8    -0.413172461302E+03    0.96176E-05   -0.69172E-05  5030   0.890E-03    0.104E-02
RMM:   9    -0.413172457243E+03    0.40592E-05   -0.13292E-05  4004   0.418E-03    0.772E-03
RMM:  10    -0.413172456408E+03    0.83496E-06   -0.19016E-06  2565   0.223E-03
   21 T=    62. E= -.41286655E+03 F= -.41317246E+03 E0= -.41315047E+03  EK= 0.30590E+00 SP= 0.00E+00 SK= 0.00E+00
       N       E                     dE             d eps       ncg     rms          rms(c)
RMM:   1    -0.413173112326E+03   -0.65508E-03   -0.92485E+00  4300   0.721E-01    0.908E-01
RMM:   2    -0.413177441861E+03   -0.43295E-02   -0.11506E-01  4320   0.941E-02    0.657E-01
RMM:   3    -0.413179393601E+03   -0.19517E-02   -0.19957E-02  5116   0.837E-02    0.330E-01
RMM:   4    -0.413199739529E+03   -0.20346E-01   -0.41857E-02  5080   0.174E-01    0.667E-01
RMM:   5    -0.413173510937E+03    0.26229E-01   -0.10022E-02  4677   0.109E-01    0.586E-02
RMM:   6    -0.413173553802E+03   -0.42866E-04   -0.19995E-03  5479   0.444E-02    0.321E-02
RMM:   7    -0.413173560630E+03   -0.68277E-05   -0.36126E-04  5915   0.173E-02    0.196E-02
RMM:   8    -0.413173552920E+03    0.77101E-05   -0.65045E-05  5127   0.917E-03    0.811E-03
RMM:   9    -0.413173546889E+03    0.60308E-05   -0.85142E-06  3402   0.368E-03    0.419E-03
RMM:  10    -0.413173544655E+03    0.22337E-05   -0.18231E-06  2553   0.214E-03    0.271E-03
RMM:  11    -0.413173541210E+03    0.34455E-05   -0.11666E-06  2498   0.174E-03    0.146E-03
RMM:  12    -0.413173537838E+03    0.33719E-05   -0.68079E-07  2448   0.137E-03    0.531E-04
RMM:  13    -0.413173535919E+03    0.19190E-05   -0.33729E-07  2095   0.983E-04    0.307E-04
RMM:  14    -0.413173534191E+03    0.17274E-05   -0.19043E-07  1587   0.770E-04    0.208E-04
RMM:  15    -0.413173531252E+03    0.29394E-05   -0.15240E-07  1346   0.711E-04    0.131E-04
RMM:  16    -0.413173528681E+03    0.25708E-05   -0.11418E-07  1243   0.665E-04    0.134E-04
RMM:  17    -0.413173525859E+03    0.28220E-05   -0.96383E-08  1194   0.642E-04    0.722E-05
RMM:  18    -0.413173523780E+03    0.20789E-05   -0.64009E-08  1044   0.599E-04    0.346E-05
RMM:  19    -0.413173522709E+03    0.10716E-05   -0.34835E-08   856   0.558E-04    0.245E-05
RMM:  20    -0.413173522328E+03    0.38071E-06   -0.16027E-08   718   0.538E-04
   22 T=    62. E= -.41286668E+03 F= -.41317352E+03 E0= -.41315158E+03  EK= 0.30684E+00 SP= 0.00E+00 SK= 0.00E+00
       N       E                     dE             d eps       ncg     rms          rms(c)
RMM:   1    -0.413173231112E+03    0.29160E-03   -0.92255E+00  4294   0.709E-01    0.909E-01
RMM:   2    -0.413178142693E+03   -0.49116E-02   -0.11303E-01  4273   0.924E-02    0.650E-01
RMM:   3    -0.413174979253E+03    0.31634E-02   -0.15705E-02  4903   0.534E-02    0.136E-01
RMM:   4    -0.413209998568E+03   -0.35019E-01   -0.38045E-02  5119   0.162E-01    0.780E-01
RMM:   5    -0.413174050730E+03    0.35948E-01   -0.17208E-02  4783   0.130E-01    0.529E-02
RMM:   6    -0.413174263546E+03   -0.21282E-03   -0.30933E-03  5753   0.537E-02    0.361E-02
RMM:   7    -0.413174254806E+03    0.87400E-05   -0.48808E-04  5646   0.208E-02    0.229E-02
RMM:   8    -0.413174241231E+03    0.13575E-04   -0.77538E-05  5177   0.965E-03    0.112E-02
RMM:   9    -0.413174234089E+03    0.71417E-05   -0.15032E-05  4123   0.441E-03    0.796E-03
RMM:  10    -0.413174229347E+03    0.47428E-05   -0.22478E-06  2588   0.236E-03    0.493E-03
RMM:  11    -0.413174226163E+03    0.31836E-05   -0.11788E-06  2507   0.176E-03    0.291E-03
RMM:  12    -0.413174219957E+03    0.62064E-05   -0.19141E-06  2576   0.213E-03    0.119E-03
RMM:  13    -0.413174216501E+03    0.34558E-05   -0.69355E-07  2409   0.144E-03    0.983E-04
RMM:  14    -0.413174216820E+03   -0.31930E-06   -0.28035E-07  2031   0.930E-04
   23 T=    63. E= -.41286648E+03 F= -.41317422E+03 E0= -.41315232E+03  EK= 0.30774E+00 SP= 0.00E+00 SK= 0.00E+00
       N       E                     dE             d eps       ncg     rms          rms(c)
RMM:   1    -0.413175228440E+03   -0.10119E-02   -0.92621E+00  4296   0.731E-01    0.893E-01
RMM:   2    -0.413180148441E+03   -0.49200E-02   -0.11510E-01  4281   0.950E-02    0.655E-01
RMM:   3    -0.413176145173E+03    0.40033E-02   -0.15970E-02  4768   0.510E-02    0.100E-01
RMM:   4    -0.413200419230E+03   -0.24274E-01   -0.25143E-02  5124   0.132E-01    0.652E-01
RMM:   5    -0.413175646590E+03    0.24773E-01   -0.12150E-02  4800   0.108E-01    0.466E-02
RMM:   6    -0.413175785320E+03   -0.13873E-03   -0.21058E-03  5807   0.441E-02    0.293E-02
RMM:   7    -0.413175788176E+03   -0.28564E-05   -0.28291E-04  5655   0.168E-02    0.163E-02
RMM:   8    -0.413175782922E+03    0.52541E-05   -0.59695E-05  5005   0.804E-03    0.102E-02
RMM:   9    -0.413175778005E+03    0.49169E-05   -0.11857E-05  3934   0.398E-03    0.755E-03
RMM:  10    -0.413175776296E+03    0.17090E-05   -0.18289E-06  2558   0.223E-03    0.459E-03
RMM:  11    -0.413175774496E+03    0.18004E-05   -0.15462E-06  2530   0.198E-03    0.234E-03
RMM:  12    -0.413175771949E+03    0.25468E-05   -0.13808E-06  2506   0.185E-03    0.915E-04
RMM:  13    -0.413175771004E+03    0.94526E-06   -0.44865E-07  2271   0.119E-03
   24 T=    63. E= -.41286673E+03 F= -.41317577E+03 E0= -.41315392E+03  EK= 0.30904E+00 SP= 0.00E+00 SK= 0.00E+00
       N       E                     dE             d eps       ncg     rms          rms(c)
RMM:   1    -0.413179987151E+03   -0.42152E-02   -0.93836E+00  4297   0.755E-01    0.907E-01
RMM:   2    -0.413180923866E+03   -0.93672E-03   -0.11866E-01  4278   0.971E-02    0.661E-01
RMM:   3    -0.413177011111E+03    0.39128E-02   -0.15752E-02  4737   0.495E-02    0.972E-02
RMM:   4    -0.413198520169E+03   -0.21509E-01   -0.22065E-02  5129   0.124E-01    0.614E-01
RMM:   5    -0.413176612690E+03    0.21907E-01   -0.10774E-02  4804   0.102E-01    0.458E-02
RMM:   6    -0.413176728640E+03   -0.11595E-03   -0.18886E-03  5824   0.414E-02    0.283E-02
RMM:   7    -0.413176726683E+03    0.19573E-05   -0.23488E-04  5621   0.155E-02    0.146E-02
RMM:   8    -0.413176722155E+03    0.45276E-05   -0.48163E-05  4954   0.720E-03    0.977E-03
RMM:   9    -0.413176717469E+03    0.46867E-05   -0.10128E-05  3745   0.366E-03    0.733E-03
RMM:  10    -0.413176715176E+03    0.22924E-05   -0.16550E-06  2540   0.219E-03    0.444E-03
RMM:  11    -0.413176712302E+03    0.28743E-05   -0.16426E-06  2539   0.203E-03    0.224E-03
RMM:  12    -0.413176708507E+03    0.37948E-05   -0.12449E-06  2491   0.178E-03    0.874E-04
RMM:  13    -0.413176707377E+03    0.11301E-05   -0.41829E-07  2237   0.114E-03    0.601E-04
RMM:  14    -0.413176706923E+03    0.45380E-06   -0.19702E-07  1729   0.801E-04
   25 T=    63. E= -.41286644E+03 F= -.41317671E+03 E0= -.41315491E+03  EK= 0.31027E+00 SP= 0.00E+00 SK= 0.00E+00
       N       E                     dE             d eps       ncg     rms          rms(c)
RMM:   1    -0.413176960304E+03   -0.25293E-03   -0.93524E+00  4292   0.727E-01    0.919E-01
RMM:   2    -0.413181703507E+03   -0.47432E-02   -0.11499E-01  4274   0.969E-02    0.655E-01
RMM:   3    -0.413178371170E+03    0.33323E-02   -0.15528E-02  4739   0.501E-02    0.106E-01
RMM:   4    -0.413201415483E+03   -0.23044E-01   -0.23699E-02  5136   0.128E-01    0.635E-01
RMM:   5    -0.413177949437E+03    0.23466E-01   -0.11646E-02  4803   0.105E-01    0.475E-02
RMM:   6    -0.413178079159E+03   -0.12972E-03   -0.20559E-03  5814   0.435E-02    0.317E-02
RMM:   7    -0.413178071859E+03    0.72994E-05   -0.32387E-04  5595   0.181E-02    0.186E-02
RMM:   8    -0.413178060241E+03    0.11618E-04   -0.59973E-05  4982   0.850E-03    0.103E-02
RMM:   9    -0.413178053477E+03    0.67638E-05   -0.11391E-05  3786   0.395E-03    0.762E-03
RMM:  10    -0.413178048016E+03    0.54617E-05   -0.18653E-06  2546   0.232E-03    0.451E-03
RMM:  11    -0.413178042420E+03    0.55960E-05   -0.14914E-06  2533   0.196E-03    0.225E-03
RMM:  12    -0.413178035655E+03    0.67645E-05   -0.13250E-06  2508   0.182E-03    0.917E-04
RMM:  13    -0.413178033002E+03    0.26531E-05   -0.46662E-07  2298   0.121E-03    0.586E-04
RMM:  14    -0.413178032228E+03    0.77402E-06   -0.22395E-07  1823   0.832E-04
   26 T=    63. E= -.41286639E+03 F= -.41317803E+03 E0= -.41315628E+03  EK= 0.31164E+00 SP= 0.00E+00 SK= 0.00E+00
       N       E                     dE             d eps       ncg     rms          rms(c)
RMM:   1    -0.413181119198E+03   -0.30862E-02   -0.93738E+00  4291   0.770E-01    0.897E-01
RMM:   2    -0.413183644358E+03   -0.25252E-02   -0.12280E-01  4269   0.104E-01    0.657E-01
RMM:   3    -0.413179989416E+03    0.36549E-02   -0.15166E-02  4600   0.502E-02    0.903E-02
RMM:   4    -0.413194609279E+03   -0.14620E-01   -0.14835E-02  5144   0.102E-01    0.508E-01
RMM:   5    -0.413179788307E+03    0.14821E-01   -0.74105E-03  4815   0.837E-02    0.433E-02
RMM:   6    -0.413179853825E+03   -0.65518E-04   -0.13205E-03  5828   0.341E-02    0.258E-02
RMM:   7    -0.413179849870E+03    0.39552E-05   -0.16277E-04  5514   0.136E-02    0.123E-02
RMM:   8    -0.413179845832E+03    0.40375E-05   -0.26950E-05  4628   0.559E-03    0.818E-03
RMM:   9    -0.413179842664E+03    0.31684E-05   -0.60629E-06  3178   0.292E-03    0.614E-03
RMM:  10    -0.413179840708E+03    0.19562E-05   -0.13159E-06  2512   0.201E-03    0.364E-03
RMM:  11    -0.413179837253E+03    0.34552E-05   -0.16573E-06  2528   0.204E-03    0.182E-03
RMM:  12    -0.413179834037E+03    0.32158E-05   -0.90450E-07  2446   0.156E-03    0.101E-03
RMM:  13    -0.413179833215E+03    0.82198E-06   -0.31881E-07  2148   0.100E-03
   27 T=    64. E= -.41286668E+03 F= -.41317983E+03 E0= -.41315814E+03  EK= 0.31315E+00 SP= 0.00E+00 SK= 0.00E+00
       N       E                     dE             d eps       ncg     rms          rms(c)
RMM:   1    -0.413180760136E+03   -0.92610E-03   -0.94756E+00  4293   0.770E-01    0.908E-01
RMM:   2    -0.413184925710E+03   -0.41656E-02   -0.11788E-01  4273   0.101E-01    0.666E-01
RMM:   3    -0.413181025336E+03    0.39004E-02   -0.16340E-02  4426   0.505E-02    0.705E-02
RMM:   4    -0.413187506160E+03   -0.64808E-02   -0.65878E-03  5141   0.681E-02    0.341E-01
RMM:   5    -0.413180939899E+03    0.65663E-02   -0.33634E-03  4833   0.562E-02    0.402E-02
RMM:   6    -0.413180971568E+03   -0.31669E-04   -0.74226E-04  5779   0.250E-02    0.242E-02
RMM:   7    -0.413180969357E+03    0.22109E-05   -0.20033E-04  5329   0.145E-02    0.167E-02
RMM:   8    -0.413180955088E+03    0.14269E-04   -0.17968E-05  4161   0.560E-03    0.705E-03
RMM:   9    -0.413180953670E+03    0.14175E-05   -0.39987E-06  2840   0.255E-03    0.474E-03
RMM:  10    -0.413180951754E+03    0.19168E-05   -0.15247E-06  2495   0.201E-03    0.257E-03
RMM:  11    -0.413180949559E+03    0.21943E-05   -0.88461E-07  2461   0.158E-03    0.124E-03
RMM:  12    -0.413180947568E+03    0.19918E-05   -0.44886E-07  2193   0.113E-03    0.592E-04
RMM:  13    -0.413180946108E+03    0.14599E-05   -0.26431E-07  1818   0.868E-04    0.285E-04
RMM:  14    -0.413180944085E+03    0.20231E-05   -0.16350E-07  1480   0.742E-04    0.206E-04
RMM:  15    -0.413180941062E+03    0.30222E-05   -0.12395E-07  1281   0.686E-04    0.107E-04
RMM:  16    -0.413180939595E+03    0.14672E-05   -0.61379E-08   980   0.608E-04    0.782E-05
RMM:  17    -0.413180936482E+03    0.31130E-05   -0.75568E-08  1129   0.625E-04    0.657E-05
RMM:  18    -0.413180935165E+03    0.13168E-05   -0.34814E-08   871   0.564E-04    0.441E-05
RMM:  19    -0.413180934649E+03    0.51637E-06   -0.17269E-08   736   0.537E-04
   28 T=    64. E= -.41286641E+03 F= -.41318093E+03 E0= -.41315929E+03  EK= 0.31453E+00 SP= 0.00E+00 SK= 0.00E+00
       N       E                     dE             d eps       ncg     rms          rms(c)
RMM:   1    -0.413182162767E+03   -0.12276E-02   -0.94960E+00  4284   0.756E-01    0.927E-01
RMM:   2    -0.413186841751E+03   -0.46790E-02   -0.11746E-01  4270   0.103E-01    0.662E-01
RMM:   3    -0.413183177502E+03    0.36642E-02   -0.15624E-02  4625   0.503E-02    0.951E-02
RMM:   4    -0.413198071489E+03   -0.14894E-01   -0.15124E-02  5147   0.103E-01    0.513E-01
RMM:   5    -0.413182976077E+03    0.15095E-01   -0.76230E-03  4819   0.846E-02    0.445E-02
RMM:   6    -0.413183037945E+03   -0.61868E-04   -0.13531E-03  5827   0.344E-02    0.271E-02
RMM:   7    -0.413183036847E+03    0.10980E-05   -0.20770E-04  5507   0.150E-02    0.153E-02
RMM:   8    -0.413183023329E+03    0.13519E-04   -0.34265E-05  4782   0.649E-03    0.847E-03
RMM:   9    -0.413183020745E+03    0.25838E-05   -0.73770E-06  3341   0.327E-03    0.655E-03
RMM:  10    -0.413183015641E+03    0.51034E-05   -0.14654E-06  2512   0.213E-03    0.363E-03
RMM:  11    -0.413183010750E+03    0.48911E-05   -0.11128E-06  2503   0.174E-03    0.189E-03
RMM:  12    -0.413183005172E+03    0.55785E-05   -0.89913E-07  2462   0.152E-03    0.960E-04
RMM:  13    -0.413183003160E+03    0.20119E-05   -0.34638E-07  2164   0.104E-03    0.469E-04
RMM:  14    -0.413183001830E+03    0.13300E-05   -0.16747E-07  1580   0.753E-04    0.343E-04
RMM:  15    -0.413182998397E+03    0.34331E-05   -0.13265E-07  1595   0.722E-04    0.171E-04
RMM:  16    -0.413182995448E+03    0.29490E-05   -0.77216E-08  1201   0.634E-04    0.179E-04
RMM:  17    -0.413182993507E+03    0.19403E-05   -0.40263E-08   868   0.568E-04    0.119E-04
RMM:  18    -0.413182989532E+03    0.39755E-05   -0.58960E-08  1046   0.600E-04    0.406E-05
RMM:  19    -0.413182988623E+03    0.90924E-06   -0.23329E-08   776   0.548E-04
   29 T=    64. E= -.41286666E+03 F= -.41318299E+03 E0= -.41316139E+03  EK= 0.31633E+00 SP= 0.00E+00 SK= 0.00E+00
       N       E                     dE             d eps       ncg     rms          rms(c)
RMM:   1    -0.413193930030E+03   -0.10940E-01   -0.95777E+00  4287   0.840E-01    0.906E-01
RMM:   2    -0.413189066411E+03    0.48636E-02   -0.13052E-01  4267   0.117E-01    0.660E-01
RMM:   3    -0.413185007880E+03    0.40585E-02   -0.14673E-02  4521   0.531E-02    0.984E-02
RMM:   4    -0.413195734473E+03   -0.10727E-01   -0.11027E-02  5146   0.878E-02    0.437E-01
RMM:   5    -0.413184886153E+03    0.10848E-01   -0.55453E-03  4829   0.720E-02    0.423E-02
RMM:   6    -0.413184924515E+03   -0.38361E-04   -0.10313E-03  5836   0.299E-02    0.260E-02
RMM:   7    -0.413184925587E+03   -0.10728E-05   -0.22886E-04  5411   0.154E-02    0.170E-02
RMM:   8    -0.413184908702E+03    0.16885E-04   -0.29418E-05  4658   0.656E-03    0.785E-03
RMM:   9    -0.413184906836E+03    0.18666E-05   -0.54903E-06  3015   0.294E-03    0.564E-03
RMM:  10    -0.413184903540E+03    0.32955E-05   -0.15588E-06  2504   0.207E-03    0.311E-03
RMM:  11    -0.413184900291E+03    0.32495E-05   -0.99016E-07  2476   0.168E-03    0.158E-03
RMM:  12    -0.413184897054E+03    0.32365E-05   -0.64355E-07  2388   0.132E-03    0.839E-04
RMM:  13    -0.413184895457E+03    0.15970E-05   -0.29406E-07  2013   0.937E-04    0.356E-04
RMM:  14    -0.413184893910E+03    0.15472E-05   -0.15947E-07  1475   0.732E-04    0.222E-04
RMM:  15    -0.413184891284E+03    0.26261E-05   -0.11006E-07  1299   0.681E-04    0.110E-04
RMM:  16    -0.413184889074E+03    0.22099E-05   -0.69663E-08  1053   0.629E-04    0.873E-05
RMM:  17    -0.413184887499E+03    0.15745E-05   -0.42833E-08   901   0.595E-04    0.562E-05
RMM:  18    -0.413184884289E+03    0.32101E-05   -0.63460E-08  1136   0.621E-04    0.331E-05
RMM:  19    -0.413184883630E+03    0.65921E-06   -0.21833E-08   750   0.548E-04
   30 T=    65. E= -.41286666E+03 F= -.41318488E+03 E0= -.41316334E+03  EK= 0.31822E+00 SP= 0.00E+00 SK= 0.00E+00
       N       E                     dE             d eps       ncg     rms          rms(c)
RMM:   1    -0.413187694322E+03   -0.28100E-02   -0.96348E+00  4292   0.798E-01    0.911E-01
RMM:   2    -0.413191194412E+03   -0.35001E-02   -0.12083E-01  4271   0.114E-01    0.671E-01
RMM:   3    -0.413186845808E+03    0.43486E-02   -0.16744E-02  4602   0.622E-02    0.888E-02
RMM:   4    -0.413205090504E+03   -0.18245E-01   -0.18440E-02  5135   0.114E-01    0.567E-01
RMM:   5    -0.413186538462E+03    0.18552E-01   -0.92967E-03  4812   0.934E-02    0.447E-02
RMM:   6    -0.413186623727E+03   -0.85265E-04   -0.16049E-03  5839   0.373E-02    0.273E-02
RMM:   7    -0.413186626036E+03   -0.23086E-05   -0.20081E-04  5519   0.146E-02    0.132E-02
RMM:   8    -0.413186619163E+03    0.68731E-05   -0.28344E-05  4587   0.571E-03    0.789E-03
RMM:   9    -0.413186619478E+03   -0.31454E-06   -0.87803E-06  3598   0.328E-03
   31 T=    65. E= -.41286646E+03 F= -.41318662E+03 E0= -.41316512E+03  EK= 0.32016E+00 SP= 0.00E+00 SK= 0.00E+00
       N       E                     dE             d eps       ncg     rms          rms(c)
RMM:   1    -0.413191783914E+03   -0.51648E-02   -0.97004E+00  4299   0.831E-01    0.933E-01
RMM:   2    -0.413193342723E+03   -0.15588E-02   -0.12154E-01  4320   0.119E-01    0.669E-01
RMM:   3    -0.413194830037E+03   -0.14873E-02   -0.19880E-02  5056   0.943E-02    0.327E-01
RMM:   4    -0.413217412883E+03   -0.22583E-01   -0.42499E-02  5065   0.176E-01    0.691E-01
RMM:   5    -0.413189139925E+03    0.28273E-01   -0.10968E-02  4695   0.112E-01    0.580E-02
RMM:   6    -0.413189202904E+03   -0.62980E-04   -0.22592E-03  5662   0.454E-02    0.339E-02
RMM:   7    -0.413189208007E+03   -0.51024E-05   -0.37918E-04  5811   0.181E-02    0.211E-02
RMM:   8    -0.413189200256E+03    0.77508E-05   -0.74479E-05  5098   0.977E-03    0.903E-03
RMM:   9    -0.413189191404E+03    0.88520E-05   -0.10699E-05  3766   0.415E-03    0.450E-03
RMM:  10    -0.413189186974E+03    0.44297E-05   -0.21329E-06  2596   0.224E-03    0.295E-03
RMM:  11    -0.413189180651E+03    0.63235E-05   -0.11769E-06  2500   0.178E-03    0.156E-03
RMM:  12    -0.413189174146E+03    0.65045E-05   -0.73168E-07  2455   0.141E-03    0.555E-04
RMM:  13    -0.413189170864E+03    0.32824E-05   -0.37518E-07  2184   0.102E-03    0.341E-04
RMM:  14    -0.413189168163E+03    0.27006E-05   -0.20461E-07  1653   0.793E-04    0.241E-04
RMM:  15    -0.413189161215E+03    0.69482E-05   -0.18078E-07  1510   0.759E-04    0.213E-04
RMM:  16    -0.413189158380E+03    0.28351E-05   -0.90935E-08  1078   0.641E-04    0.152E-04
RMM:  17    -0.413189154047E+03    0.43330E-05   -0.93161E-08  1284   0.660E-04    0.847E-05
RMM:  18    -0.413189152002E+03    0.20453E-05   -0.55163E-08  1023   0.593E-04    0.551E-05
RMM:  19    -0.413189149563E+03    0.24386E-05   -0.45025E-08  1008   0.582E-04    0.400E-05
RMM:  20    -0.413189149302E+03    0.26150E-06   -0.20104E-08   745   0.536E-04
   32 T=    66. E= -.41286669E+03 F= -.41318915E+03 E0= -.41316770E+03  EK= 0.32246E+00 SP= 0.00E+00 SK= 0.00E+00
       N       E                     dE             d eps       ncg     rms          rms(c)
RMM:   1    -0.413190915649E+03   -0.17661E-02   -0.96654E+00  4298   0.832E-01    0.921E-01
RMM:   2    -0.413195078478E+03   -0.41628E-02   -0.12271E-01  4278   0.121E-01    0.665E-01
RMM:   3    -0.413191093477E+03    0.39850E-02   -0.15656E-02  4371   0.621E-02    0.834E-02
RMM:   4    -0.413195040488E+03   -0.39470E-02   -0.42583E-03  5160   0.549E-02    0.267E-01
RMM:   5    -0.413191077055E+03    0.39634E-02   -0.20727E-03  4830   0.443E-02    0.411E-02
RMM:   6    -0.413191111919E+03   -0.34864E-04   -0.62512E-04  5652   0.240E-02    0.299E-02
RMM:   7    -0.413191081269E+03    0.30650E-04   -0.24342E-04  5138   0.160E-02    0.170E-02
RMM:   8    -0.413191071881E+03    0.93881E-05   -0.22301E-05  4424   0.563E-03    0.673E-03
RMM:   9    -0.413191069734E+03    0.21466E-05   -0.26963E-06  2639   0.223E-03    0.429E-03
RMM:  10    -0.413191065033E+03    0.47009E-05   -0.10402E-06  2481   0.168E-03    0.230E-03
RMM:  11    -0.413191060788E+03    0.42455E-05   -0.68357E-07  2391   0.130E-03    0.101E-03
RMM:  12    -0.413191056795E+03    0.39928E-05   -0.37267E-07  2118   0.101E-03    0.416E-04
RMM:  13    -0.413191053955E+03    0.28400E-05   -0.20261E-07  1676   0.788E-04    0.244E-04
RMM:  14    -0.413191050972E+03    0.29829E-05   -0.10154E-07  1119   0.663E-04    0.168E-04
RMM:  15    -0.413191046732E+03    0.42403E-05   -0.85945E-08  1145   0.651E-04    0.762E-05
RMM:  16    -0.413191044387E+03    0.23445E-05   -0.53972E-08  1010   0.608E-04    0.713E-05
RMM:  17    -0.413191041038E+03    0.33495E-05   -0.52911E-08  1060   0.603E-04    0.368E-05
RMM:  18    -0.413191039216E+03    0.18217E-05   -0.32491E-08   903   0.561E-04    0.257E-05
RMM:  19    -0.413191038703E+03    0.51298E-06   -0.14084E-08   672   0.524E-04
   33 T=    66. E= -.41286645E+03 F= -.41319104E+03 E0= -.41316964E+03  EK= 0.32458E+00 SP= 0.00E+00 SK= 0.00E+00
       N       E                     dE             d eps       ncg     rms          rms(c)
RMM:   1    -0.413194933596E+03   -0.38944E-02   -0.98061E+00  4301   0.856E-01    0.916E-01
RMM:   2    -0.413197706665E+03   -0.27731E-02   -0.12616E-01  4272   0.127E-01    0.676E-01
RMM:   3    -0.413193409837E+03    0.42968E-02   -0.16521E-02  4291   0.663E-02    0.687E-02
RMM:   4    -0.413195141804E+03   -0.17320E-02   -0.20668E-03  5172   0.379E-02    0.178E-01
RMM:   5    -0.413193417929E+03    0.17239E-02   -0.93550E-04  4826   0.301E-02    0.401E-02
RMM:   6    -0.413193448117E+03   -0.30188E-04   -0.47018E-04  5510   0.208E-02    0.291E-02
RMM:   7    -0.413193418424E+03    0.29694E-04   -0.21282E-04  4998   0.151E-02    0.187E-02
RMM:   8    -0.413193411146E+03    0.72781E-05   -0.25287E-05  4292   0.531E-03    0.625E-03
RMM:   9    -0.413193410466E+03    0.67926E-06   -0.27306E-06  2559   0.218E-03
   34 T=    67. E= -.41286651E+03 F= -.41319341E+03 E0= -.41317206E+03  EK= 0.32690E+00 SP= 0.00E+00 SK= 0.00E+00
       N       E                     dE             d eps       ncg     rms          rms(c)
RMM:   1    -0.413211348886E+03   -0.17938E-01   -0.10020E+01  4304   0.961E-01    0.937E-01
RMM:   2    -0.413199939758E+03    0.11409E-01   -0.14203E-01  4269   0.133E-01    0.680E-01
RMM:   3    -0.413196038757E+03    0.39010E-02   -0.14853E-02  4341   0.634E-02    0.103E-01
RMM:   4    -0.413198384868E+03   -0.23461E-02   -0.29996E-03  5174   0.460E-02    0.205E-01
RMM:   5    -0.413196092269E+03    0.22926E-02   -0.12098E-03  4819   0.346E-02    0.422E-02
RMM:   6    -0.413196106820E+03   -0.14551E-04   -0.49008E-04  5544   0.221E-02    0.324E-02
RMM:   7    -0.413196073392E+03    0.33429E-04   -0.24773E-04  4979   0.157E-02    0.178E-02
RMM:   8    -0.413196065685E+03    0.77073E-05   -0.26353E-05  4624   0.565E-03    0.673E-03
RMM:   9    -0.413196063626E+03    0.20592E-05   -0.34088E-06  2602   0.224E-03    0.346E-03
RMM:  10    -0.413196057474E+03    0.61518E-05   -0.96145E-07  2471   0.161E-03    0.188E-03
RMM:  11    -0.413196051372E+03    0.61012E-05   -0.61570E-07  2353   0.120E-03    0.712E-04
RMM:  12    -0.413196046411E+03    0.49618E-05   -0.30570E-07  1923   0.906E-04    0.296E-04
RMM:  13    -0.413196041999E+03    0.44113E-05   -0.17432E-07  1459   0.752E-04    0.244E-04
RMM:  14    -0.413196037568E+03    0.44315E-05   -0.10476E-07  1118   0.664E-04    0.161E-04
RMM:  15    -0.413196030712E+03    0.68560E-05   -0.12672E-07  1437   0.695E-04    0.119E-04
RMM:  16    -0.413196027416E+03    0.32955E-05   -0.64655E-08  1071   0.591E-04    0.100E-04
RMM:  17    -0.413196024044E+03    0.33720E-05   -0.48866E-08   974   0.569E-04    0.371E-05
RMM:  18    -0.413196023081E+03    0.96298E-06   -0.23265E-08   739   0.523E-04
   35 T=    67. E= -.41286668E+03 F= -.41319602E+03 E0= -.41317472E+03  EK= 0.32935E+00 SP= 0.00E+00 SK= 0.00E+00
       N       E                     dE             d eps       ncg     rms          rms(c)
RMM:   1    -0.413197741721E+03   -0.17177E-02   -0.98736E+00  4303   0.868E-01    0.937E-01
RMM:   2    -0.413201773615E+03   -0.40319E-02   -0.12788E-01  4255   0.131E-01    0.673E-01
RMM:   3    -0.413198259653E+03    0.35140E-02   -0.15632E-02  4469   0.656E-02    0.968E-02
RMM:   4    -0.413207626177E+03   -0.93665E-02   -0.95585E-03  5172   0.825E-02    0.410E-01
RMM:   5    -0.413198209345E+03    0.94168E-02   -0.48144E-03  4818   0.679E-02    0.439E-02
RMM:   6    -0.413198228277E+03   -0.18932E-04   -0.10359E-03  5757   0.313E-02    0.309E-02
RMM:   7    -0.413198218099E+03    0.10178E-04   -0.31030E-04  5292   0.177E-02    0.191E-02
RMM:   8    -0.413198201841E+03    0.16258E-04   -0.33023E-05  4857   0.690E-03    0.871E-03
RMM:   9    -0.413198199011E+03    0.28299E-05   -0.52510E-06  2940   0.285E-03    0.538E-03
RMM:  10    -0.413198193505E+03    0.55055E-05   -0.15868E-06  2525   0.212E-03    0.280E-03
RMM:  11    -0.413198188097E+03    0.54077E-05   -0.99135E-07  2471   0.166E-03    0.142E-03
RMM:  12    -0.413198182862E+03    0.52351E-05   -0.59505E-07  2373   0.129E-03    0.707E-04
RMM:  13    -0.413198179799E+03    0.30630E-05   -0.29696E-07  1984   0.932E-04    0.346E-04
RMM:  14    -0.413198177056E+03    0.27430E-05   -0.14900E-07  1426   0.725E-04    0.208E-04
RMM:  15    -0.413198172823E+03    0.42328E-05   -0.90117E-08  1154   0.660E-04    0.111E-04
RMM:  16    -0.413198169279E+03    0.35449E-05   -0.61375E-08  1015   0.628E-04    0.745E-05
RMM:  17    -0.413198166890E+03    0.23888E-05   -0.43268E-08   961   0.601E-04    0.514E-05
RMM:  18    -0.413198162583E+03    0.43068E-05   -0.54483E-08  1183   0.623E-04    0.312E-05
RMM:  19    -0.413198161512E+03    0.10711E-05   -0.21666E-08   766   0.539E-04    0.217E-05
RMM:  20    -0.413198161125E+03    0.38718E-06   -0.12501E-08   661   0.524E-04
   36 T=    68. E= -.41286649E+03 F= -.41319816E+03 E0= -.41317690E+03  EK= 0.33167E+00 SP= 0.00E+00 SK= 0.00E+00
       N       E                     dE             d eps       ncg     rms          rms(c)
RMM:   1    -0.413207965792E+03   -0.98043E-02   -0.10035E+01  4304   0.942E-01    0.923E-01
RMM:   2    -0.413205485470E+03    0.24803E-02   -0.13778E-01  4254   0.135E-01    0.681E-01
RMM:   3    -0.413201250982E+03    0.42345E-02   -0.15538E-02  4535   0.636E-02    0.982E-02
RMM:   4    -0.413215205374E+03   -0.13954E-01   -0.14127E-02  5159   0.100E-01    0.498E-01
RMM:   5    -0.413201140502E+03    0.14065E-01   -0.71464E-03  4815   0.825E-02    0.449E-02
RMM:   6    -0.413201155712E+03   -0.15210E-04   -0.13325E-03  5808   0.350E-02    0.301E-02
RMM:   7    -0.413201165347E+03   -0.96351E-05   -0.32920E-04  5415   0.178E-02    0.196E-02
RMM:   8    -0.413201148127E+03    0.17220E-04   -0.41665E-05  4899   0.762E-03    0.875E-03
RMM:   9    -0.413201147008E+03    0.11189E-05   -0.76064E-06  3231   0.338E-03    0.568E-03
RMM:  10    -0.413201144466E+03    0.25418E-05   -0.16287E-06  2519   0.221E-03    0.306E-03
RMM:  11    -0.413201141713E+03    0.27535E-05   -0.11216E-06  2503   0.172E-03    0.158E-03
RMM:  12    -0.413201138388E+03    0.33245E-05   -0.81380E-07  2445   0.144E-03    0.829E-04
RMM:  13    -0.413201136687E+03    0.17016E-05   -0.33844E-07  2077   0.994E-04    0.411E-04
RMM:  14    -0.413201135358E+03    0.13285E-05   -0.17104E-07  1508   0.750E-04    0.260E-04
RMM:  15    -0.413201132524E+03    0.28348E-05   -0.11617E-07  1290   0.688E-04    0.110E-04
RMM:  16    -0.413201130367E+03    0.21562E-05   -0.70837E-08  1032   0.633E-04    0.814E-05
RMM:  17    -0.413201128429E+03    0.19387E-05   -0.51112E-08   967   0.610E-04    0.606E-05
RMM:  18    -0.413201125440E+03    0.29887E-05   -0.48605E-08  1010   0.610E-04    0.285E-05
RMM:  19    -0.413201124432E+03    0.10084E-05   -0.25421E-08   824   0.566E-04    0.204E-05
RMM:  20    -0.413201123717E+03    0.71451E-06   -0.16626E-08   744   0.550E-04
   37 T=    68. E= -.41286676E+03 F= -.41320112E+03 E0= -.41317990E+03  EK= 0.33436E+00 SP= 0.00E+00 SK= 0.00E+00
       N       E                     dE             d eps       ncg     rms          rms(c)
RMM:   1    -0.413212371065E+03   -0.11247E-01   -0.10168E+01  4307   0.993E-01    0.940E-01
RMM:   2    -0.413208262027E+03    0.41090E-02   -0.14722E-01  4254   0.134E-01    0.688E-01
RMM:   3    -0.413204065686E+03    0.41963E-02   -0.14960E-02  4748   0.606E-02    0.135E-01
RMM:   4    -0.413236709401E+03   -0.32644E-01   -0.33490E-02  5137   0.153E-01    0.753E-01
RMM:   5    -0.413203603164E+03    0.33106E-01   -0.16616E-02  4799   0.125E-01    0.513E-02
RMM:   6    -0.413203674852E+03   -0.71688E-04   -0.27257E-03  5845   0.493E-02    0.329E-02
RMM:   7    -0.413203683437E+03   -0.85852E-05   -0.34193E-04  5625   0.179E-02    0.169E-02
RMM:   8    -0.413203675624E+03    0.78133E-05   -0.50987E-05  4883   0.748E-03    0.959E-03
RMM:   9    -0.413203675513E+03    0.11061E-06   -0.19406E-05  4479   0.465E-03    0.795E-03
RMM:  10    -0.413203669933E+03    0.55807E-05   -0.29671E-06  2700   0.269E-03    0.441E-03
RMM:  11    -0.413203667312E+03    0.26206E-05   -0.14560E-06  2506   0.193E-03    0.277E-03
RMM:  12    -0.413203660539E+03    0.67725E-05   -0.21425E-06  2596   0.230E-03    0.138E-03
RMM:  13    -0.413203657639E+03    0.29002E-05   -0.66727E-07  2410   0.147E-03    0.845E-04
RMM:  14    -0.413203657354E+03    0.28527E-06   -0.25968E-07  2047   0.922E-04
   38 T=    69. E= -.41286667E+03 F= -.41320366E+03 E0= -.41318248E+03  EK= 0.33698E+00 SP= 0.00E+00 SK= 0.00E+00
       N       E                     dE             d eps       ncg     rms          rms(c)
RMM:   1    -0.413206933184E+03   -0.32755E-02   -0.10124E+01  4304   0.969E-01    0.953E-01
RMM:   2    -0.413210649767E+03   -0.37166E-02   -0.13356E-01  4256   0.124E-01    0.682E-01
RMM:   3    -0.413206689815E+03    0.39600E-02   -0.15721E-02  4846   0.574E-02    0.136E-01
RMM:   4    -0.413241033487E+03   -0.34344E-01   -0.35722E-02  5136   0.158E-01    0.772E-01
RMM:   5    -0.413206138892E+03    0.34895E-01   -0.17433E-02  4803   0.129E-01    0.531E-02
RMM:   6    -0.413206216222E+03   -0.77331E-04   -0.28693E-03  5824   0.505E-02    0.340E-02
RMM:   7    -0.413206225945E+03   -0.97222E-05   -0.40031E-04  5691   0.190E-02    0.192E-02
RMM:   8    -0.413206212369E+03    0.13576E-04   -0.71889E-05  5079   0.886E-03    0.110E-02
RMM:   9    -0.413206208511E+03    0.38575E-05   -0.19869E-05  4516   0.502E-03    0.762E-03
RMM:  10    -0.413206201006E+03    0.75048E-05   -0.27309E-06  2668   0.260E-03    0.437E-03
RMM:  11    -0.413206196620E+03    0.43865E-05   -0.12243E-06  2493   0.182E-03    0.271E-03
RMM:  12    -0.413206185798E+03    0.10822E-04   -0.17472E-06  2531   0.214E-03    0.136E-03
RMM:  13    -0.413206180617E+03    0.51802E-05   -0.67828E-07  2403   0.145E-03    0.877E-04
RMM:  14    -0.413206179958E+03    0.65948E-06   -0.27185E-07  2073   0.934E-04
   39 T=    69. E= -.41286654E+03 F= -.41320618E+03 E0= -.41318504E+03  EK= 0.33964E+00 SP= 0.00E+00 SK= 0.00E+00
       N       E                     dE             d eps       ncg     rms          rms(c)
RMM:   1    -0.413223536106E+03   -0.17355E-01   -0.10303E+01  4309   0.110E+00    0.932E-01
RMM:   2    -0.413214057189E+03    0.94789E-02   -0.15695E-01  4260   0.133E-01    0.688E-01
RMM:   3    -0.413210039307E+03    0.40179E-02   -0.14417E-02  4943   0.608E-02    0.177E-01
RMM:   4    -0.413259060483E+03   -0.49021E-01   -0.52971E-02  5132   0.192E-01    0.918E-01
RMM:   5    -0.413208962021E+03    0.50098E-01   -0.24663E-02  4787   0.154E-01    0.585E-02
RMM:   6    -0.413209114869E+03   -0.15285E-03   -0.40580E-03  5827   0.596E-02    0.364E-02
RMM:   7    -0.413209126629E+03   -0.11761E-04   -0.48845E-04  5756   0.203E-02    0.201E-02
RMM:   8    -0.413209126886E+03   -0.25665E-06   -0.95602E-05  5195   0.965E-03    0.127E-02
RMM:   9    -0.413209116823E+03    0.10063E-04   -0.26933E-05  4720   0.565E-03    0.777E-03
RMM:  10    -0.413209112497E+03    0.43254E-05   -0.41923E-06  2795   0.295E-03    0.467E-03
RMM:  11    -0.413209109189E+03    0.33087E-05   -0.16583E-06  2504   0.211E-03    0.286E-03
RMM:  12    -0.413209101540E+03    0.76483E-05   -0.18918E-06  2543   0.221E-03    0.111E-03
RMM:  13    -0.413209097180E+03    0.43608E-05   -0.76232E-07  2439   0.152E-03    0.866E-04
RMM:  14    -0.413209096850E+03    0.32913E-06   -0.30809E-07  2142   0.986E-04
   40 T=    70. E= -.41286670E+03 F= -.41320910E+03 E0= -.41318800E+03  EK= 0.34240E+00 SP= 0.00E+00 SK= 0.00E+00
       N       E                     dE             d eps       ncg     rms          rms(c)
RMM:   1    -0.413222083932E+03   -0.12987E-01   -0.10411E+01  4311   0.111E+00    0.947E-01
RMM:   2    -0.413216127736E+03    0.59562E-02   -0.14556E-01  4262   0.139E-01    0.696E-01
RMM:   3    -0.413212640650E+03    0.34871E-02   -0.16672E-02  4985   0.671E-02    0.192E-01
RMM:   4    -0.413262416617E+03   -0.49776E-01   -0.56935E-02  5130   0.199E-01    0.929E-01
RMM:   5    -0.413210938744E+03    0.51478E-01   -0.24577E-02  4784   0.155E-01    0.596E-02
RMM:   6    -0.413211098587E+03   -0.15984E-03   -0.41607E-03  5822   0.602E-02    0.365E-02
RMM:   7    -0.413211110394E+03   -0.11807E-04   -0.49871E-04  5777   0.207E-02    0.210E-02
RMM:   8    -0.413211112500E+03   -0.21058E-05   -0.11012E-04  5229   0.104E-02    0.137E-02
RMM:   9    -0.413211100604E+03    0.11895E-04   -0.26562E-05  4706   0.585E-03    0.745E-03
RMM:  10    -0.413211096739E+03    0.38654E-05   -0.45790E-06  2849   0.299E-03    0.450E-03
RMM:  11    -0.413211093711E+03    0.30281E-05   -0.15227E-06  2496   0.207E-03    0.273E-03
RMM:  12    -0.413211086974E+03    0.67371E-05   -0.16680E-06  2533   0.210E-03    0.106E-03
RMM:  13    -0.413211082676E+03    0.42981E-05   -0.72559E-07  2439   0.147E-03    0.753E-04
RMM:  14    -0.413211082148E+03    0.52722E-06   -0.30464E-07  2115   0.972E-04
   41 T=    70. E= -.41286631E+03 F= -.41321108E+03 E0= -.41319002E+03  EK= 0.34477E+00 SP= 0.00E+00 SK= 0.00E+00
       N       E                     dE             d eps       ncg     rms          rms(c)
RMM:   1    -0.413220817394E+03   -0.97347E-02   -0.10407E+01  4310   0.115E+00    0.967E-01
RMM:   2    -0.413218005968E+03    0.28114E-02   -0.14387E-01  4291   0.135E-01    0.692E-01
RMM:   3    -0.413216615681E+03    0.13903E-02   -0.17632E-02  5064   0.755E-02    0.259E-01
RMM:   4    -0.413257811737E+03   -0.41196E-01   -0.54990E-02  5096   0.197E-01    0.864E-01
RMM:   5    -0.413213477987E+03    0.44334E-01   -0.19965E-02  4759   0.143E-01    0.611E-02
RMM:   6    -0.413213581621E+03   -0.10363E-03   -0.35258E-03  5784   0.560E-02    0.370E-02
RMM:   7    -0.413213587959E+03   -0.63384E-05   -0.48181E-04  5739   0.205E-02    0.226E-02
RMM:   8    -0.413213585127E+03    0.28320E-05   -0.12945E-04  5223   0.116E-02    0.137E-02
RMM:   9    -0.413213569818E+03    0.15309E-04   -0.22150E-05  4516   0.585E-03    0.614E-03
RMM:  10    -0.413213563704E+03    0.61143E-05   -0.49367E-06  2949   0.288E-03    0.381E-03
RMM:  11    -0.413213558486E+03    0.52183E-05   -0.12717E-06  2496   0.194E-03    0.216E-03
RMM:  12    -0.413213548936E+03    0.95499E-05   -0.10365E-06  2473   0.174E-03    0.845E-04
RMM:  13    -0.413213543105E+03    0.58306E-05   -0.49766E-07  2352   0.124E-03    0.478E-04
RMM:  14    -0.413213541586E+03    0.15186E-05   -0.24799E-07  1945   0.877E-04    0.337E-04
RMM:  15    -0.413213538258E+03    0.33288E-05   -0.13477E-07  1444   0.713E-04    0.172E-04
RMM:  16    -0.413213531571E+03    0.66870E-05   -0.10840E-07  1393   0.698E-04    0.196E-04
RMM:  17    -0.413213528681E+03    0.28901E-05   -0.57144E-08  1016   0.612E-04    0.123E-04
RMM:  18    -0.413213524002E+03    0.46787E-05   -0.64303E-08  1328   0.643E-04    0.985E-05
RMM:  19    -0.413213521655E+03    0.23473E-05   -0.36282E-08  1012   0.566E-04    0.534E-05
RMM:  20    -0.413213520532E+03    0.11225E-05   -0.23476E-08   871   0.540E-04    0.269E-05
RMM:  21    -0.413213520295E+03    0.23718E-06   -0.13417E-08   725   0.517E-04
   42 T=    71. E= -.41286643E+03 F= -.41321352E+03 E0= -.41319249E+03  EK= 0.34709E+00 SP= 0.00E+00 SK= 0.00E+00
       N       E                     dE             d eps       ncg     rms          rms(c)
RMM:   1    -0.413245103716E+03   -0.31583E-01   -0.10610E+01  4310   0.133E+00    0.944E-01
RMM:   2    -0.413220026426E+03    0.25077E-01   -0.17096E-01  4311   0.150E-01    0.694E-01
RMM:   3    -0.413220017670E+03    0.87554E-05   -0.16690E-02  5074   0.829E-02    0.323E-01
RMM:   4    -0.413257886013E+03   -0.37868E-01   -0.56985E-02  5095   0.202E-01    0.848E-01
RMM:   5    -0.413215400605E+03    0.42485E-01   -0.18576E-02  4735   0.141E-01    0.634E-02
RMM:   6    -0.413215470094E+03   -0.69489E-04   -0.32970E-03  5733   0.547E-02    0.367E-02
RMM:   7    -0.413215474548E+03   -0.44537E-05   -0.50055E-04  5783   0.204E-02    0.242E-02
RMM:   8    -0.413215470998E+03    0.35497E-05   -0.13041E-04  5195   0.119E-02    0.126E-02
RMM:   9    -0.413215458775E+03    0.12223E-04   -0.21192E-05  4495   0.583E-03    0.503E-03
RMM:  10    -0.413215455463E+03    0.33126E-05   -0.45751E-06  2881   0.269E-03    0.319E-03
RMM:  11    -0.413215451677E+03    0.37859E-05   -0.13076E-06  2498   0.189E-03    0.174E-03
RMM:  12    -0.413215446302E+03    0.53752E-05   -0.79782E-07  2455   0.150E-03    0.655E-04
RMM:  13    -0.413215443022E+03    0.32793E-05   -0.39318E-07  2160   0.107E-03    0.318E-04
RMM:  14    -0.413215441028E+03    0.19945E-05   -0.21158E-07  1716   0.819E-04    0.215E-04
RMM:  15    -0.413215437283E+03    0.37450E-05   -0.13733E-07  1361   0.718E-04    0.114E-04
RMM:  16    -0.413215434642E+03    0.26413E-05   -0.86501E-08  1149   0.659E-04    0.867E-05
RMM:  17    -0.413215432186E+03    0.24557E-05   -0.65672E-08  1133   0.638E-04    0.560E-05
RMM:  18    -0.413215429384E+03    0.28021E-05   -0.54053E-08  1144   0.621E-04    0.364E-05
RMM:  19    -0.413215427481E+03    0.19024E-05   -0.35222E-08   982   0.580E-04    0.236E-05
RMM:  20    -0.413215426848E+03    0.63351E-06   -0.18271E-08   781   0.547E-04
   43 T=    71. E= -.41286647E+03 F= -.41321543E+03 E0= -.41319442E+03  EK= 0.34896E+00 SP= 0.00E+00 SK= 0.00E+00
       N       E                     dE             d eps       ncg     rms          rms(c)
RMM:   1    -0.413225541901E+03   -0.10114E-01   -0.10523E+01  4312   0.128E+00    0.949E-01
RMM:   2    -0.413221317854E+03    0.42240E-02   -0.15273E-01  4312   0.155E-01    0.704E-01
RMM:   3    -0.413222444642E+03   -0.11268E-02   -0.20228E-02  5069   0.936E-02    0.341E-01
RMM:   4    -0.413254581350E+03   -0.32137E-01   -0.54616E-02  5069   0.199E-01    0.801E-01
RMM:   5    -0.413216533772E+03    0.38048E-01   -0.15690E-02  4710   0.132E-01    0.606E-02
RMM:   6    -0.413216577970E+03   -0.44198E-04   -0.29021E-03  5716   0.512E-02    0.351E-02
RMM:   7    -0.413216577123E+03    0.84676E-06   -0.43783E-04  5744   0.197E-02    0.229E-02
RMM:   8    -0.413216571544E+03    0.55796E-05   -0.11900E-04  5165   0.114E-02    0.118E-02
RMM:   9    -0.413216561027E+03    0.10517E-04   -0.18115E-05  4361   0.550E-03    0.482E-03
RMM:  10    -0.413216558564E+03    0.24625E-05   -0.38093E-06  2787   0.255E-03    0.300E-03
RMM:  11    -0.413216555736E+03    0.28285E-05   -0.12335E-06  2492   0.183E-03    0.161E-03
RMM:  12    -0.413216551496E+03    0.42398E-05   -0.80700E-07  2450   0.148E-03    0.637E-04
RMM:  13    -0.413216548941E+03    0.25550E-05   -0.39568E-07  2112   0.106E-03    0.303E-04
RMM:  14    -0.413216547205E+03    0.17358E-05   -0.21650E-07  1649   0.810E-04    0.198E-04
RMM:  15    -0.413216543523E+03    0.36821E-05   -0.15745E-07  1371   0.734E-04    0.126E-04
RMM:  16    -0.413216541704E+03    0.18193E-05   -0.92075E-08  1121   0.658E-04    0.852E-05
RMM:  17    -0.413216539414E+03    0.22903E-05   -0.73569E-08  1148   0.645E-04    0.528E-05
RMM:  18    -0.413216537008E+03    0.24052E-05   -0.58544E-08  1114   0.620E-04    0.341E-05
RMM:  19    -0.413216535170E+03    0.18385E-05   -0.37931E-08   957   0.582E-04    0.227E-05
RMM:  20    -0.413216534653E+03    0.51663E-06   -0.21106E-08   773   0.549E-04
   44 T=    71. E= -.41286633E+03 F= -.41321653E+03 E0= -.41319555E+03  EK= 0.35020E+00 SP= 0.00E+00 SK= 0.00E+00
       N       E                     dE             d eps       ncg     rms          rms(c)
RMM:   1    -0.413253745154E+03   -0.37210E-01   -0.10783E+01  4311   0.148E+00    0.972E-01
RMM:   2    -0.413222049635E+03    0.31696E-01   -0.17063E-01  4334   0.166E-01    0.701E-01
RMM:   3    -0.413226403386E+03   -0.43538E-02   -0.20851E-02  5108   0.104E-01    0.422E-01
RMM:   4    -0.413245709285E+03   -0.19306E-01   -0.48090E-02  5058   0.189E-01    0.694E-01
RMM:   5    -0.413217808326E+03    0.27901E-01   -0.10872E-02  4669   0.116E-01    0.606E-02
RMM:   6    -0.413217796467E+03    0.11859E-04   -0.21525E-03  5626   0.449E-02    0.353E-02
RMM:   7    -0.413217794006E+03    0.24609E-05   -0.37118E-04  5645   0.186E-02    0.232E-02
RMM:   8    -0.413217784348E+03    0.96585E-05   -0.12170E-04  5091   0.117E-02    0.110E-02
RMM:   9    -0.413217770914E+03    0.13434E-04   -0.16688E-05  4354   0.557E-03    0.444E-03
RMM:  10    -0.413217767021E+03    0.38931E-05   -0.33124E-06  2766   0.238E-03    0.263E-03
RMM:  11    -0.413217761309E+03    0.57113E-05   -0.11707E-06  2480   0.179E-03    0.143E-03
RMM:  12    -0.413217755162E+03    0.61476E-05   -0.62898E-07  2430   0.137E-03    0.644E-04
RMM:  13    -0.413217751488E+03    0.36738E-05   -0.30193E-07  1944   0.948E-04    0.305E-04
RMM:  14    -0.413217748074E+03    0.34137E-05   -0.17018E-07  1502   0.751E-04    0.173E-04
RMM:  15    -0.413217742998E+03    0.50760E-05   -0.12415E-07  1305   0.702E-04    0.122E-04
RMM:  16    -0.413217739986E+03    0.30123E-05   -0.80209E-08  1159   0.649E-04    0.903E-05
RMM:  17    -0.413217735170E+03    0.48157E-05   -0.78919E-08  1347   0.658E-04    0.631E-05
RMM:  18    -0.413217733157E+03    0.20137E-05   -0.42339E-08  1002   0.573E-04    0.444E-05
RMM:  19    -0.413217731348E+03    0.18083E-05   -0.31136E-08   945   0.556E-04    0.221E-05
RMM:  20    -0.413217731035E+03    0.31276E-06   -0.14755E-08   710   0.520E-04
   45 T=    71. E= -.41286678E+03 F= -.41321773E+03 E0= -.41319677E+03  EK= 0.35096E+00 SP= 0.00E+00 SK= 0.00E+00
       N       E                     dE             d eps       ncg     rms          rms(c)
RMM:   1    -0.413252846935E+03   -0.35116E-01   -0.10681E+01  4310   0.156E+00    0.953E-01
RMM:   2    -0.413221689213E+03    0.31158E-01   -0.17276E-01  4349   0.179E-01    0.695E-01
RMM:   3    -0.413228360758E+03   -0.66715E-02   -0.22256E-02  5113   0.114E-01    0.473E-01
RMM:   4    -0.413240302803E+03   -0.11942E-01   -0.45456E-02  5035   0.185E-01    0.633E-01
RMM:   5    -0.413217358653E+03    0.22944E-01   -0.84518E-03  4616   0.107E-01    0.592E-02
RMM:   6    -0.413217324176E+03    0.34477E-04   -0.17590E-03  5516   0.409E-02    0.337E-02
RMM:   7    -0.413217322908E+03    0.12683E-05   -0.32123E-04  5608   0.175E-02    0.225E-02
RMM:   8    -0.413217312681E+03    0.10227E-04   -0.12695E-04  5078   0.118E-02    0.106E-02
RMM:   9    -0.413217299512E+03    0.13169E-04   -0.16047E-05  4323   0.557E-03    0.428E-03
RMM:  10    -0.413217296166E+03    0.33462E-05   -0.29599E-06  2724   0.229E-03    0.247E-03
RMM:  11    -0.413217290681E+03    0.54848E-05   -0.11955E-06  2481   0.179E-03    0.133E-03
RMM:  12    -0.413217285532E+03    0.51485E-05   -0.59972E-07  2410   0.133E-03    0.669E-04
RMM:  13    -0.413217282042E+03    0.34907E-05   -0.28707E-07  1879   0.922E-04    0.319E-04
RMM:  14    -0.413217278538E+03    0.35034E-05   -0.16242E-07  1412   0.732E-04    0.171E-04
RMM:  15    -0.413217274259E+03    0.42793E-05   -0.11882E-07  1264   0.687E-04    0.118E-04
RMM:  16    -0.413217271403E+03    0.28557E-05   -0.78259E-08  1125   0.638E-04    0.956E-05
RMM:  17    -0.413217266684E+03    0.47194E-05   -0.80695E-08  1340   0.655E-04    0.693E-05
RMM:  18    -0.413217264834E+03    0.18501E-05   -0.41146E-08   971   0.567E-04    0.461E-05
RMM:  19    -0.413217263480E+03    0.13532E-05   -0.27598E-08   861   0.541E-04    0.252E-05
RMM:  20    -0.413217262851E+03    0.62974E-06   -0.17622E-08   757   0.522E-04
   46 T=    71. E= -.41286675E+03 F= -.41321726E+03 E0= -.41319632E+03  EK= 0.35052E+00 SP= 0.00E+00 SK= 0.00E+00
       N       E                     dE             d eps       ncg     rms          rms(c)
RMM:   1    -0.413234552165E+03   -0.17289E-01   -0.10530E+01  4311   0.154E+00    0.942E-01
RMM:   2    -0.413220659573E+03    0.13893E-01   -0.16844E-01  4366   0.186E-01    0.705E-01
RMM:   3    -0.413229211638E+03   -0.85521E-02   -0.24917E-02  5099   0.125E-01    0.509E-01
RMM:   4    -0.413237899951E+03   -0.86883E-02   -0.47181E-02  5026   0.190E-01    0.617E-01
RMM:   5    -0.413215899473E+03    0.22000E-01   -0.76884E-03  4606   0.105E-01    0.586E-02
RMM:   6    -0.413215843807E+03    0.55666E-04   -0.15872E-03  5454   0.392E-02    0.321E-02
RMM:   7    -0.413215840040E+03    0.37672E-05   -0.28864E-04  5613   0.167E-02    0.217E-02
RMM:   8    -0.413215830936E+03    0.91040E-05   -0.12864E-04  5078   0.119E-02    0.104E-02
RMM:   9    -0.413215818926E+03    0.12010E-04   -0.15633E-05  4270   0.555E-03    0.418E-03
RMM:  10    -0.413215816676E+03    0.22501E-05   -0.28856E-06  2724   0.228E-03    0.240E-03
RMM:  11    -0.413215812798E+03    0.38779E-05   -0.12700E-06  2490   0.181E-03    0.127E-03
RMM:  12    -0.413215809453E+03    0.33447E-05   -0.61170E-07  2404   0.133E-03    0.680E-04
RMM:  13    -0.413215806746E+03    0.27069E-05   -0.30269E-07  1849   0.935E-04    0.320E-04
RMM:  14    -0.413215804067E+03    0.26796E-05   -0.17555E-07  1407   0.743E-04    0.171E-04
RMM:  15    -0.413215801021E+03    0.30458E-05   -0.12973E-07  1283   0.695E-04    0.111E-04
RMM:  16    -0.413215798909E+03    0.21115E-05   -0.84766E-08  1145   0.641E-04    0.912E-05
RMM:  17    -0.413215795352E+03    0.35576E-05   -0.86983E-08  1297   0.652E-04    0.591E-05
RMM:  18    -0.413215793736E+03    0.16158E-05   -0.45088E-08   965   0.567E-04    0.427E-05
RMM:  19    -0.413215792818E+03    0.91742E-06   -0.27166E-08   820   0.535E-04
   47 T=    71. E= -.41286689E+03 F= -.41321579E+03 E0= -.41319487E+03  EK= 0.34890E+00 SP= 0.00E+00 SK= 0.00E+00
       N       E                     dE             d eps       ncg     rms          rms(c)
RMM:   1    -0.413239363694E+03   -0.23570E-01   -0.10502E+01  4305   0.169E+00    0.961E-01
RMM:   2    -0.413217451846E+03    0.21912E-01   -0.16780E-01  4416   0.198E-01    0.700E-01
RMM:   3    -0.413233216448E+03   -0.15765E-01   -0.30512E-02  5139   0.144E-01    0.619E-01
RMM:   4    -0.413226572705E+03    0.66437E-02   -0.42723E-02  4984   0.184E-01    0.492E-01
RMM:   5    -0.413213103925E+03    0.13469E-01   -0.46463E-03  4539   0.901E-02    0.577E-02
RMM:   6    -0.413212998055E+03    0.10587E-03   -0.77904E-04  4945   0.308E-02    0.306E-02
RMM:   7    -0.413212982282E+03    0.15773E-04   -0.17216E-04  5725   0.129E-02    0.128E-02
RMM:   8    -0.413212980531E+03    0.17509E-05   -0.67917E-05  5243   0.862E-03    0.970E-03
RMM:   9    -0.413212969801E+03    0.10729E-04   -0.17098E-05  4385   0.497E-03    0.455E-03
RMM:  10    -0.413212967416E+03    0.23856E-05   -0.21524E-06  2572   0.233E-03    0.238E-03
RMM:  11    -0.413212961469E+03    0.59463E-05   -0.16669E-06  2502   0.203E-03    0.145E-03
RMM:  12    -0.413212957526E+03    0.39439E-05   -0.61524E-07  2387   0.140E-03    0.861E-04
RMM:  13    -0.413212953419E+03    0.41061E-05   -0.28454E-07  1877   0.956E-04    0.461E-04
RMM:  14    -0.413212948616E+03    0.48032E-05   -0.17412E-07  1644   0.760E-04    0.327E-04
RMM:  15    -0.413212944211E+03    0.44053E-05   -0.98801E-08  1066   0.612E-04    0.155E-04
RMM:  16    -0.413212941646E+03    0.25646E-05   -0.63242E-08   942   0.578E-04    0.115E-04
RMM:  17    -0.413212938218E+03    0.34282E-05   -0.60788E-08  1050   0.593E-04    0.894E-05
RMM:  18    -0.413212935612E+03    0.26064E-05   -0.42115E-08   932   0.568E-04    0.615E-05
RMM:  19    -0.413212934306E+03    0.13061E-05   -0.23975E-08   761   0.528E-04    0.412E-05
RMM:  20    -0.413212933241E+03    0.10651E-05   -0.19279E-08   726   0.515E-04    0.264E-05
RMM:  21    -0.413212932662E+03    0.57899E-06   -0.13480E-08   631   0.497E-04
   48 T=    70. E= -.41286716E+03 F= -.41321293E+03 E0= -.41319202E+03  EK= 0.34578E+00 SP= 0.00E+00 SK= 0.00E+00
       N       E                     dE             d eps       ncg     rms          rms(c)
RMM:   1    -0.413238494742E+03   -0.25562E-01   -0.10321E+01  4304   0.181E+00    0.949E-01
RMM:   2    -0.413211730652E+03    0.26764E-01   -0.16677E-01  4479   0.208E-01    0.689E-01
RMM:   3    -0.413234942132E+03   -0.23211E-01   -0.36039E-02  5156   0.161E-01    0.714E-01
RMM:   4    -0.413216603964E+03    0.18338E-01   -0.41323E-02  4957   0.185E-01    0.409E-01
RMM:   5    -0.413207760295E+03    0.88437E-02   -0.39078E-03  4580   0.864E-02    0.618E-02
RMM:   6    -0.413207594221E+03    0.16607E-03   -0.44718E-04  4682   0.284E-02    0.326E-02
RMM:   7    -0.413207603042E+03   -0.88205E-05   -0.30504E-04  5752   0.182E-02    0.241E-02
RMM:   8    -0.413207567758E+03    0.35284E-04   -0.10113E-04  5003   0.116E-02    0.926E-03
RMM:   9    -0.413207561643E+03    0.61157E-05   -0.19148E-05  4833   0.563E-03    0.474E-03
RMM:  10    -0.413207557617E+03    0.40258E-05   -0.22396E-06  2619   0.240E-03    0.258E-03
RMM:  11    -0.413207551511E+03    0.61059E-05   -0.13620E-06  2492   0.192E-03    0.181E-03
[...]
RMM:   7    -0.413160977221E+03   -0.43994E-04   -0.33795E-04  5976   0.170E-02    0.196E-02
RMM:   8    -0.413160981500E+03   -0.42786E-05   -0.67455E-05  5293   0.926E-03    0.909E-03
RMM:   9    -0.413160986562E+03   -0.50622E-05   -0.11322E-05  4005   0.427E-03    0.400E-03
RMM:  10    -0.413160991796E+03   -0.52338E-05   -0.16829E-06  2555   0.206E-03    0.258E-03
RMM:  11    -0.413161001764E+03   -0.99688E-05   -0.16984E-06  2528   0.189E-03    0.150E-03
RMM:  12    -0.413161008558E+03   -0.67933E-05   -0.10226E-06  2496   0.143E-03    0.680E-04
RMM:  13    -0.413161012138E+03   -0.35806E-05   -0.48187E-07  2053   0.101E-03    0.380E-04
RMM:  14    -0.413161015454E+03   -0.33155E-05   -0.34342E-07  1644   0.839E-04    0.244E-04
RMM:  15    -0.413161019240E+03   -0.37858E-05   -0.41515E-07  1777   0.849E-04    0.219E-04
RMM:  16    -0.413161021096E+03   -0.18566E-05   -0.20960E-07  1380   0.687E-04    0.146E-04
RMM:  17    -0.413161022854E+03   -0.17583E-05   -0.20152E-07  1407   0.695E-04    0.857E-05
RMM:  18    -0.413161023347E+03   -0.49296E-06   -0.79214E-08   990   0.569E-04
  139 T=    60. E= -.41286638E+03 F= -.41316102E+03 E0= -.41314031E+03  EK= 0.29464E+00 SP= 0.00E+00 SK= 0.00E+00
       N       E                     dE             d eps       ncg     rms          rms(c)
RMM:   1    -0.413164108274E+03   -0.30854E-02   -0.71548E+00  4264   0.713E-01    0.832E-01
RMM:   2    -0.413165933417E+03   -0.18251E-02   -0.87538E-02  4298   0.847E-02    0.615E-01
RMM:   3    -0.413162235599E+03    0.36978E-02   -0.25256E-02  4898   0.568E-02    0.147E-01
RMM:   4    -0.413183005780E+03   -0.20770E-01   -0.23434E-02  5124   0.129E-01    0.612E-01
RMM:   5    -0.413161370137E+03    0.21636E-01   -0.10507E-02  4803   0.102E-01    0.489E-02
RMM:   6    -0.413161396689E+03   -0.26553E-04   -0.18521E-03  5671   0.419E-02    0.310E-02
RMM:   7    -0.413161420908E+03   -0.24219E-04   -0.32769E-04  5695   0.162E-02    0.176E-02
RMM:   8    -0.413161428959E+03   -0.80510E-05   -0.47136E-05  5159   0.752E-03    0.826E-03
RMM:   9    -0.413161433999E+03   -0.50397E-05   -0.70087E-06  3157   0.317E-03    0.455E-03
RMM:  10    -0.413161444866E+03   -0.10867E-04   -0.21198E-06  2550   0.213E-03    0.270E-03
RMM:  11    -0.413161453743E+03   -0.88776E-05   -0.12119E-06  2502   0.163E-03    0.127E-03
RMM:  12    -0.413161462238E+03   -0.84946E-05   -0.10434E-06  2439   0.139E-03    0.629E-04
RMM:  13    -0.413161466257E+03   -0.40191E-05   -0.46173E-07  2072   0.102E-03    0.377E-04
RMM:  14    -0.413161468395E+03   -0.21378E-05   -0.23174E-07  1569   0.795E-04    0.239E-04
RMM:  15    -0.413161472712E+03   -0.43173E-05   -0.33958E-07  1766   0.836E-04    0.223E-04
RMM:  16    -0.413161474956E+03   -0.22438E-05   -0.18510E-07  1370   0.687E-04    0.166E-04
RMM:  17    -0.413161475739E+03   -0.78276E-06   -0.93903E-08  1089   0.589E-04
  140 T=    60. E= -.41286611E+03 F= -.41316148E+03 E0= -.41314077E+03  EK= 0.29537E+00 SP= 0.00E+00 SK= 0.00E+00
       N       E                     dE             d eps       ncg     rms          rms(c)
RMM:   1    -0.413165011668E+03   -0.35367E-02   -0.70710E+00  4264   0.711E-01    0.848E-01
RMM:   2    -0.413165997046E+03   -0.98538E-03   -0.86302E-02  4298   0.838E-02    0.613E-01
RMM:   3    -0.413162195610E+03    0.38014E-02   -0.23632E-02  4858   0.507E-02    0.111E-01
RMM:   4    -0.413177296558E+03   -0.15101E-01   -0.16361E-02  5127   0.108E-01    0.522E-01
RMM:   5    -0.413161698447E+03    0.15598E-01   -0.77154E-03  4822   0.866E-02    0.465E-02
RMM:   6    -0.413161717995E+03   -0.19548E-04   -0.14300E-03  5639   0.373E-02    0.322E-02
RMM:   7    -0.413161726225E+03   -0.82305E-05   -0.28901E-04  5544   0.157E-02    0.173E-02
RMM:   8    -0.413161728028E+03   -0.18030E-05   -0.41927E-05  5113   0.714E-03    0.823E-03
RMM:   9    -0.413161729946E+03   -0.19184E-05   -0.57662E-06  3005   0.289E-03    0.453E-03
RMM:  10    -0.413161735820E+03   -0.58738E-05   -0.20082E-06  2538   0.210E-03    0.253E-03
RMM:  11    -0.413161740248E+03   -0.44279E-05   -0.11326E-06  2495   0.157E-03    0.119E-03
RMM:  12    -0.413161744007E+03   -0.37591E-05   -0.87642E-07  2378   0.131E-03    0.599E-04
RMM:  13    -0.413161746415E+03   -0.24079E-05   -0.47451E-07  2032   0.100E-03    0.352E-04
RMM:  14    -0.413161747641E+03   -0.12261E-05   -0.22392E-07  1542   0.784E-04    0.229E-04
RMM:  15    -0.413161749947E+03   -0.23055E-05   -0.32099E-07  1686   0.815E-04    0.186E-04
RMM:  16    -0.413161751207E+03   -0.12597E-05   -0.18909E-07  1433   0.694E-04    0.149E-04
RMM:  17    -0.413161751599E+03   -0.39219E-06   -0.76438E-08  1005   0.571E-04
  141 T=    60. E= -.41286643E+03 F= -.41316175E+03 E0= -.41314106E+03  EK= 0.29532E+00 SP= 0.00E+00 SK= 0.00E+00
       N       E                     dE             d eps       ncg     rms          rms(c)
RMM:   1    -0.413164233029E+03   -0.24818E-02   -0.70077E+00  4264   0.712E-01    0.837E-01
RMM:   2    -0.413165355653E+03   -0.11226E-02   -0.85304E-02  4305   0.827E-02    0.607E-01
RMM:   3    -0.413161383033E+03    0.39726E-02   -0.23437E-02  4736   0.493E-02    0.966E-02
RMM:   4    -0.413168313577E+03   -0.69305E-02   -0.75402E-03  5144   0.747E-02    0.359E-01
RMM:   5    -0.413161075332E+03    0.72382E-02   -0.36725E-03  4834   0.598E-02    0.425E-02
RMM:   6    -0.413161094072E+03   -0.18740E-04   -0.82045E-04  5552   0.291E-02    0.315E-02
RMM:   7    -0.413161094199E+03   -0.12732E-06   -0.22348E-04  5345   0.139E-02    0.160E-02
RMM:   8    -0.413161095126E+03   -0.92660E-06   -0.30987E-05  4903   0.628E-03    0.756E-03
RMM:   9    -0.413161097539E+03   -0.24133E-05   -0.43780E-06  2769   0.248E-03    0.383E-03
RMM:  10    -0.413161103860E+03   -0.63207E-05   -0.17062E-06  2523   0.191E-03    0.202E-03
RMM:  11    -0.413161108434E+03   -0.45740E-05   -0.94086E-07  2464   0.142E-03    0.967E-04
RMM:  12    -0.413161112109E+03   -0.36746E-05   -0.69874E-07  2230   0.116E-03    0.469E-04
RMM:  13    -0.413161115022E+03   -0.29135E-05   -0.48331E-07  1996   0.951E-04    0.302E-04
RMM:  14    -0.413161116527E+03   -0.15048E-05   -0.22564E-07  1393   0.750E-04    0.215E-04
RMM:  15    -0.413161118732E+03   -0.22052E-05   -0.30923E-07  1612   0.793E-04    0.141E-04
RMM:  16    -0.413161119894E+03   -0.11617E-05   -0.16692E-07  1360   0.676E-04    0.111E-04
RMM:  17    -0.413161120273E+03   -0.37960E-06   -0.75354E-08   977   0.562E-04
  142 T=    60. E= -.41286609E+03 F= -.41316112E+03 E0= -.41314044E+03  EK= 0.29503E+00 SP= 0.00E+00 SK= 0.00E+00
       N       E                     dE             d eps       ncg     rms          rms(c)
RMM:   1    -0.413164946640E+03   -0.38267E-02   -0.71039E+00  4264   0.724E-01    0.830E-01
RMM:   2    -0.413166489146E+03   -0.15425E-02   -0.85612E-02  4304   0.835E-02    0.612E-01
RMM:   3    -0.413162248587E+03    0.42406E-02   -0.25274E-02  4590   0.507E-02    0.112E-01
RMM:   4    -0.413163117426E+03   -0.86884E-03   -0.15770E-03  5120   0.377E-02    0.148E-01
RMM:   5    -0.413161971669E+03    0.11458E-02   -0.64334E-04  4830   0.258E-02    0.403E-02
RMM:   6    -0.413161994311E+03   -0.22643E-04   -0.37145E-04  5303   0.199E-02    0.296E-02
RMM:   7    -0.413162004841E+03   -0.10529E-04   -0.16421E-04  4900   0.116E-02    0.160E-02
RMM:   8    -0.413162004555E+03    0.28511E-06   -0.18594E-05  4398   0.497E-03    0.702E-03
RMM:   9    -0.413162009708E+03   -0.51527E-05   -0.62930E-06  2569   0.236E-03    0.228E-03
RMM:  10    -0.413162023336E+03   -0.13628E-04   -0.18329E-06  2511   0.180E-03    0.108E-03
RMM:  11    -0.413162031768E+03   -0.84324E-05   -0.93416E-07  2413   0.133E-03    0.534E-04
RMM:  12    -0.413162036666E+03   -0.48983E-05   -0.45421E-07  1952   0.968E-04    0.446E-04
RMM:  13    -0.413162041735E+03   -0.50686E-05   -0.40473E-07  1684   0.846E-04    0.257E-04
RMM:  14    -0.413162045646E+03   -0.39109E-05   -0.33000E-07  1627   0.785E-04    0.167E-04
RMM:  15    -0.413162047843E+03   -0.21968E-05   -0.19865E-07  1397   0.682E-04    0.866E-05
RMM:  16    -0.413162049068E+03   -0.12251E-05   -0.11813E-07  1124   0.604E-04    0.479E-05
RMM:  17    -0.413162049339E+03   -0.27072E-06   -0.56115E-08   865   0.534E-04
  143 T=    60. E= -.41286626E+03 F= -.41316205E+03 E0= -.41314138E+03  EK= 0.29579E+00 SP= 0.00E+00 SK= 0.00E+00
       N       E                     dE             d eps       ncg     rms          rms(c)
RMM:   1    -0.413165101035E+03   -0.30520E-02   -0.71854E+00  4264   0.724E-01    0.843E-01
RMM:   2    -0.413166514265E+03   -0.14132E-02   -0.86020E-02  4299   0.855E-02    0.612E-01
RMM:   3    -0.413162388544E+03    0.41257E-02   -0.22970E-02  4553   0.483E-02    0.852E-02
RMM:   4    -0.413162237727E+03    0.15082E-03   -0.40467E-04  4989   0.210E-02    0.472E-02
RMM:   5    -0.413162335489E+03   -0.97762E-04   -0.24248E-04  5010   0.153E-02    0.598E-02
RMM:   6    -0.413162240829E+03    0.94660E-04   -0.27224E-04  5221   0.163E-02    0.337E-02
RMM:   7    -0.413162224193E+03    0.16636E-04   -0.17925E-04  4858   0.126E-02    0.164E-02
RMM:   8    -0.413162222347E+03    0.18463E-05   -0.17231E-05  4240   0.478E-03    0.749E-03
RMM:   9    -0.413162227501E+03   -0.51540E-05   -0.91635E-06  2517   0.242E-03    0.199E-03
RMM:  10    -0.413162236755E+03   -0.92546E-05   -0.16684E-06  2480   0.161E-03    0.129E-03
RMM:  11    -0.413162241554E+03   -0.47988E-05   -0.79580E-07  2338   0.112E-03    0.551E-04
RMM:  12    -0.413162244511E+03   -0.29563E-05   -0.35076E-07  1625   0.822E-04    0.366E-04
RMM:  13    -0.413162248948E+03   -0.44373E-05   -0.71715E-07  1992   0.949E-04    0.265E-04
RMM:  14    -0.413162249750E+03   -0.80217E-06   -0.12509E-07  1080   0.587E-04
  144 T=    60. E= -.41286638E+03 F= -.41316225E+03 E0= -.41314159E+03  EK= 0.29587E+00 SP= 0.00E+00 SK= 0.00E+00
       N       E                     dE             d eps       ncg     rms          rms(c)
RMM:   1    -0.413163960386E+03   -0.17114E-02   -0.72773E+00  4264   0.733E-01    0.842E-01
RMM:   2    -0.413165645075E+03   -0.16847E-02   -0.86684E-02  4307   0.853E-02    0.605E-01
RMM:   3    -0.413161652982E+03    0.39921E-02   -0.20982E-02  4669   0.490E-02    0.754E-02
RMM:   4    -0.413165301391E+03   -0.36484E-02   -0.40805E-03  5159   0.557E-02    0.263E-01
RMM:   5    -0.413161480210E+03    0.38212E-02   -0.19768E-03  4843   0.439E-02    0.425E-02
RMM:   6    -0.413161497903E+03   -0.17692E-04   -0.60041E-04  5469   0.248E-02    0.318E-02
RMM:   7    -0.413161498288E+03   -0.38491E-06   -0.19975E-04  5158   0.129E-02    0.162E-02
RMM:   8    -0.413161497381E+03    0.90610E-06   -0.25525E-05  4832   0.561E-03    0.715E-03
RMM:   9    -0.413161499695E+03   -0.23138E-05   -0.51017E-06  2743   0.246E-03    0.306E-03
RMM:  10    -0.413161504344E+03   -0.46487E-05   -0.14847E-06  2512   0.179E-03    0.170E-03
RMM:  11    -0.413161508408E+03   -0.40640E-05   -0.10472E-06  2465   0.144E-03    0.850E-04
RMM:  12    -0.413161510919E+03   -0.25115E-05   -0.61232E-07  2235   0.112E-03    0.379E-04
RMM:  13    -0.413161512650E+03   -0.17307E-05   -0.42273E-07  1917   0.913E-04    0.327E-04
RMM:  14    -0.413161514047E+03   -0.13968E-05   -0.32309E-07  1557   0.796E-04    0.227E-04
RMM:  15    -0.413161515260E+03   -0.12130E-05   -0.27318E-07  1593   0.770E-04    0.918E-05
RMM:  16    -0.413161515945E+03   -0.68482E-06   -0.15228E-07  1262   0.651E-04
  145 T=    60. E= -.41286612E+03 F= -.41316152E+03 E0= -.41314086E+03  EK= 0.29540E+00 SP= 0.00E+00 SK= 0.00E+00
       N       E                     dE             d eps       ncg     rms          rms(c)
RMM:   1    -0.413164104018E+03   -0.25888E-02   -0.74558E+00  4264   0.745E-01    0.827E-01
RMM:   2    -0.413166889823E+03   -0.27858E-02   -0.88012E-02  4302   0.872E-02    0.606E-01
RMM:   3    -0.413162895407E+03    0.39944E-02   -0.21110E-02  4784   0.521E-02    0.980E-02
RMM:   4    -0.413174214506E+03   -0.11319E-01   -0.12100E-02  5136   0.937E-02    0.453E-01
RMM:   5    -0.413162557130E+03    0.11657E-01   -0.57921E-03  4830   0.744E-02    0.459E-02
RMM:   6    -0.413162573776E+03   -0.16646E-04   -0.11382E-03  5612   0.328E-02    0.311E-02
RMM:   7    -0.413162594033E+03   -0.20257E-04   -0.25186E-04  5534   0.142E-02    0.159E-02
RMM:   8    -0.413162599456E+03   -0.54229E-05   -0.34068E-05  5032   0.637E-03    0.714E-03
RMM:   9    -0.413162603702E+03   -0.42464E-05   -0.48574E-06  2901   0.272E-03    0.385E-03
RMM:  10    -0.413162613440E+03   -0.97382E-05   -0.17933E-06  2528   0.200E-03    0.214E-03
RMM:  11    -0.413162621071E+03   -0.76309E-05   -0.10877E-06  2491   0.152E-03    0.111E-03
RMM:  12    -0.413162627103E+03   -0.60318E-05   -0.76904E-07  2342   0.123E-03    0.577E-04
RMM:  13    -0.413162630573E+03   -0.34705E-05   -0.42948E-07  2002   0.959E-04    0.317E-04
RMM:  14    -0.413162632748E+03   -0.21747E-05   -0.25492E-07  1578   0.797E-04    0.242E-04
RMM:  15    -0.413162635423E+03   -0.26750E-05   -0.29480E-07  1554   0.784E-04    0.147E-04
RMM:  16    -0.413162636929E+03   -0.15057E-05   -0.18256E-07  1390   0.702E-04    0.894E-05
RMM:  17    -0.413162637229E+03   -0.30009E-06   -0.79461E-08  1036   0.579E-04
  146 T=    60. E= -.41286640E+03 F= -.41316264E+03 E0= -.41314199E+03  EK= 0.29624E+00 SP= 0.00E+00 SK= 0.00E+00
       N       E                     dE             d eps       ncg     rms          rms(c)
RMM:   1    -0.413163731035E+03   -0.10941E-02   -0.77013E+00  4264   0.758E-01    0.838E-01
RMM:   2    -0.413166632183E+03   -0.29011E-02   -0.90359E-02  4305   0.879E-02    0.610E-01
RMM:   3    -0.413163093918E+03    0.35383E-02   -0.19185E-02  4850   0.523E-02    0.959E-02
RMM:   4    -0.413179496255E+03   -0.16402E-01   -0.17460E-02  5141   0.111E-01    0.540E-01
RMM:   5    -0.413162698633E+03    0.16798E-01   -0.83071E-03  4832   0.888E-02    0.492E-02
RMM:   6    -0.413162719909E+03   -0.21276E-04   -0.15129E-03  5651   0.373E-02    0.316E-02
RMM:   7    -0.413162745908E+03   -0.25999E-04   -0.28730E-04  5706   0.149E-02    0.162E-02
RMM:   8    -0.413162752568E+03   -0.66600E-05   -0.38274E-05  5135   0.676E-03    0.729E-03
RMM:   9    -0.413162756289E+03   -0.37211E-05   -0.58160E-06  3051   0.292E-03    0.405E-03
RMM:  10    -0.413162764440E+03   -0.81506E-05   -0.19299E-06  2539   0.207E-03    0.236E-03
RMM:  11    -0.413162770560E+03   -0.61197E-05   -0.11089E-06  2496   0.156E-03    0.122E-03
RMM:  12    -0.413162775914E+03   -0.53547E-05   -0.88278E-07  2438   0.131E-03    0.649E-04
RMM:  13    -0.413162778426E+03   -0.25119E-05   -0.42193E-07  2000   0.969E-04    0.339E-04
RMM:  14    -0.413162779973E+03   -0.15465E-05   -0.24472E-07  1570   0.797E-04    0.242E-04
RMM:  15    -0.413162781995E+03   -0.20221E-05   -0.27819E-07  1629   0.792E-04    0.164E-04
RMM:  16    -0.413162783264E+03   -0.12690E-05   -0.20462E-07  1466   0.712E-04    0.115E-04
RMM:  17    -0.413162783469E+03   -0.20497E-06   -0.77211E-08  1012   0.571E-04
  147 T=    60. E= -.41286621E+03 F= -.41316278E+03 E0= -.41314214E+03  EK= 0.29657E+00 SP= 0.00E+00 SK= 0.00E+00
       N       E                     dE             d eps       ncg     rms          rms(c)
RMM:   1    -0.413162652746E+03    0.13052E-03   -0.79161E+00  4264   0.771E-01    0.847E-01
RMM:   2    -0.413165780870E+03   -0.31281E-02   -0.91721E-02  4306   0.889E-02    0.602E-01
RMM:   3    -0.413162741699E+03    0.30392E-02   -0.16638E-02  4933   0.506E-02    0.104E-01
RMM:   4    -0.413185262004E+03   -0.22520E-01   -0.24286E-02  5129   0.130E-01    0.629E-01
RMM:   5    -0.413162257294E+03    0.23005E-01   -0.11303E-02  4824   0.104E-01    0.538E-02
RMM:   6    -0.413162288460E+03   -0.31166E-04   -0.19622E-03  5663   0.427E-02    0.329E-02
RMM:   7    -0.413162311880E+03   -0.23420E-04   -0.34235E-04  5821   0.159E-02    0.171E-02
RMM:   8    -0.413162314867E+03   -0.29866E-05   -0.47072E-05  5262   0.739E-03    0.773E-03
RMM:   9    -0.413162316019E+03   -0.11525E-05   -0.73140E-06  3216   0.320E-03    0.430E-03
RMM:  10    -0.413162320099E+03   -0.40796E-05   -0.23396E-06  2573   0.222E-03    0.265E-03
RMM:  11    -0.413162322669E+03   -0.25702E-05   -0.11769E-06  2510   0.164E-03    0.140E-03
RMM:  12    -0.413162324884E+03   -0.22152E-05   -0.99810E-07  2477   0.141E-03    0.724E-04
RMM:  13    -0.413162325776E+03   -0.89197E-06   -0.45138E-07  2088   0.102E-03
  148 T=    60. E= -.41286626E+03 F= -.41316233E+03 E0= -.41314169E+03  EK= 0.29606E+00 SP= 0.00E+00 SK= 0.00E+00
       N       E                     dE             d eps       ncg     rms          rms(c)
RMM:   1    -0.413162050671E+03    0.27421E-03   -0.81257E+00  4264   0.781E-01    0.827E-01
RMM:   2    -0.413166367751E+03   -0.43171E-02   -0.93727E-02  4309   0.905E-02    0.599E-01
RMM:   3    -0.413163498768E+03    0.28690E-02   -0.15467E-02  4962   0.502E-02    0.109E-01
RMM:   4    -0.413188060170E+03   -0.24561E-01   -0.26766E-02  5125   0.137E-01    0.656E-01
RMM:   5    -0.413162941772E+03    0.25118E-01   -0.12253E-02  4820   0.108E-01    0.539E-02
RMM:   6    -0.413162979402E+03   -0.37630E-04   -0.20884E-03  5669   0.439E-02    0.314E-02
RMM:   7    -0.413163004353E+03   -0.24951E-04   -0.34432E-04  5877   0.158E-02    0.165E-02
RMM:   8    -0.413163011919E+03   -0.75658E-05   -0.47708E-05  5251   0.744E-03    0.749E-03
RMM:   9    -0.413163015954E+03   -0.40347E-05   -0.79271E-06  3253   0.325E-03    0.424E-03
RMM:  10    -0.413163024460E+03   -0.85062E-05   -0.23351E-06  2570   0.220E-03    0.268E-03
RMM:  11    -0.413163031092E+03   -0.66318E-05   -0.12579E-06  2516   0.166E-03    0.140E-03
RMM:  12    -0.413163037172E+03   -0.60803E-05   -0.10944E-06  2504   0.143E-03    0.709E-04
RMM:  13    -0.413163039396E+03   -0.22236E-05   -0.45242E-07  2073   0.101E-03    0.392E-04
RMM:  14    -0.413163040996E+03   -0.16001E-05   -0.28047E-07  1630   0.829E-04    0.252E-04
RMM:  15    -0.413163042595E+03   -0.15990E-05   -0.27892E-07  1620   0.793E-04    0.173E-04
RMM:  16    -0.413163043632E+03   -0.10373E-05   -0.23041E-07  1434   0.730E-04    0.128E-04
RMM:  17    -0.413163043782E+03   -0.15014E-06   -0.89092E-08  1061   0.598E-04
  149 T=    60. E= -.41286650E+03 F= -.41316304E+03 E0= -.41314241E+03  EK= 0.29655E+00 SP= 0.00E+00 SK= 0.00E+00
       N       E                     dE             d eps       ncg     rms          rms(c)
RMM:   1    -0.413161475211E+03    0.15684E-02   -0.84642E+00  4264   0.794E-01    0.834E-01
RMM:   2    -0.413166160066E+03   -0.46849E-02   -0.97744E-02  4305   0.914E-02    0.606E-01
RMM:   3    -0.413164185681E+03    0.19744E-02   -0.14671E-02  5039   0.538E-02    0.141E-01
RMM:   4    -0.413195042572E+03   -0.30857E-01   -0.35498E-02  5125   0.157E-01    0.736E-01
RMM:   5    -0.413163197493E+03    0.31845E-01   -0.15217E-02  4813   0.122E-01    0.591E-02
RMM:   6    -0.413163232055E+03   -0.34562E-04   -0.25398E-03  5651   0.486E-02    0.301E-02
RMM:   7    -0.413163270903E+03   -0.38848E-04   -0.39010E-04  6016   0.164E-02    0.167E-02
RMM:   8    -0.413163281504E+03   -0.10602E-04   -0.59375E-05  5358   0.820E-03    0.789E-03
RMM:   9    -0.413163285979E+03   -0.44742E-05   -0.96909E-06  3444   0.357E-03    0.399E-03
RMM:  10    -0.413163293938E+03   -0.79592E-05   -0.27172E-06  2613   0.231E-03    0.271E-03
RMM:  11    -0.413163301687E+03   -0.77491E-05   -0.14744E-06  2515   0.180E-03    0.150E-03
RMM:  12    -0.413163307870E+03   -0.61834E-05   -0.10277E-06  2498   0.144E-03    0.658E-04
RMM:  13    -0.413163310275E+03   -0.24050E-05   -0.43967E-07  2083   0.101E-03    0.390E-04
RMM:  14    -0.413163312379E+03   -0.21040E-05   -0.30805E-07  1642   0.843E-04    0.242E-04
RMM:  15    -0.413163313751E+03   -0.13720E-05   -0.22672E-07  1514   0.764E-04    0.143E-04
RMM:  16    -0.413163314863E+03   -0.11115E-05   -0.22626E-07  1502   0.751E-04    0.104E-04
RMM:  17    -0.413163315100E+03   -0.23724E-06   -0.10407E-07  1194   0.630E-04
  150 T=    60. E= -.41286616E+03 F= -.41316332E+03 E0= -.41314268E+03  EK= 0.29716E+00 SP= 0.00E+00 SK= 0.00E+00
