       N       E                     dE             d eps       ncg     rms          rms(c)
RMM:   1     0.220174046395E+04    0.22017E+04   -0.52443E+04  2132   0.654E+02
RMM:   2     0.705803773058E+03   -0.14959E+04   -0.16265E+04  2132   0.177E+02
RMM:   3     0.138014780012E+03   -0.56779E+03   -0.65708E+03  2132   0.117E+02
RMM:   4    -0.159392903049E+03   -0.29741E+03   -0.27855E+03  2132   0.936E+01
RMM:   5    -0.287479405068E+03   -0.12809E+03   -0.11447E+03  2132   0.595E+01
RMM:   6    -0.349961674313E+03   -0.62482E+02   -0.55165E+02  2132   0.423E+01
RMM:   7    -0.382823233834E+03   -0.32862E+02   -0.30400E+02  2132   0.293E+01
RMM:   8    -0.404226101850E+03   -0.21403E+02   -0.18394E+02  2132   0.233E+01
RMM:   9    -0.435951936129E+03   -0.31726E+02   -0.30608E+02  6103   0.173E+01
RMM:  10    -0.441297667266E+03   -0.53457E+01   -0.63482E+01  6394   0.540E+00
RMM:  11    -0.442511320733E+03   -0.12137E+01   -0.11313E+01  6217   0.174E+00
RMM:  12    -0.442887075932E+03   -0.37576E+00   -0.27272E+00  6366   0.602E-01    0.134E+02
RMM:  13    -0.425553700669E+03    0.17333E+02   -0.80818E+01  4677   0.119E+01    0.712E+01
RMM:  14    -0.498862542455E+03   -0.73309E+02   -0.53679E+02  5427   0.232E+01    0.306E+01
RMM:  15    -0.415826566523E+03    0.83036E+02   -0.19913E+02  5081   0.163E+01    0.697E+00
RMM:  16    -0.414034503807E+03    0.17921E+01   -0.39647E+01  6086   0.611E+00    0.428E+00
RMM:  17    -0.413217903857E+03    0.81660E+00   -0.24669E+00  5384   0.186E+00    0.246E+00
RMM:  18    -0.413171414703E+03    0.46489E-01   -0.81335E-01  5982   0.926E-01    0.165E+00
RMM:  19    -0.413170148834E+03    0.12659E-02   -0.26811E-01  5715   0.554E-01    0.875E-01
RMM:  20    -0.413190452689E+03   -0.20304E-01   -0.27158E-01  5551   0.544E-01    0.618E-01
RMM:  21    -0.413169977082E+03    0.20476E-01   -0.35018E-02  4998   0.238E-01    0.289E-01
RMM:  22    -0.413166680712E+03    0.32964E-02   -0.21257E-02  5931   0.134E-01    0.135E-01
RMM:  23    -0.413165414902E+03    0.12658E-02   -0.60154E-03  6071   0.694E-02    0.839E-02
RMM:  24    -0.413163895126E+03    0.15198E-02   -0.16621E-03  5227   0.415E-02    0.491E-02
RMM:  25    -0.413163154335E+03    0.74079E-03   -0.85071E-04  5267   0.276E-02    0.355E-02
RMM:  26    -0.413163189123E+03   -0.34789E-04   -0.92491E-04  5809   0.314E-02    0.335E-02
RMM:  27    -0.413163572186E+03   -0.38306E-03   -0.19421E-04  4535   0.204E-02    0.188E-02
RMM:  28    -0.413163998496E+03   -0.42631E-03   -0.17040E-04  5181   0.187E-02    0.866E-03
RMM:  29    -0.413164377518E+03   -0.37902E-03   -0.10822E-04  4443   0.159E-02    0.457E-03
RMM:  30    -0.413164600475E+03   -0.22296E-03   -0.81421E-05  4236   0.105E-02    0.385E-03
RMM:  31    -0.413164710248E+03   -0.10977E-03   -0.52499E-05  3199   0.671E-03    0.318E-03
RMM:  32    -0.413164727794E+03   -0.17546E-04   -0.19489E-05  2980   0.297E-03    0.179E-03
RMM:  33    -0.413164734309E+03   -0.65142E-05   -0.77161E-06  2784   0.216E-03    0.586E-04
RMM:  34    -0.413164733998E+03    0.31104E-06   -0.42014E-06  2612   0.154E-03
    1 T=    61. E= -.41286694E+03 F= -.41316473E+03 E0= -.41314224E+03  EK= 0.29780E+00 SP= 0.00E+00 SK= 0.00E+00
       N       E                     dE             d eps       ncg     rms          rms(c)
RMM:   1    -0.413176151426E+03   -0.11417E-01   -0.57521E+00  3993   0.463E-01    0.920E-01
RMM:   2    -0.413172179805E+03    0.39716E-02   -0.75964E-02  3993   0.723E-02    0.666E-01
RMM:   3    -0.413169082561E+03    0.30972E-02   -0.60608E-02  5126   0.832E-02    0.363E-01
RMM:   4    -0.413182124744E+03   -0.13042E-01   -0.25830E-02  5153   0.138E-01    0.572E-01
RMM:   5    -0.413164342131E+03    0.17783E-01   -0.10118E-02  4730   0.964E-02    0.430E-02
RMM:   6    -0.413164430618E+03   -0.88487E-04   -0.14400E-03  5640   0.368E-02    0.263E-02
RMM:   7    -0.413164456114E+03   -0.25496E-04   -0.24015E-04  5725   0.138E-02    0.174E-02
RMM:   8    -0.413164461812E+03   -0.56983E-05   -0.33256E-05  4669   0.645E-03    0.543E-03
RMM:   9    -0.413164465861E+03   -0.40494E-05   -0.61335E-06  2983   0.271E-03    0.366E-03
RMM:  10    -0.413164471588E+03   -0.57263E-05   -0.15028E-06  2534   0.172E-03    0.231E-03
RMM:  11    -0.413164476048E+03   -0.44601E-05   -0.96582E-07  2376   0.128E-03    0.998E-04
RMM:  12    -0.413164481431E+03   -0.53835E-05   -0.84250E-07  2337   0.115E-03    0.507E-04
RMM:  13    -0.413164484008E+03   -0.25767E-05   -0.45723E-07  1776   0.872E-04    0.316E-04
RMM:  14    -0.413164485269E+03   -0.12616E-05   -0.31416E-07  1370   0.737E-04    0.145E-04
RMM:  15    -0.413164487619E+03   -0.23493E-05   -0.41853E-07  1645   0.802E-04    0.248E-04
RMM:  16    -0.413164489005E+03   -0.13858E-05   -0.34451E-07  1472   0.724E-04    0.178E-04
RMM:  17    -0.413164489131E+03   -0.12688E-06   -0.16611E-07  1064   0.583E-04
    2 T=    61. E= -.41286669E+03 F= -.41316449E+03 E0= -.41314199E+03  EK= 0.29780E+00 SP= 0.00E+00 SK= 0.00E+00
       N       E                     dE             d eps       ncg     rms          rms(c)
RMM:   1    -0.413177255545E+03   -0.12767E-01   -0.56935E+00  4192   0.460E-01    0.937E-01
RMM:   2    -0.413172375126E+03    0.48804E-02   -0.76400E-02  4081   0.743E-02    0.666E-01
RMM:   3    -0.413170475669E+03    0.18995E-02   -0.57225E-02  5119   0.886E-02    0.358E-01
RMM:   4    -0.413181473997E+03   -0.10998E-01   -0.25901E-02  5110   0.140E-01    0.551E-01
RMM:   5    -0.413164906295E+03    0.16568E-01   -0.87234E-03  4679   0.913E-02    0.415E-02
RMM:   6    -0.413164982215E+03   -0.75919E-04   -0.12990E-03  5582   0.349E-02    0.280E-02
RMM:   7    -0.413165000581E+03   -0.18366E-04   -0.22847E-04  5491   0.149E-02    0.192E-02
RMM:   8    -0.413164999494E+03    0.10870E-05   -0.34776E-05  4714   0.741E-03    0.635E-03
RMM:   9    -0.413164999024E+03    0.47027E-06   -0.66856E-06  3007   0.295E-03
    3 T=    61. E= -.41286691E+03 F= -.41316500E+03 E0= -.41314250E+03  EK= 0.29809E+00 SP= 0.00E+00 SK= 0.00E+00
       N       E                     dE             d eps       ncg     rms          rms(c)
RMM:   1    -0.413176497657E+03   -0.11498E-01   -0.56593E+00  4216   0.467E-01    0.922E-01
RMM:   2    -0.413171965678E+03    0.45320E-02   -0.75747E-02  4188   0.719E-02    0.659E-01
RMM:   3    -0.413175546860E+03   -0.35812E-02   -0.60675E-02  5190   0.109E-01    0.472E-01
RMM:   4    -0.413175217334E+03    0.32953E-03   -0.25431E-02  5050   0.142E-01    0.456E-01
RMM:   5    -0.413164751094E+03    0.10466E-01   -0.64554E-03  4533   0.746E-02    0.403E-02
RMM:   6    -0.413164765243E+03   -0.14149E-04   -0.76532E-04  5301   0.264E-02    0.264E-02
RMM:   7    -0.413164762600E+03    0.26431E-05   -0.14817E-04  5264   0.119E-02    0.164E-02
RMM:   8    -0.413164762663E+03   -0.63403E-07   -0.24473E-05  4316   0.618E-03    0.445E-03
RMM:   9    -0.413164763765E+03   -0.11015E-05   -0.33813E-06  2669   0.232E-03    0.284E-03
RMM:  10    -0.413164765382E+03   -0.16172E-05   -0.10546E-06  2499   0.148E-03    0.166E-03
RMM:  11    -0.413164766566E+03   -0.11834E-05   -0.65324E-07  2065   0.109E-03    0.732E-04
RMM:  12    -0.413164767845E+03   -0.12798E-05   -0.70669E-07  2294   0.107E-03    0.430E-04
RMM:  13    -0.413164768264E+03   -0.41879E-06   -0.48352E-07  1668   0.853E-04
    4 T=    61. E= -.41286661E+03 F= -.41316477E+03 E0= -.41314228E+03  EK= 0.29816E+00 SP= 0.00E+00 SK= 0.00E+00
       N       E                     dE             d eps       ncg     rms          rms(c)
RMM:   1    -0.413176560862E+03   -0.11793E-01   -0.57510E+00  4236   0.476E-01    0.918E-01
RMM:   2    -0.413172371580E+03    0.41893E-02   -0.75907E-02  4029   0.683E-02    0.665E-01
RMM:   3    -0.413171071994E+03    0.12996E-02   -0.61429E-02  5155   0.866E-02    0.398E-01
RMM:   4    -0.413180439106E+03   -0.93671E-02   -0.25368E-02  5096   0.138E-01    0.545E-01
RMM:   5    -0.413164796652E+03    0.15642E-01   -0.91870E-03  4659   0.897E-02    0.405E-02
RMM:   6    -0.413164891525E+03   -0.94872E-04   -0.12555E-03  5570   0.336E-02    0.266E-02
RMM:   7    -0.413164914775E+03   -0.23250E-04   -0.21451E-04  5469   0.141E-02    0.179E-02
RMM:   8    -0.413164920436E+03   -0.56611E-05   -0.31540E-05  4616   0.677E-03    0.564E-03
RMM:   9    -0.413164923877E+03   -0.34415E-05   -0.56343E-06  2931   0.281E-03    0.363E-03
RMM:  10    -0.413164928825E+03   -0.49481E-05   -0.10971E-06  2517   0.167E-03    0.226E-03
RMM:  11    -0.413164932736E+03   -0.39106E-05   -0.72773E-07  2331   0.122E-03    0.104E-03
RMM:  12    -0.413164937718E+03   -0.49822E-05   -0.77743E-07  2369   0.117E-03    0.564E-04
RMM:  13    -0.413164939558E+03   -0.18394E-05   -0.33256E-07  1743   0.854E-04    0.334E-04
RMM:  14    -0.413164940088E+03   -0.53000E-06   -0.17858E-07  1270   0.706E-04
    5 T=    61. E= -.41286663E+03 F= -.41316494E+03 E0= -.41314246E+03  EK= 0.29831E+00 SP= 0.00E+00 SK= 0.00E+00
       N       E                     dE             d eps       ncg     rms          rms(c)
RMM:   1    -0.413177604062E+03   -0.12665E-01   -0.57068E+00  4246   0.475E-01    0.934E-01
RMM:   2    -0.413172718627E+03    0.48854E-02   -0.76197E-02  4090   0.705E-02    0.666E-01
RMM:   3    -0.413171362681E+03    0.13559E-02   -0.58273E-02  5153   0.875E-02    0.376E-01
RMM:   4    -0.413180992498E+03   -0.96298E-02   -0.25741E-02  5091   0.139E-01    0.540E-01
RMM:   5    -0.413165328888E+03    0.15664E-01   -0.85593E-03  4664   0.892E-02    0.411E-02
RMM:   6    -0.413165399951E+03   -0.71063E-04   -0.12153E-03  5558   0.337E-02    0.275E-02
RMM:   7    -0.413165406627E+03   -0.66757E-05   -0.21468E-04  5514   0.139E-02    0.188E-02
RMM:   8    -0.413165406108E+03    0.51893E-06   -0.32263E-05  4672   0.683E-03    0.598E-03
RMM:   9    -0.413165406420E+03   -0.31203E-06   -0.57361E-06  2904   0.283E-03
    6 T=    61. E= -.41286696E+03 F= -.41316541E+03 E0= -.41314294E+03  EK= 0.29845E+00 SP= 0.00E+00 SK= 0.00E+00
       N       E                     dE             d eps       ncg     rms          rms(c)
RMM:   1    -0.413177465995E+03   -0.12060E-01   -0.56634E+00  4269   0.491E-01    0.928E-01
RMM:   2    -0.413172477356E+03    0.49886E-02   -0.76254E-02  4203   0.706E-02    0.661E-01
RMM:   3    -0.413175299937E+03   -0.28226E-02   -0.59641E-02  5162   0.106E-01    0.455E-01
RMM:   4    -0.413176238310E+03   -0.93837E-03   -0.25462E-02  5047   0.141E-01    0.464E-01
RMM:   5    -0.413165205305E+03    0.11033E-01   -0.64202E-03  4550   0.764E-02    0.406E-02
RMM:   6    -0.413165217433E+03   -0.12128E-04   -0.82749E-04  5337   0.273E-02    0.268E-02
RMM:   7    -0.413165233348E+03   -0.15914E-04   -0.15670E-04  5311   0.124E-02    0.170E-02
RMM:   8    -0.413165233528E+03   -0.18032E-06   -0.25637E-05  4400   0.600E-03    0.469E-03
RMM:   9    -0.413165233210E+03    0.31834E-06   -0.34838E-06  2668   0.227E-03
    7 T=    61. E= -.41286685E+03 F= -.41316523E+03 E0= -.41314279E+03  EK= 0.29838E+00 SP= 0.00E+00 SK= 0.00E+00
       N       E                     dE             d eps       ncg     rms          rms(c)
RMM:   1    -0.413177348757E+03   -0.12115E-01   -0.57259E+00  4270   0.489E-01    0.915E-01
RMM:   2    -0.413173330313E+03    0.40184E-02   -0.75746E-02  4147   0.698E-02    0.663E-01
RMM:   3    -0.413174315370E+03   -0.98506E-03   -0.62326E-02  5134   0.101E-01    0.443E-01
RMM:   4    -0.413178380194E+03   -0.40648E-02   -0.25019E-02  5057   0.138E-01    0.502E-01
RMM:   5    -0.413165702889E+03    0.12677E-01   -0.79837E-03  4594   0.817E-02    0.399E-02
RMM:   6    -0.413165749936E+03   -0.47047E-04   -0.99057E-04  5447   0.295E-02    0.259E-02
RMM:   7    -0.413165766348E+03   -0.16411E-04   -0.17742E-04  5388   0.127E-02    0.168E-02
RMM:   8    -0.413165772285E+03   -0.59379E-05   -0.25497E-05  4356   0.626E-03    0.476E-03
RMM:   9    -0.413165774835E+03   -0.25498E-05   -0.39612E-06  2747   0.242E-03    0.319E-03
RMM:  10    -0.413165778328E+03   -0.34930E-05   -0.10562E-06  2496   0.154E-03    0.189E-03
RMM:  11    -0.413165780562E+03   -0.22341E-05   -0.65562E-07  2176   0.113E-03    0.851E-04
RMM:  12    -0.413165783288E+03   -0.27253E-05   -0.73137E-07  2262   0.111E-03    0.477E-04
RMM:  13    -0.413165784498E+03   -0.12105E-05   -0.45734E-07  1741   0.873E-04    0.315E-04
RMM:  14    -0.413165784408E+03    0.89876E-07   -0.26686E-07  1392   0.747E-04
    8 T=    61. E= -.41286712E+03 F= -.41316578E+03 E0= -.41314335E+03  EK= 0.29867E+00 SP= 0.00E+00 SK= 0.00E+00
       N       E                     dE             d eps       ncg     rms          rms(c)
RMM:   1    -0.413178019579E+03   -0.12235E-01   -0.57196E+00  4283   0.488E-01    0.930E-01
RMM:   2    -0.413173496864E+03    0.45227E-02   -0.75981E-02  4166   0.723E-02    0.667E-01
RMM:   3    -0.413172300643E+03    0.11962E-02   -0.59654E-02  5102   0.927E-02    0.390E-01
RMM:   4    -0.413181119868E+03   -0.88192E-02   -0.25390E-02  5073   0.138E-01    0.536E-01
RMM:   5    -0.413165912333E+03    0.15208E-01   -0.85867E-03  4642   0.883E-02    0.405E-02
RMM:   6    -0.413165980611E+03   -0.68277E-04   -0.12181E-03  5561   0.329E-02    0.272E-02
RMM:   7    -0.413165983915E+03   -0.33041E-05   -0.20997E-04  5454   0.140E-02    0.184E-02
RMM:   8    -0.413165982472E+03    0.14430E-05   -0.30881E-05  4572   0.688E-03    0.570E-03
RMM:   9    -0.413165983102E+03   -0.62992E-06   -0.55392E-06  2888   0.280E-03
    9 T=    61. E= -.41286703E+03 F= -.41316598E+03 E0= -.41314358E+03  EK= 0.29895E+00 SP= 0.00E+00 SK= 0.00E+00
       N       E                     dE             d eps       ncg     rms          rms(c)
RMM:   1    -0.413178291337E+03   -0.12309E-01   -0.56738E+00  4293   0.496E-01    0.935E-01
RMM:   2    -0.413173211446E+03    0.50799E-02   -0.76647E-02  4264   0.749E-02    0.663E-01
RMM:   3    -0.413176415679E+03   -0.32042E-02   -0.59888E-02  5140   0.110E-01    0.459E-01
RMM:   4    -0.413176882436E+03   -0.46676E-03   -0.25619E-02  5038   0.141E-01    0.460E-01
RMM:   5    -0.413165994551E+03    0.10888E-01   -0.62490E-03  4544   0.760E-02    0.405E-02
RMM:   6    -0.413166006483E+03   -0.11932E-04   -0.80534E-04  5343   0.269E-02    0.269E-02
RMM:   7    -0.413166007216E+03   -0.73370E-06   -0.15617E-04  5279   0.125E-02    0.170E-02
RMM:   8    -0.413166005838E+03    0.13785E-05   -0.25308E-05  4329   0.657E-03    0.470E-03
RMM:   9    -0.413166004595E+03    0.12433E-05   -0.37119E-06  2671   0.235E-03    0.285E-03
RMM:  10    -0.413166003069E+03    0.15258E-05   -0.10631E-06  2482   0.150E-03    0.166E-03
RMM:  11    -0.413166001565E+03    0.15039E-05   -0.60994E-07  2024   0.108E-03    0.763E-04
RMM:  12    -0.413165998759E+03    0.28060E-05   -0.65432E-07  2288   0.108E-03    0.477E-04
RMM:  13    -0.413165995762E+03    0.29967E-05   -0.37554E-07  1609   0.840E-04    0.308E-04
RMM:  14    -0.413165993297E+03    0.24648E-05   -0.24248E-07  1434   0.748E-04    0.202E-04
RMM:  15    -0.413165990533E+03    0.27639E-05   -0.21792E-07  1495   0.717E-04    0.242E-04
RMM:  16    -0.413165985777E+03    0.47564E-05   -0.32944E-07  1517   0.756E-04    0.123E-04
RMM:  17    -0.413165984909E+03    0.86815E-06   -0.83589E-08   912   0.550E-04
   10 T=    61. E= -.41286674E+03 F= -.41316598E+03 E0= -.41314360E+03  EK= 0.29925E+00 SP= 0.00E+00 SK= 0.00E+00
       N       E                     dE             d eps       ncg     rms          rms(c)
RMM:   1    -0.413178389595E+03   -0.12404E-01   -0.57082E+00  4292   0.500E-01    0.916E-01
RMM:   2    -0.413174387448E+03    0.40021E-02   -0.75717E-02  4224   0.760E-02    0.662E-01
RMM:   3    -0.413172826549E+03    0.15609E-02   -0.60482E-02  5101   0.913E-02    0.392E-01
RMM:   4    -0.413182222711E+03   -0.93962E-02   -0.25272E-02  5071   0.138E-01    0.543E-01
RMM:   5    -0.413166663281E+03    0.15559E-01   -0.90111E-03  4654   0.885E-02    0.400E-02
RMM:   6    -0.413166748729E+03   -0.85447E-04   -0.12260E-03  5559   0.331E-02    0.269E-02
RMM:   7    -0.413166763674E+03   -0.14945E-04   -0.21495E-04  5416   0.145E-02    0.184E-02
RMM:   8    -0.413166766902E+03   -0.32281E-05   -0.31371E-05  4572   0.684E-03    0.580E-03
RMM:   9    -0.413166768645E+03   -0.17429E-05   -0.57611E-06  2914   0.279E-03    0.363E-03
RMM:  10    -0.413166771560E+03   -0.29150E-05   -0.10927E-06  2499   0.166E-03    0.228E-03
RMM:  11    -0.413166773508E+03   -0.19484E-05   -0.68175E-07  2299   0.120E-03    0.102E-03
RMM:  12    -0.413166775434E+03   -0.19259E-05   -0.63012E-07  2296   0.112E-03    0.545E-04
RMM:  13    -0.413166775727E+03   -0.29272E-06   -0.25506E-07  1661   0.821E-04
   11 T=    61. E= -.41286697E+03 F= -.41316678E+03 E0= -.41314442E+03  EK= 0.29981E+00 SP= 0.00E+00 SK= 0.00E+00
       N       E                     dE             d eps       ncg     rms          rms(c)
RMM:   1    -0.413178690790E+03   -0.11915E-01   -0.57488E+00  4295   0.502E-01    0.928E-01
RMM:   2    -0.413174319197E+03    0.43716E-02   -0.76084E-02  4239   0.761E-02    0.669E-01
RMM:   3    -0.413172971091E+03    0.13481E-02   -0.60854E-02  5112   0.905E-02    0.394E-01
RMM:   4    -0.413182133707E+03   -0.91626E-02   -0.25427E-02  5074   0.138E-01    0.541E-01
RMM:   5    -0.413166659791E+03    0.15474E-01   -0.89301E-03  4647   0.886E-02    0.400E-02
RMM:   6    -0.413166750717E+03   -0.90926E-04   -0.12291E-03  5583   0.330E-02    0.270E-02
RMM:   7    -0.413166766578E+03   -0.15861E-04   -0.21511E-04  5456   0.143E-02    0.185E-02
RMM:   8    -0.413166771169E+03   -0.45908E-05   -0.31662E-05  4582   0.707E-03    0.587E-03
RMM:   9    -0.413166772534E+03   -0.13655E-05   -0.58244E-06  2914   0.290E-03    0.369E-03
RMM:  10    -0.413166774718E+03   -0.21843E-05   -0.10966E-06  2504   0.168E-03    0.231E-03
RMM:  11    -0.413166776140E+03   -0.14221E-05   -0.72008E-07  2369   0.123E-03    0.103E-03
RMM:  12    -0.413166777218E+03   -0.10773E-05   -0.64822E-07  2258   0.112E-03    0.555E-04
RMM:  13    -0.413166776972E+03    0.24553E-06   -0.24556E-07  1645   0.815E-04
   12 T=    61. E= -.41286674E+03 F= -.41316678E+03 E0= -.41314445E+03  EK= 0.30004E+00 SP= 0.00E+00 SK= 0.00E+00
       N       E                     dE             d eps       ncg     rms          rms(c)
RMM:   1    -0.413180018023E+03   -0.13241E-01   -0.56945E+00  4294   0.510E-01    0.940E-01
RMM:   2    -0.413174558973E+03    0.54591E-02   -0.77119E-02  4257   0.715E-02    0.666E-01
RMM:   3    -0.413173153445E+03    0.14055E-02   -0.57230E-02  5145   0.868E-02    0.366E-01
RMM:   4    -0.413183309144E+03   -0.10156E-01   -0.26328E-02  5079   0.140E-01    0.543E-01
RMM:   5    -0.413167268841E+03    0.16040E-01   -0.83463E-03  4661   0.897E-02    0.409E-02
RMM:   6    -0.413167324826E+03   -0.55985E-04   -0.12584E-03  5594   0.338E-02    0.280E-02
RMM:   7    -0.413167333906E+03   -0.90798E-05   -0.21988E-04  5443   0.147E-02    0.195E-02
RMM:   8    -0.413167334210E+03   -0.30455E-06   -0.33104E-05  4650   0.712E-03    0.636E-03
RMM:   9    -0.413167331861E+03    0.23491E-05   -0.62963E-06  2942   0.294E-03    0.362E-03
RMM:  10    -0.413167329919E+03    0.19416E-05   -0.12407E-06  2518   0.173E-03    0.226E-03
RMM:  11    -0.413167327825E+03    0.20944E-05   -0.76752E-07  2384   0.127E-03    0.106E-03
RMM:  12    -0.413167324011E+03    0.38140E-05   -0.79871E-07  2400   0.122E-03    0.618E-04
RMM:  13    -0.413167321634E+03    0.23768E-05   -0.29549E-07  1754   0.862E-04    0.371E-04
RMM:  14    -0.413167319887E+03    0.17468E-05   -0.16015E-07  1279   0.707E-04    0.174E-04
RMM:  15    -0.413167315226E+03    0.46618E-05   -0.23984E-07  1652   0.792E-04    0.295E-04
RMM:  16    -0.413167310980E+03    0.42461E-05   -0.18326E-07  1438   0.694E-04    0.229E-04
RMM:  17    -0.413167309698E+03    0.12813E-05   -0.74901E-08   944   0.549E-04    0.153E-04
RMM:  18    -0.413167307594E+03    0.21043E-05   -0.70448E-08   979   0.563E-04    0.396E-05
RMM:  19    -0.413167307035E+03    0.55878E-06   -0.36890E-08   834   0.533E-04
   13 T=    61. E= -.41286689E+03 F= -.41316731E+03 E0= -.41314501E+03  EK= 0.30042E+00 SP= 0.00E+00 SK= 0.00E+00
       N       E                     dE             d eps       ncg     rms          rms(c)
RMM:   1    -0.413179877427E+03   -0.12570E-01   -0.56874E+00  4293   0.510E-01    0.919E-01
RMM:   2    -0.413175434111E+03    0.44433E-02   -0.75595E-02  4270   0.677E-02    0.662E-01
RMM:   3    -0.413174384142E+03    0.10500E-02   -0.59889E-02  5134   0.893E-02    0.391E-01
RMM:   4    -0.413183301978E+03   -0.89178E-02   -0.25613E-02  5073   0.139E-01    0.538E-01
RMM:   5    -0.413167983427E+03    0.15319E-01   -0.87466E-03  4645   0.882E-02    0.399E-02
RMM:   6    -0.413168055738E+03   -0.72311E-04   -0.12157E-03  5564   0.327E-02    0.271E-02
RMM:   7    -0.413168065547E+03   -0.98097E-05   -0.21043E-04  5411   0.142E-02    0.186E-02
RMM:   8    -0.413168065532E+03    0.15636E-07   -0.30816E-05  4584   0.675E-03    0.576E-03
RMM:   9    -0.413168066349E+03   -0.81670E-06   -0.58097E-06  2890   0.283E-03
   14 T=    61. E= -.41286719E+03 F= -.41316807E+03 E0= -.41314580E+03  EK= 0.30088E+00 SP= 0.00E+00 SK= 0.00E+00
       N       E                     dE             d eps       ncg     rms          rms(c)
RMM:   1    -0.413179971897E+03   -0.11906E-01   -0.57679E+00  4300   0.516E-01    0.925E-01
RMM:   2    -0.413175685946E+03    0.42860E-02   -0.76506E-02  4303   0.698E-02    0.669E-01
RMM:   3    -0.413180128562E+03   -0.44426E-02   -0.65245E-02  5153   0.114E-01    0.506E-01
RMM:   4    -0.413177966939E+03    0.21616E-02   -0.25507E-02  5022   0.141E-01    0.458E-01
RMM:   5    -0.413168027963E+03    0.99390E-02   -0.70486E-03  4482   0.740E-02    0.388E-02
RMM:   6    -0.413168052385E+03   -0.24421E-04   -0.73639E-04  5291   0.252E-02    0.255E-02
RMM:   7    -0.413168066970E+03   -0.14586E-04   -0.14545E-04  5120   0.120E-02    0.156E-02
RMM:   8    -0.413168072020E+03   -0.50492E-05   -0.22430E-05  4147   0.566E-03    0.407E-03
RMM:   9    -0.413168073683E+03   -0.16630E-05   -0.27132E-06  2590   0.215E-03    0.288E-03
RMM:  10    -0.413168075772E+03   -0.20891E-05   -0.98003E-07  2435   0.142E-03    0.156E-03
RMM:  11    -0.413168076603E+03   -0.83088E-06   -0.51368E-07  1865   0.994E-04
   15 T=    61. E= -.41286689E+03 F= -.41316808E+03 E0= -.41314584E+03  EK= 0.30119E+00 SP= 0.00E+00 SK= 0.00E+00
       N       E                     dE             d eps       ncg     rms          rms(c)
RMM:   1    -0.413181646458E+03   -0.13571E-01   -0.57104E+00  4294   0.514E-01    0.943E-01
RMM:   2    -0.413176602916E+03    0.50435E-02   -0.76809E-02  4262   0.748E-02    0.668E-01
RMM:   3    -0.413175330637E+03    0.12723E-02   -0.58295E-02  5086   0.935E-02    0.375E-01
RMM:   4    -0.413184525536E+03   -0.91949E-02   -0.25817E-02  5066   0.139E-01    0.534E-01
RMM:   5    -0.413169077121E+03    0.15448E-01   -0.81996E-03  4647   0.878E-02    0.403E-02
RMM:   6    -0.413169150427E+03   -0.73306E-04   -0.12492E-03  5612   0.329E-02    0.280E-02
RMM:   7    -0.413169150063E+03    0.36435E-06   -0.21532E-04  5420   0.144E-02    0.194E-02
RMM:   8    -0.413169144784E+03    0.52786E-05   -0.31509E-05  4605   0.690E-03    0.625E-03
RMM:   9    -0.413169142625E+03    0.21589E-05   -0.59851E-06  2911   0.292E-03    0.360E-03
RMM:  10    -0.413169140182E+03    0.24432E-05   -0.12328E-06  2522   0.174E-03    0.226E-03
RMM:  11    -0.413169137488E+03    0.26943E-05   -0.74500E-07  2357   0.125E-03    0.108E-03
RMM:  12    -0.413169132491E+03    0.49971E-05   -0.84769E-07  2413   0.127E-03    0.643E-04
RMM:  13    -0.413169128918E+03    0.35729E-05   -0.31167E-07  1748   0.871E-04    0.390E-04
RMM:  14    -0.413169127029E+03    0.18884E-05   -0.14887E-07  1240   0.690E-04    0.181E-04
RMM:  15    -0.413169120978E+03    0.60515E-05   -0.22982E-07  1589   0.783E-04    0.319E-04
RMM:  16    -0.413169115598E+03    0.53797E-05   -0.16906E-07  1370   0.683E-04    0.261E-04
RMM:  17    -0.413169114546E+03    0.10518E-05   -0.61930E-08   871   0.541E-04    0.188E-04
RMM:  18    -0.413169112030E+03    0.25163E-05   -0.64164E-08  1005   0.569E-04    0.605E-05
RMM:  19    -0.413169111154E+03    0.87555E-06   -0.35931E-08   824   0.537E-04
   16 T=    61. E= -.41286715E+03 F= -.41316911E+03 E0= -.41314691E+03  EK= 0.30196E+00 SP= 0.00E+00 SK= 0.00E+00
       N       E                     dE             d eps       ncg     rms          rms(c)
RMM:   1    -0.413181567140E+03   -0.12455E-01   -0.56870E+00  4295   0.521E-01    0.925E-01
RMM:   2    -0.413177167033E+03    0.44001E-02   -0.76202E-02  4263   0.777E-02    0.663E-01
RMM:   3    -0.413176013996E+03    0.11530E-02   -0.59465E-02  5067   0.946E-02    0.388E-01
RMM:   4    -0.413184838484E+03   -0.88245E-02   -0.25665E-02  5051   0.139E-01    0.536E-01
RMM:   5    -0.413169444854E+03    0.15394E-01   -0.85150E-03  4637   0.879E-02    0.401E-02
RMM:   6    -0.413169524767E+03   -0.79913E-04   -0.12360E-03  5594   0.325E-02    0.275E-02
RMM:   7    -0.413169545587E+03   -0.20820E-04   -0.21235E-04  5400   0.144E-02    0.189E-02
RMM:   8    -0.413169548254E+03   -0.26665E-05   -0.31681E-05  4526   0.745E-03    0.594E-03
RMM:   9    -0.413169547635E+03    0.61835E-06   -0.62380E-06  2921   0.290E-03
   17 T=    62. E= -.41286695E+03 F= -.41316955E+03 E0= -.41314739E+03  EK= 0.30260E+00 SP= 0.00E+00 SK= 0.00E+00
       N       E                     dE             d eps       ncg     rms          rms(c)
RMM:   1    -0.413181879916E+03   -0.12332E-01   -0.57897E+00  4298   0.528E-01    0.924E-01
RMM:   2    -0.413177953990E+03    0.39259E-02   -0.76732E-02  4297   0.768E-02    0.670E-01
RMM:   3    -0.413182410039E+03   -0.44560E-02   -0.65995E-02  5127   0.118E-01    0.514E-01
RMM:   4    -0.413179835201E+03    0.25748E-02   -0.25489E-02  5009   0.142E-01    0.457E-01
RMM:   5    -0.413170017463E+03    0.98177E-02   -0.71428E-03  4475   0.743E-02    0.384E-02
RMM:   6    -0.413170041006E+03   -0.23543E-04   -0.74208E-04  5303   0.250E-02    0.254E-02
RMM:   7    -0.413170048605E+03   -0.75988E-05   -0.14409E-04  5097   0.120E-02    0.156E-02
RMM:   8    -0.413170049265E+03   -0.66015E-06   -0.22280E-05  4065   0.610E-03    0.396E-03
RMM:   9    -0.413170050588E+03   -0.13234E-05   -0.30458E-06  2616   0.221E-03    0.289E-03
RMM:  10    -0.413170052199E+03   -0.16100E-05   -0.10006E-06  2437   0.143E-03    0.160E-03
RMM:  11    -0.413170052589E+03   -0.39021E-06   -0.50801E-07  1848   0.987E-04
   18 T=    62. E= -.41286684E+03 F= -.41317005E+03 E0= -.41314793E+03  EK= 0.30322E+00 SP= 0.00E+00 SK= 0.00E+00
       N       E                     dE             d eps       ncg     rms          rms(c)
RMM:   1    -0.413183902044E+03   -0.13850E-01   -0.57393E+00  4295   0.526E-01    0.944E-01
RMM:   2    -0.413178740485E+03    0.51616E-02   -0.76941E-02  4273   0.719E-02    0.671E-01
RMM:   3    -0.413177397254E+03    0.13432E-02   -0.58972E-02  5111   0.890E-02    0.376E-01
RMM:   4    -0.413187158665E+03   -0.97614E-02   -0.26129E-02  5071   0.140E-01    0.542E-01
RMM:   5    -0.413171206274E+03    0.15952E-01   -0.84928E-03  4648   0.892E-02    0.404E-02
RMM:   6    -0.413171292498E+03   -0.86224E-04   -0.12935E-03  5638   0.332E-02    0.279E-02
RMM:   7    -0.413171312246E+03   -0.19748E-04   -0.21820E-04  5411   0.149E-02    0.195E-02
RMM:   8    -0.413171312789E+03   -0.54278E-06   -0.33324E-05  4579   0.737E-03    0.628E-03
RMM:   9    -0.413171309947E+03    0.28423E-05   -0.69757E-06  2978   0.303E-03    0.369E-03
RMM:  10    -0.413171307561E+03    0.23857E-05   -0.12270E-06  2523   0.176E-03    0.232E-03
RMM:  11    -0.413171304938E+03    0.26229E-05   -0.75657E-07  2380   0.126E-03    0.112E-03
RMM:  12    -0.413171299829E+03    0.51095E-05   -0.85036E-07  2411   0.126E-03    0.671E-04
RMM:  13    -0.413171296282E+03    0.35470E-05   -0.30381E-07  1728   0.858E-04    0.383E-04
RMM:  14    -0.413171294363E+03    0.19182E-05   -0.14426E-07  1202   0.681E-04    0.180E-04
RMM:  15    -0.413171287343E+03    0.70207E-05   -0.22574E-07  1525   0.772E-04    0.319E-04
RMM:  16    -0.413171282267E+03    0.50753E-05   -0.13645E-07  1251   0.660E-04    0.268E-04
RMM:  17    -0.413171280812E+03    0.14551E-05   -0.62771E-08   899   0.559E-04    0.192E-04
RMM:  18    -0.413171278027E+03    0.27855E-05   -0.60147E-08   979   0.576E-04    0.642E-05
RMM:  19    -0.413171277078E+03    0.94852E-06   -0.34677E-08   844   0.550E-04
   19 T=    62. E= -.41286726E+03 F= -.41317128E+03 E0= -.41314920E+03  EK= 0.30402E+00 SP= 0.00E+00 SK= 0.00E+00
       N       E                     dE             d eps       ncg     rms          rms(c)
RMM:   1    -0.413184028319E+03   -0.12750E-01   -0.57036E+00  4294   0.531E-01    0.933E-01
RMM:   2    -0.413178970708E+03    0.50576E-02   -0.76613E-02  4281   0.716E-02    0.665E-01
RMM:   3    -0.413177757265E+03    0.12134E-02   -0.58802E-02  5127   0.884E-02    0.377E-01
RMM:   4    -0.413187494428E+03   -0.97372E-02   -0.26200E-02  5069   0.140E-01    0.542E-01
RMM:   5    -0.413171594229E+03    0.15900E-01   -0.85689E-03  4655   0.890E-02    0.403E-02
RMM:   6    -0.413171672660E+03   -0.78431E-04   -0.12893E-03  5624   0.331E-02    0.277E-02
RMM:   7    -0.413171678881E+03   -0.62210E-05   -0.21695E-04  5422   0.145E-02    0.195E-02
RMM:   8    -0.413171678782E+03    0.99622E-07   -0.32764E-05  4620   0.695E-03    0.634E-03
RMM:   9    -0.413171677390E+03    0.13916E-05   -0.65157E-06  2955   0.294E-03    0.360E-03
RMM:  10    -0.413171676367E+03    0.10225E-05   -0.11797E-06  2516   0.172E-03    0.225E-03
RMM:  11    -0.413171674970E+03    0.13970E-05   -0.70180E-07  2350   0.122E-03    0.111E-03
RMM:  12    -0.413171671796E+03    0.31740E-05   -0.80865E-07  2422   0.124E-03    0.645E-04
RMM:  13    -0.413171669279E+03    0.25178E-05   -0.29309E-07  1732   0.850E-04    0.388E-04
RMM:  14    -0.413171667949E+03    0.13300E-05   -0.13608E-07  1194   0.673E-04    0.179E-04
RMM:  15    -0.413171663848E+03    0.41005E-05   -0.14019E-07  1217   0.693E-04    0.185E-04
RMM:  16    -0.413171659539E+03    0.43095E-05   -0.11728E-07  1178   0.659E-04    0.198E-04
RMM:  17    -0.413171658159E+03    0.13798E-05   -0.53951E-08   884   0.575E-04    0.154E-04
RMM:  18    -0.413171655441E+03    0.27176E-05   -0.54016E-08   952   0.579E-04    0.765E-05
RMM:  19    -0.413171654359E+03    0.10821E-05   -0.27826E-08   773   0.550E-04    0.243E-05
RMM:  20    -0.413171653949E+03    0.41024E-06   -0.15942E-08   683   0.534E-04
   20 T=    62. E= -.41286707E+03 F= -.41317165E+03 E0= -.41314962E+03  EK= 0.30458E+00 SP= 0.00E+00 SK= 0.00E+00
       N       E                     dE             d eps       ncg     rms          rms(c)
RMM:   1    -0.413184841613E+03   -0.13187E-01   -0.57938E+00  4296   0.541E-01    0.925E-01
RMM:   2    -0.413180495755E+03    0.43459E-02   -0.76697E-02  4274   0.727E-02    0.670E-01
RMM:   3    -0.413179219802E+03    0.12760E-02   -0.62691E-02  5111   0.901E-02    0.402E-01
RMM:   4    -0.413188446375E+03   -0.92266E-02   -0.25482E-02  5064   0.138E-01    0.547E-01
RMM:   5    -0.413172762702E+03    0.15684E-01   -0.92402E-03  4647   0.895E-02    0.397E-02
RMM:   6    -0.413172841915E+03   -0.79213E-04   -0.12900E-03  5634   0.328E-02    0.267E-02
RMM:   7    -0.413172850599E+03   -0.86837E-05   -0.21455E-04  5426   0.144E-02    0.186E-02
RMM:   8    -0.413172855402E+03   -0.48031E-05   -0.31418E-05  4548   0.703E-03    0.579E-03
RMM:   9    -0.413172857473E+03   -0.20712E-05   -0.63242E-06  2957   0.301E-03    0.365E-03
RMM:  10    -0.413172860067E+03   -0.25937E-05   -0.10961E-06  2511   0.169E-03    0.229E-03
RMM:  11    -0.413172861622E+03   -0.15546E-05   -0.70290E-07  2354   0.121E-03    0.106E-03
RMM:  12    -0.413172862794E+03   -0.11721E-05   -0.69525E-07  2328   0.116E-03    0.625E-04
RMM:  13    -0.413172862134E+03    0.65991E-06   -0.23290E-07  1622   0.801E-04
   21 T=    62. E= -.41286736E+03 F= -.41317286E+03 E0= -.41315087E+03  EK= 0.30551E+00 SP= 0.00E+00 SK= 0.00E+00
       N       E                     dE             d eps       ncg     rms          rms(c)
RMM:   1    -0.413186778474E+03   -0.13916E-01   -0.57773E+00  4291   0.548E-01    0.942E-01
RMM:   2    -0.413181426323E+03    0.53522E-02   -0.77732E-02  4275   0.751E-02    0.674E-01
RMM:   3    -0.413179629439E+03    0.17969E-02   -0.59859E-02  5092   0.873E-02    0.370E-01
RMM:   4    -0.413190858516E+03   -0.11229E-01   -0.26317E-02  5076   0.140E-01    0.560E-01
RMM:   5    -0.413173848331E+03    0.17010E-01   -0.91849E-03  4673   0.927E-02    0.403E-02
RMM:   6    -0.413173929726E+03   -0.81395E-04   -0.13757E-03  5676   0.343E-02    0.277E-02
RMM:   7    -0.413173947372E+03   -0.17646E-04   -0.22973E-04  5436   0.153E-02    0.197E-02
RMM:   8    -0.413173948551E+03   -0.11796E-05   -0.36002E-05  4619   0.770E-03    0.656E-03
RMM:   9    -0.413173947163E+03    0.13881E-05   -0.80288E-06  3053   0.323E-03    0.384E-03
RMM:  10    -0.413173946090E+03    0.10731E-05   -0.13037E-06  2532   0.179E-03    0.244E-03
RMM:  11    -0.413173944402E+03    0.16884E-05   -0.79677E-07  2434   0.130E-03    0.116E-03
RMM:  12    -0.413173940962E+03    0.34398E-05   -0.87055E-07  2410   0.126E-03    0.713E-04
RMM:  13    -0.413173938377E+03    0.25851E-05   -0.28419E-07  1752   0.854E-04    0.366E-04
RMM:  14    -0.413173936869E+03    0.15076E-05   -0.14353E-07  1210   0.676E-04    0.186E-04
RMM:  15    -0.413173931061E+03    0.58082E-05   -0.19727E-07  1386   0.735E-04    0.266E-04
RMM:  16    -0.413173927091E+03    0.39698E-05   -0.11145E-07  1128   0.640E-04    0.220E-04
RMM:  17    -0.413173924952E+03    0.21390E-05   -0.64207E-08   946   0.582E-04    0.147E-04
RMM:  18    -0.413173921944E+03    0.30085E-05   -0.59473E-08  1011   0.585E-04    0.597E-05
RMM:  19    -0.413173920786E+03    0.11576E-05   -0.33422E-08   860   0.554E-04    0.309E-05
RMM:  20    -0.413173920305E+03    0.48066E-06   -0.15396E-08   692   0.533E-04
   22 T=    62. E= -.41286740E+03 F= -.41317392E+03 E0= -.41315198E+03  EK= 0.30652E+00 SP= 0.00E+00 SK= 0.00E+00
       N       E                     dE             d eps       ncg     rms          rms(c)
RMM:   1    -0.413187496817E+03   -0.13576E-01   -0.57419E+00  4291   0.553E-01    0.943E-01
RMM:   2    -0.413182103769E+03    0.53930E-02   -0.77700E-02  4294   0.788E-02    0.670E-01
RMM:   3    -0.413180375830E+03    0.17279E-02   -0.58552E-02  5072   0.903E-02    0.362E-01
RMM:   4    -0.413191539630E+03   -0.11164E-01   -0.26544E-02  5064   0.141E-01    0.556E-01
RMM:   5    -0.413174594685E+03    0.16945E-01   -0.88760E-03  4672   0.921E-02    0.405E-02
RMM:   6    -0.413174690439E+03   -0.95754E-04   -0.13516E-03  5674   0.340E-02    0.280E-02
RMM:   7    -0.413174700376E+03   -0.99378E-05   -0.22671E-04  5445   0.149E-02    0.199E-02
RMM:   8    -0.413174697308E+03    0.30685E-05   -0.34730E-05  4651   0.751E-03    0.659E-03
RMM:   9    -0.413174695243E+03    0.20644E-05   -0.73562E-06  3021   0.321E-03    0.370E-03
RMM:  10    -0.413174693460E+03    0.17836E-05   -0.13055E-06  2532   0.179E-03    0.233E-03
RMM:  11    -0.413174691312E+03    0.21477E-05   -0.79718E-07  2421   0.127E-03    0.115E-03
RMM:  12    -0.413174687002E+03    0.43100E-05   -0.91938E-07  2436   0.128E-03    0.687E-04
RMM:  13    -0.413174684146E+03    0.28558E-05   -0.31493E-07  1775   0.863E-04    0.383E-04
RMM:  14    -0.413174682734E+03    0.14128E-05   -0.14420E-07  1200   0.677E-04    0.191E-04
RMM:  15    -0.413174677528E+03    0.52061E-05   -0.15685E-07  1254   0.704E-04    0.197E-04
RMM:  16    -0.413174673097E+03    0.44309E-05   -0.11095E-07  1143   0.648E-04    0.194E-04
RMM:  17    -0.413174671152E+03    0.19450E-05   -0.55310E-08   888   0.581E-04    0.141E-04
RMM:  18    -0.413174667939E+03    0.32131E-05   -0.53935E-08   960   0.586E-04    0.671E-05
RMM:  19    -0.413174666889E+03    0.10496E-05   -0.29790E-08   826   0.555E-04    0.274E-05
RMM:  20    -0.413174666370E+03    0.51886E-06   -0.15261E-08   690   0.538E-04
   23 T=    63. E= -.41286710E+03 F= -.41317467E+03 E0= -.41315277E+03  EK= 0.30756E+00 SP= 0.00E+00 SK= 0.00E+00
       N       E                     dE             d eps       ncg     rms          rms(c)
RMM:   1    -0.413188474938E+03   -0.13808E-01   -0.58070E+00  4291   0.552E-01    0.928E-01
RMM:   2    -0.413184032887E+03    0.44421E-02   -0.77619E-02  4297   0.809E-02    0.671E-01
RMM:   3    -0.413182350098E+03    0.16828E-02   -0.62210E-02  5052   0.942E-02    0.388E-01
RMM:   4    -0.413193005103E+03   -0.10655E-01   -0.25792E-02  5057   0.139E-01    0.561E-01
RMM:   5    -0.413176118777E+03    0.16886E-01   -0.95880E-03  4666   0.930E-02    0.399E-02
RMM:   6    -0.413176220808E+03   -0.10203E-03   -0.13641E-03  5702   0.338E-02    0.268E-02
RMM:   7    -0.413176256002E+03   -0.35194E-04   -0.22680E-04  5391   0.156E-02    0.189E-02
RMM:   8    -0.413176258820E+03   -0.28175E-05   -0.35799E-05  4525   0.823E-03    0.608E-03
RMM:   9    -0.413176260274E+03   -0.14541E-05   -0.86808E-06  3054   0.327E-03    0.379E-03
RMM:  10    -0.413176261887E+03   -0.16136E-05   -0.13160E-06  2534   0.179E-03    0.242E-03
RMM:  11    -0.413176262594E+03   -0.70670E-06   -0.75340E-07  2392   0.126E-03
   24 T=    63. E= -.41286729E+03 F= -.41317626E+03 E0= -.41315442E+03  EK= 0.30897E+00 SP= 0.00E+00 SK= 0.00E+00
       N       E                     dE             d eps       ncg     rms          rms(c)
RMM:   1    -0.413189970001E+03   -0.13708E-01   -0.58430E+00  4295   0.552E-01    0.942E-01
RMM:   2    -0.413185324248E+03    0.46458E-02   -0.78487E-02  4296   0.805E-02    0.678E-01
RMM:   3    -0.413182257862E+03    0.30664E-02   -0.61215E-02  5032   0.909E-02    0.360E-01
RMM:   4    -0.413195627138E+03   -0.13369E-01   -0.25907E-02  5073   0.139E-01    0.580E-01
RMM:   5    -0.413177209688E+03    0.18417E-01   -0.99885E-03  4702   0.957E-02    0.397E-02
RMM:   6    -0.413177317562E+03   -0.10787E-03   -0.14914E-03  5766   0.358E-02    0.273E-02
RMM:   7    -0.413177327527E+03   -0.99649E-05   -0.23980E-04  5479   0.155E-02    0.199E-02
RMM:   8    -0.413177323405E+03    0.41229E-05   -0.38881E-05  4703   0.772E-03    0.726E-03
RMM:   9    -0.413177321908E+03    0.14969E-05   -0.83177E-06  3161   0.345E-03    0.429E-03
RMM:  10    -0.413177321223E+03    0.68412E-06   -0.13083E-06  2530   0.188E-03
   25 T=    63. E= -.41286709E+03 F= -.41317732E+03 E0= -.41315552E+03  EK= 0.31023E+00 SP= 0.00E+00 SK= 0.00E+00
       N       E                     dE             d eps       ncg     rms          rms(c)
RMM:   1    -0.413192260325E+03   -0.14938E-01   -0.58073E+00  4291   0.567E-01    0.953E-01
RMM:   2    -0.413186441061E+03    0.58193E-02   -0.80298E-02  4314   0.806E-02    0.676E-01
RMM:   3    -0.413187454196E+03   -0.10131E-02   -0.60586E-02  5084   0.110E-01    0.427E-01
RMM:   4    -0.413192119662E+03   -0.46655E-02   -0.26566E-02  5035   0.143E-01    0.502E-01
RMM:   5    -0.413178731319E+03    0.13388E-01   -0.71390E-03  4585   0.833E-02    0.402E-02
RMM:   6    -0.413178773657E+03   -0.42338E-04   -0.10622E-03  5553   0.298E-02    0.274E-02
RMM:   7    -0.413178774211E+03   -0.55404E-06   -0.18581E-04  5259   0.142E-02    0.189E-02
RMM:   8    -0.413178769418E+03    0.47933E-05   -0.28576E-05  4384   0.749E-03    0.544E-03
RMM:   9    -0.413178765831E+03    0.35864E-05   -0.61611E-06  2873   0.283E-03    0.315E-03
RMM:  10    -0.413178761603E+03    0.42287E-05   -0.11684E-06  2525   0.167E-03    0.200E-03
RMM:  11    -0.413178757533E+03    0.40699E-05   -0.72295E-07  2234   0.119E-03    0.959E-04
RMM:  12    -0.413178750030E+03    0.75024E-05   -0.84315E-07  2315   0.120E-03    0.530E-04
RMM:  13    -0.413178744938E+03    0.50922E-05   -0.34205E-07  1601   0.829E-04    0.380E-04
RMM:  14    -0.413178740297E+03    0.46413E-05   -0.18327E-07  1190   0.694E-04    0.170E-04
RMM:  15    -0.413178732956E+03    0.73407E-05   -0.17522E-07  1256   0.697E-04    0.235E-04
RMM:  16    -0.413178723911E+03    0.90457E-05   -0.17555E-07  1378   0.701E-04    0.195E-04
RMM:  17    -0.413178722658E+03    0.12524E-05   -0.60022E-08   892   0.563E-04    0.153E-04
RMM:  18    -0.413178720105E+03    0.25534E-05   -0.48007E-08   999   0.570E-04    0.788E-05
RMM:  19    -0.413178719232E+03    0.87302E-06   -0.29269E-08   840   0.535E-04
   26 T=    63. E= -.41286713E+03 F= -.41317872E+03 E0= -.41315697E+03  EK= 0.31159E+00 SP= 0.00E+00 SK= 0.00E+00
       N       E                     dE             d eps       ncg     rms          rms(c)
RMM:   1    -0.413192992025E+03   -0.14272E-01   -0.58325E+00  4291   0.563E-01    0.933E-01
RMM:   2    -0.413188371487E+03    0.46205E-02   -0.78250E-02  4299   0.769E-02    0.673E-01
RMM:   3    -0.413186287834E+03    0.20837E-02   -0.61768E-02  5087   0.918E-02    0.379E-01
RMM:   4    -0.413197853812E+03   -0.11566E-01   -0.26145E-02  5065   0.141E-01    0.568E-01
RMM:   5    -0.413180445366E+03    0.17408E-01   -0.95951E-03  4668   0.939E-02    0.400E-02
RMM:   6    -0.413180546304E+03   -0.10094E-03   -0.14164E-03  5710   0.347E-02    0.270E-02
RMM:   7    -0.413180565527E+03   -0.19223E-04   -0.23074E-04  5429   0.150E-02    0.197E-02
RMM:   8    -0.413180564784E+03    0.74288E-06   -0.35942E-05  4642   0.750E-03    0.668E-03
RMM:   9    -0.413180564594E+03    0.18964E-06   -0.78371E-06  3074   0.328E-03
   27 T=    64. E= -.41286746E+03 F= -.41318056E+03 E0= -.41315887E+03  EK= 0.31311E+00 SP= 0.00E+00 SK= 0.00E+00
       N       E                     dE             d eps       ncg     rms          rms(c)
RMM:   1    -0.413194286927E+03   -0.13722E-01   -0.59143E+00  4301   0.568E-01    0.944E-01
RMM:   2    -0.413189662217E+03    0.46247E-02   -0.79142E-02  4342   0.786E-02    0.682E-01
RMM:   3    -0.413194531136E+03   -0.48689E-02   -0.67301E-02  5140   0.120E-01    0.516E-01
RMM:   4    -0.413192042132E+03    0.24890E-02   -0.26361E-02  5005   0.144E-01    0.464E-01
RMM:   5    -0.413181750607E+03    0.10292E-01   -0.70982E-03  4471   0.767E-02    0.386E-02
RMM:   6    -0.413181767526E+03   -0.16919E-04   -0.78016E-04  5385   0.256E-02    0.256E-02
RMM:   7    -0.413181771087E+03   -0.35610E-05   -0.15207E-04  5072   0.128E-02    0.168E-02
RMM:   8    -0.413181776567E+03   -0.54804E-05   -0.23889E-05  4198   0.639E-03    0.421E-03
RMM:   9    -0.413181776410E+03    0.15763E-06   -0.33548E-06  2655   0.228E-03
   28 T=    64. E= -.41286731E+03 F= -.41318178E+03 E0= -.41316013E+03  EK= 0.31447E+00 SP= 0.00E+00 SK= 0.00E+00
       N       E                     dE             d eps       ncg     rms          rms(c)
RMM:   1    -0.413197129761E+03   -0.15353E-01   -0.58704E+00  4296   0.573E-01    0.961E-01
RMM:   2    -0.413191420106E+03    0.57097E-02   -0.80273E-02  4301   0.814E-02    0.681E-01
RMM:   3    -0.413191455705E+03   -0.35600E-04   -0.60724E-02  5106   0.100E-01    0.405E-01
RMM:   4    -0.413198493962E+03   -0.70383E-02   -0.26854E-02  5041   0.143E-01    0.524E-01
RMM:   5    -0.413183714263E+03    0.14780E-01   -0.77598E-03  4621   0.865E-02    0.404E-02
RMM:   6    -0.413183777681E+03   -0.63419E-04   -0.11926E-03  5647   0.316E-02    0.275E-02
RMM:   7    -0.413183801909E+03   -0.24228E-04   -0.20602E-04  5349   0.144E-02    0.198E-02
RMM:   8    -0.413183804387E+03   -0.24775E-05   -0.32152E-05  4529   0.787E-03    0.625E-03
RMM:   9    -0.413183800383E+03    0.40043E-05   -0.62186E-06  2895   0.300E-03    0.346E-03
RMM:  10    -0.413183795722E+03    0.46604E-05   -0.11726E-06  2520   0.170E-03    0.213E-03
RMM:  11    -0.413183790788E+03    0.49339E-05   -0.75391E-07  2310   0.123E-03    0.100E-03
RMM:  12    -0.413183782551E+03    0.82370E-05   -0.81523E-07  2360   0.119E-03    0.582E-04
RMM:  13    -0.413183776751E+03    0.58004E-05   -0.32804E-07  1651   0.840E-04    0.382E-04
RMM:  14    -0.413183772806E+03    0.39447E-05   -0.16044E-07  1160   0.683E-04    0.185E-04
RMM:  15    -0.413183763543E+03    0.92635E-05   -0.18841E-07  1332   0.724E-04    0.238E-04
RMM:  16    -0.413183754125E+03    0.94180E-05   -0.16611E-07  1433   0.698E-04    0.222E-04
RMM:  17    -0.413183752813E+03    0.13121E-05   -0.55901E-08   893   0.551E-04    0.172E-04
RMM:  18    -0.413183749536E+03    0.32769E-05   -0.47880E-08   976   0.566E-04    0.771E-05
RMM:  19    -0.413183748713E+03    0.82321E-06   -0.25508E-08   787   0.531E-04
   29 T=    64. E= -.41286756E+03 F= -.41318375E+03 E0= -.41316215E+03  EK= 0.31619E+00 SP= 0.00E+00 SK= 0.00E+00
       N       E                     dE             d eps       ncg     rms          rms(c)
RMM:   1    -0.413198872996E+03   -0.15123E-01   -0.58795E+00  4295   0.590E-01    0.943E-01
RMM:   2    -0.413193588953E+03    0.52840E-02   -0.79522E-02  4273   0.821E-02    0.677E-01
RMM:   3    -0.413190169804E+03    0.34191E-02   -0.61071E-02  5027   0.883E-02    0.348E-01
RMM:   4    -0.413205053140E+03   -0.14883E-01   -0.26934E-02  5081   0.141E-01    0.595E-01
RMM:   5    -0.413185432021E+03    0.19621E-01   -0.10527E-02  4708   0.100E-01    0.403E-02
RMM:   6    -0.413185550869E+03   -0.11885E-03   -0.16037E-03  5771   0.375E-02    0.274E-02
RMM:   7    -0.413185574081E+03   -0.23212E-04   -0.24780E-04  5506   0.157E-02    0.204E-02
RMM:   8    -0.413185579256E+03   -0.51749E-05   -0.43396E-05  4749   0.823E-03    0.797E-03
RMM:   9    -0.413185578603E+03    0.65272E-06   -0.98758E-06  3295   0.375E-03
   30 T=    65. E= -.41286753E+03 F= -.41318558E+03 E0= -.41316403E+03  EK= 0.31805E+00 SP= 0.00E+00 SK= 0.00E+00
       N       E                     dE             d eps       ncg     rms          rms(c)
RMM:   1    -0.413199996742E+03   -0.14417E-01   -0.59978E+00  4304   0.599E-01    0.947E-01
RMM:   2    -0.413195791503E+03    0.42052E-02   -0.80951E-02  4320   0.919E-02    0.686E-01
RMM:   3    -0.413198754080E+03   -0.29626E-02   -0.68138E-02  5084   0.122E-01    0.498E-01
RMM:   4    -0.413198709327E+03    0.44753E-04   -0.26468E-02  5008   0.144E-01    0.487E-01
RMM:   5    -0.413187091685E+03    0.11618E-01   -0.77320E-03  4509   0.804E-02    0.391E-02
RMM:   6    -0.413187143805E+03   -0.52120E-04   -0.90655E-04  5482   0.274E-02    0.256E-02
RMM:   7    -0.413187169839E+03   -0.26034E-04   -0.16665E-04  5156   0.133E-02    0.173E-02
RMM:   8    -0.413187177535E+03   -0.76959E-05   -0.27849E-05  4400   0.731E-03    0.474E-03
RMM:   9    -0.413187177478E+03    0.57560E-07   -0.45370E-06  2754   0.269E-03
   31 T=    65. E= -.41286721E+03 F= -.41318718E+03 E0= -.41316568E+03  EK= 0.31997E+00 SP= 0.00E+00 SK= 0.00E+00
       N       E                     dE             d eps       ncg     rms          rms(c)
RMM:   1    -0.413204159451E+03   -0.16982E-01   -0.59675E+00  4300   0.601E-01    0.968E-01
RMM:   2    -0.413198034601E+03    0.61249E-02   -0.82460E-02  4299   0.956E-02    0.688E-01
RMM:   3    -0.413197656302E+03    0.37830E-03   -0.62133E-02  5045   0.113E-01    0.412E-01
RMM:   4    -0.413204816209E+03   -0.71599E-02   -0.27120E-02  5037   0.144E-01    0.530E-01
RMM:   5    -0.413189650191E+03    0.15166E-01   -0.80611E-03  4610   0.890E-02    0.402E-02
RMM:   6    -0.413189733079E+03   -0.82888E-04   -0.12435E-03  5677   0.323E-02    0.277E-02
RMM:   7    -0.413189757883E+03   -0.24803E-04   -0.21165E-04  5281   0.153E-02    0.199E-02
RMM:   8    -0.413189760299E+03   -0.24166E-05   -0.34546E-05  4494   0.822E-03    0.639E-03
RMM:   9    -0.413189756599E+03    0.37001E-05   -0.76834E-06  2968   0.332E-03    0.364E-03
RMM:  10    -0.413189752088E+03    0.45113E-05   -0.12984E-06  2537   0.181E-03    0.233E-03
RMM:  11    -0.413189746730E+03    0.53577E-05   -0.81002E-07  2388   0.131E-03    0.110E-03
RMM:  12    -0.413189738235E+03    0.84953E-05   -0.78734E-07  2343   0.122E-03    0.608E-04
RMM:  13    -0.413189734614E+03    0.36206E-05   -0.26717E-07  1672   0.828E-04    0.417E-04
RMM:  14    -0.413189729326E+03    0.52880E-05   -0.16573E-07  1190   0.699E-04    0.186E-04
RMM:  15    -0.413189719226E+03    0.10100E-04   -0.19639E-07  1379   0.727E-04    0.264E-04
RMM:  16    -0.413189710818E+03    0.84080E-05   -0.13337E-07  1306   0.676E-04    0.194E-04
RMM:  17    -0.413189707269E+03    0.35496E-05   -0.69955E-08  1061   0.588E-04    0.136E-04
RMM:  18    -0.413189703781E+03    0.34873E-05   -0.52113E-08  1066   0.576E-04    0.503E-05
RMM:  19    -0.413189703253E+03    0.52863E-06   -0.23114E-08   742   0.516E-04
   32 T=    66. E= -.41286745E+03 F= -.41318970E+03 E0= -.41316825E+03  EK= 0.32225E+00 SP= 0.00E+00 SK= 0.00E+00
       N       E                     dE             d eps       ncg     rms          rms(c)
RMM:   1    -0.413205303858E+03   -0.15600E-01   -0.59564E+00  4301   0.614E-01    0.956E-01
RMM:   2    -0.413199725284E+03    0.55786E-02   -0.82293E-02  4280   0.984E-02    0.684E-01
RMM:   3    -0.413195425361E+03    0.42999E-02   -0.60689E-02  4951   0.948E-02    0.322E-01
RMM:   4    -0.413213070896E+03   -0.17646E-01   -0.27498E-02  5094   0.143E-01    0.619E-01
RMM:   5    -0.413191295174E+03    0.21776E-01   -0.11242E-02  4732   0.105E-01    0.410E-02
RMM:   6    -0.413191452168E+03   -0.15699E-03   -0.18158E-03  5797   0.400E-02    0.279E-02
RMM:   7    -0.413191513659E+03   -0.61491E-04   -0.25922E-04  5473   0.170E-02    0.203E-02
RMM:   8    -0.413191521115E+03   -0.74567E-05   -0.52726E-05  4810   0.891E-03    0.902E-03
RMM:   9    -0.413191519073E+03    0.20428E-05   -0.12824E-05  3587   0.431E-03    0.512E-03
RMM:  10    -0.413191517612E+03    0.14605E-05   -0.19590E-06  2593   0.229E-03    0.325E-03
RMM:  11    -0.413191515115E+03    0.24972E-05   -0.11757E-06  2503   0.166E-03    0.157E-03
RMM:  12    -0.413191511007E+03    0.41082E-05   -0.11319E-06  2474   0.154E-03    0.104E-03
RMM:  13    -0.413191508812E+03    0.21952E-05   -0.34391E-07  2069   0.989E-04    0.585E-04
RMM:  14    -0.413191507610E+03    0.12017E-05   -0.16844E-07  1364   0.721E-04    0.319E-04
RMM:  15    -0.413191502103E+03    0.55075E-05   -0.16885E-07  1542   0.747E-04    0.265E-04
RMM:  16    -0.413191498856E+03    0.32465E-05   -0.87660E-08  1101   0.629E-04    0.220E-04
RMM:  17    -0.413191493189E+03    0.56675E-05   -0.88972E-08  1154   0.634E-04    0.215E-04
RMM:  18    -0.413191490217E+03    0.29711E-05   -0.50498E-08   919   0.571E-04    0.600E-05
RMM:  19    -0.413191488630E+03    0.15873E-05   -0.32642E-08   853   0.557E-04    0.330E-05
RMM:  20    -0.413191488245E+03    0.38498E-06   -0.18713E-08   730   0.539E-04
   33 T=    66. E= -.41286714E+03 F= -.41319149E+03 E0= -.41317009E+03  EK= 0.32435E+00 SP= 0.00E+00 SK= 0.00E+00
       N       E                     dE             d eps       ncg     rms          rms(c)
RMM:   1    -0.413206986914E+03   -0.15498E-01   -0.60818E+00  4303   0.629E-01    0.953E-01
RMM:   2    -0.413202224187E+03    0.47627E-02   -0.82868E-02  4271   0.996E-02    0.691E-01
RMM:   3    -0.413197886602E+03    0.43376E-02   -0.64873E-02  4935   0.932E-02    0.348E-01
RMM:   4    -0.413214764507E+03   -0.16878E-01   -0.26279E-02  5101   0.140E-01    0.613E-01
RMM:   5    -0.413193677244E+03    0.21087E-01   -0.11383E-02  4740   0.104E-01    0.402E-02
RMM:   6    -0.413193836631E+03   -0.15939E-03   -0.17357E-03  5805   0.391E-02    0.264E-02
RMM:   7    -0.413193874233E+03   -0.37602E-04   -0.22891E-04  5498   0.159E-02    0.185E-02
RMM:   8    -0.413193881101E+03   -0.68676E-05   -0.52087E-05  4856   0.856E-03    0.840E-03
RMM:   9    -0.413193880722E+03    0.37933E-06   -0.11377E-05  3604   0.428E-03    0.505E-03
RMM:  10    -0.413193882220E+03   -0.14986E-05   -0.17376E-06  2568   0.222E-03    0.322E-03
RMM:  11    -0.413193882604E+03   -0.38347E-06   -0.12901E-06  2514   0.169E-03
   34 T=    66. E= -.41286732E+03 F= -.41319388E+03 E0= -.41317253E+03  EK= 0.32656E+00 SP= 0.00E+00 SK= 0.00E+00
       N       E                     dE             d eps       ncg     rms          rms(c)
RMM:   1    -0.413210418265E+03   -0.16536E-01   -0.60670E+00  4306   0.635E-01    0.975E-01
RMM:   2    -0.413204650083E+03    0.57682E-02   -0.84189E-02  4280   0.110E-01    0.695E-01
RMM:   3    -0.413199182222E+03    0.54679E-02   -0.61188E-02  4774   0.993E-02    0.287E-01
RMM:   4    -0.413216535491E+03   -0.17353E-01   -0.22707E-02  5112   0.131E-01    0.593E-01
RMM:   5    -0.413196389651E+03    0.20146E-01   -0.10337E-02  4775   0.100E-01    0.391E-02
RMM:   6    -0.413196516093E+03   -0.12644E-03   -0.16336E-03  5802   0.381E-02    0.260E-02
RMM:   7    -0.413196559188E+03   -0.43095E-04   -0.17640E-04  5446   0.151E-02    0.151E-02
RMM:   8    -0.413196558975E+03    0.21231E-06   -0.43621E-05  4826   0.731E-03    0.808E-03
RMM:   9    -0.413196559783E+03   -0.80756E-06   -0.13160E-05  3994   0.441E-03    0.557E-03
RMM:  10    -0.413196556683E+03    0.31003E-05   -0.20136E-06  2593   0.242E-03    0.341E-03
RMM:  11    -0.413196553300E+03    0.33822E-05   -0.13505E-06  2509   0.178E-03    0.171E-03
RMM:  12    -0.413196547298E+03    0.60028E-05   -0.11709E-06  2459   0.167E-03    0.990E-04
RMM:  13    -0.413196544115E+03    0.31821E-05   -0.32178E-07  2082   0.100E-03    0.561E-04
RMM:  14    -0.413196542364E+03    0.17517E-05   -0.14960E-07  1339   0.704E-04    0.306E-04
RMM:  15    -0.413196533019E+03    0.93445E-05   -0.22126E-07  1837   0.799E-04    0.449E-04
RMM:  16    -0.413196529437E+03    0.35818E-05   -0.73138E-08  1002   0.590E-04    0.315E-04
RMM:  17    -0.413196521755E+03    0.76826E-05   -0.91043E-08  1158   0.636E-04    0.193E-04
RMM:  18    -0.413196518477E+03    0.32783E-05   -0.54639E-08  1072   0.600E-04    0.520E-05
RMM:  19    -0.413196517195E+03    0.12811E-05   -0.33728E-08   988   0.562E-04    0.662E-05
RMM:  20    -0.413196516823E+03    0.37271E-06   -0.15334E-08   713   0.509E-04
   35 T=    67. E= -.41286772E+03 F= -.41319652E+03 E0= -.41317521E+03  EK= 0.32879E+00 SP= 0.00E+00 SK= 0.00E+00
       N       E                     dE             d eps       ncg     rms          rms(c)
RMM:   1    -0.413212613927E+03   -0.16097E-01   -0.60505E+00  4303   0.664E-01    0.973E-01
RMM:   2    -0.413206450488E+03    0.61634E-02   -0.85374E-02  4270   0.113E-01    0.692E-01
RMM:   3    -0.413200557014E+03    0.58935E-02   -0.60560E-02  4623   0.976E-02    0.261E-01
RMM:   4    -0.413212058020E+03   -0.11501E-01   -0.15302E-02  5112   0.108E-01    0.487E-01
RMM:   5    -0.413198483749E+03    0.13574E-01   -0.68560E-03  4788   0.813E-02    0.365E-02
RMM:   6    -0.413198572994E+03   -0.89245E-04   -0.11178E-03  5800   0.318E-02    0.259E-02
RMM:   7    -0.413198607824E+03   -0.34830E-04   -0.19117E-04  5412   0.148E-02    0.182E-02
RMM:   8    -0.413198597650E+03    0.10174E-04   -0.35609E-05  4709   0.710E-03    0.744E-03
RMM:   9    -0.413198597303E+03    0.34680E-06   -0.86990E-06  3316   0.367E-03
   36 T=    67. E= -.41286772E+03 F= -.41319860E+03 E0= -.41317733E+03  EK= 0.33088E+00 SP= 0.00E+00 SK= 0.00E+00
       N       E                     dE             d eps       ncg     rms          rms(c)
RMM:   1    -0.413215507219E+03   -0.16910E-01   -0.61588E+00  4315   0.693E-01    0.959E-01
RMM:   2    -0.413209879044E+03    0.56282E-02   -0.88495E-02  4286   0.122E-01    0.696E-01
RMM:   3    -0.413205874645E+03    0.40044E-02   -0.64747E-02  4856   0.117E-01    0.343E-01
RMM:   4    -0.413224417807E+03   -0.18543E-01   -0.27885E-02  5081   0.145E-01    0.637E-01
RMM:   5    -0.413201580401E+03    0.22837E-01   -0.12126E-02  4745   0.107E-01    0.412E-02
RMM:   6    -0.413201711747E+03   -0.13135E-03   -0.18756E-03  5809   0.400E-02    0.266E-02
RMM:   7    -0.413201740151E+03   -0.28404E-04   -0.18524E-04  5507   0.139E-02    0.149E-02
RMM:   8    -0.413201743267E+03   -0.31163E-05   -0.33009E-05  4535   0.621E-03    0.630E-03
RMM:   9    -0.413201741951E+03    0.13168E-05   -0.82831E-06  3219   0.332E-03    0.461E-03
RMM:  10    -0.413201741201E+03    0.74965E-06   -0.18419E-06  2589   0.204E-03
   37 T=    68. E= -.41286827E+03 F= -.41320174E+03 E0= -.41318052E+03  EK= 0.33348E+00 SP= 0.00E+00 SK= 0.00E+00
       N       E                     dE             d eps       ncg     rms          rms(c)
RMM:   1    -0.413219042555E+03   -0.17301E-01   -0.62007E+00  4315   0.700E-01    0.977E-01
RMM:   2    -0.413212692703E+03    0.63499E-02   -0.91584E-02  4262   0.113E-01    0.704E-01
RMM:   3    -0.413206149268E+03    0.65434E-02   -0.62297E-02  4514   0.931E-02    0.268E-01
RMM:   4    -0.413210770913E+03   -0.46216E-02   -0.90040E-03  5102   0.802E-02    0.341E-01
RMM:   5    -0.413204230009E+03    0.65409E-02   -0.32925E-03  4789   0.568E-02    0.347E-02
RMM:   6    -0.413204267449E+03   -0.37440E-04   -0.64139E-04  5702   0.242E-02    0.273E-02
RMM:   7    -0.413204302136E+03   -0.34687E-04   -0.17666E-04  5255   0.141E-02    0.190E-02
RMM:   8    -0.413204292698E+03    0.94375E-05   -0.29756E-05  4672   0.650E-03    0.663E-03
RMM:   9    -0.413204291284E+03    0.14148E-05   -0.56487E-06  2821   0.273E-03    0.346E-03
RMM:  10    -0.413204287779E+03    0.35043E-05   -0.13633E-06  2505   0.179E-03    0.202E-03
RMM:  11    -0.413204282763E+03    0.50158E-05   -0.91221E-07  2397   0.131E-03    0.793E-04
RMM:  12    -0.413204278206E+03    0.45571E-05   -0.39508E-07  1892   0.937E-04    0.479E-04
RMM:  13    -0.413204274127E+03    0.40798E-05   -0.18917E-07  1352   0.740E-04    0.275E-04
RMM:  14    -0.413204267568E+03    0.65587E-05   -0.17141E-07  1316   0.720E-04    0.239E-04
RMM:  15    -0.413204255786E+03    0.11782E-04   -0.21992E-07  1681   0.771E-04    0.209E-04
RMM:  16    -0.413204251868E+03    0.39180E-05   -0.81484E-08  1112   0.589E-04    0.136E-04
RMM:  17    -0.413204247076E+03    0.47911E-05   -0.64014E-08  1149   0.590E-04    0.555E-05
RMM:  18    -0.413204245458E+03    0.16187E-05   -0.31413E-08   839   0.524E-04    0.274E-05
RMM:  19    -0.413204244362E+03    0.10953E-05   -0.23275E-08   790   0.523E-04    0.265E-05
RMM:  20    -0.413204243864E+03    0.49796E-06   -0.14684E-08   721   0.515E-04
   38 T=    68. E= -.41286815E+03 F= -.41320424E+03 E0= -.41318306E+03  EK= 0.33610E+00 SP= 0.00E+00 SK= 0.00E+00
       N       E                     dE             d eps       ncg     rms          rms(c)
RMM:   1    -0.413222635511E+03   -0.18391E-01   -0.61876E+00  4309   0.748E-01    0.988E-01
RMM:   2    -0.413215120915E+03    0.75146E-02   -0.91886E-02  4251   0.116E-01    0.702E-01
RMM:   3    -0.413208655587E+03    0.64653E-02   -0.60181E-02  4593   0.894E-02    0.241E-01
RMM:   4    -0.413215970002E+03   -0.73144E-02   -0.11169E-02  5131   0.890E-02    0.401E-01
RMM:   5    -0.413206936722E+03    0.90333E-02   -0.45150E-03  4793   0.672E-02    0.369E-02
RMM:   6    -0.413206947619E+03   -0.10897E-04   -0.80951E-04  5668   0.284E-02    0.277E-02
RMM:   7    -0.413206990289E+03   -0.42670E-04   -0.19551E-04  5332   0.147E-02    0.194E-02
RMM:   8    -0.413206985497E+03    0.47918E-05   -0.37305E-05  4894   0.716E-03    0.776E-03
RMM:   9    -0.413206984641E+03    0.85594E-06   -0.77960E-06  2993   0.311E-03
   39 T=    69. E= -.41286799E+03 F= -.41320698E+03 E0= -.41318584E+03  EK= 0.33900E+00 SP= 0.00E+00 SK= 0.00E+00
       N       E                     dE             d eps       ncg     rms          rms(c)
RMM:   1    -0.413224964416E+03   -0.17979E-01   -0.62606E+00  4307   0.759E-01    0.970E-01
RMM:   2    -0.413218817180E+03    0.61472E-02   -0.93452E-02  4267   0.110E-01    0.703E-01
RMM:   3    -0.413213171321E+03    0.56459E-02   -0.63425E-02  4818   0.942E-02    0.298E-01
RMM:   4    -0.413232990249E+03   -0.19819E-01   -0.26371E-02  5105   0.139E-01    0.632E-01
RMM:   5    -0.413210239582E+03    0.22751E-01   -0.11427E-02  4777   0.107E-01    0.424E-02
RMM:   6    -0.413210276794E+03   -0.37212E-04   -0.18250E-03  5761   0.405E-02    0.271E-02
RMM:   7    -0.413210322359E+03   -0.45565E-04   -0.26687E-04  5691   0.156E-02    0.190E-02
RMM:   8    -0.413210317926E+03    0.44326E-05   -0.58257E-05  5051   0.828E-03    0.946E-03
RMM:   9    -0.413210318224E+03   -0.29748E-06   -0.12205E-05  3727   0.436E-03    0.454E-03
RMM:  10    -0.413210315836E+03    0.23875E-05   -0.22806E-06  2613   0.227E-03    0.292E-03
RMM:  11    -0.413210312667E+03    0.31693E-05   -0.11954E-06  2497   0.156E-03    0.141E-03
RMM:  12    -0.413210306509E+03    0.61583E-05   -0.10327E-06  2435   0.143E-03    0.812E-04
RMM:  13    -0.413210302286E+03    0.42230E-05   -0.35819E-07  1969   0.971E-04    0.550E-04
RMM:  14    -0.413210299681E+03    0.26050E-05   -0.17873E-07  1321   0.733E-04    0.235E-04
RMM:  15    -0.413210289157E+03    0.10524E-04   -0.23970E-07  1619   0.798E-04    0.390E-04
RMM:  16    -0.413210283911E+03    0.52461E-05   -0.11697E-07  1281   0.663E-04    0.314E-04
RMM:  17    -0.413210279344E+03    0.45661E-05   -0.84374E-08  1187   0.620E-04    0.192E-04
RMM:  18    -0.413210275482E+03    0.38621E-05   -0.59852E-08  1124   0.597E-04    0.773E-05
RMM:  19    -0.413210274804E+03    0.67798E-06   -0.31919E-08   833   0.539E-04
   40 T=    70. E= -.41286807E+03 F= -.41321027E+03 E0= -.41318917E+03  EK= 0.34220E+00 SP= 0.00E+00 SK= 0.00E+00
       N       E                     dE             d eps       ncg     rms          rms(c)
RMM:   1    -0.413228265244E+03   -0.17990E-01   -0.63643E+00  4316   0.814E-01    0.985E-01
RMM:   2    -0.413221251666E+03    0.70136E-02   -0.93789E-02  4257   0.112E-01    0.712E-01
RMM:   3    -0.413214707811E+03    0.65439E-02   -0.64689E-02  4700   0.902E-02    0.286E-01
RMM:   4    -0.413226899501E+03   -0.12192E-01   -0.17244E-02  5108   0.112E-01    0.505E-01
RMM:   5    -0.413212484960E+03    0.14415E-01   -0.71741E-03  4786   0.847E-02    0.390E-02
RMM:   6    -0.413212498855E+03   -0.13895E-04   -0.11665E-03  5709   0.336E-02    0.266E-02
RMM:   7    -0.413212535382E+03   -0.36527E-04   -0.23038E-04  5565   0.147E-02    0.194E-02
RMM:   8    -0.413212531830E+03    0.35515E-05   -0.47211E-05  5024   0.776E-03    0.833E-03
RMM:   9    -0.413212533321E+03   -0.14911E-05   -0.92658E-06  3152   0.358E-03    0.388E-03
RMM:  10    -0.413212533658E+03   -0.33632E-06   -0.16815E-06  2544   0.193E-03
   41 T=    70. E= -.41286762E+03 F= -.41321253E+03 E0= -.41319146E+03  EK= 0.34492E+00 SP= 0.00E+00 SK= 0.00E+00
       N       E                     dE             d eps       ncg     rms          rms(c)
RMM:   1    -0.413232587408E+03   -0.20054E-01   -0.63425E+00  4315   0.840E-01    0.100E+00
RMM:   2    -0.413223810386E+03    0.87770E-02   -0.95210E-02  4295   0.117E-01    0.712E-01
RMM:   3    -0.413217870329E+03    0.59401E-02   -0.60944E-02  4859   0.896E-02    0.263E-01
RMM:   4    -0.413239518180E+03   -0.21648E-01   -0.27632E-02  5112   0.142E-01    0.650E-01
RMM:   5    -0.413215261725E+03    0.24256E-01   -0.11934E-02  4776   0.109E-01    0.434E-02
RMM:   6    -0.413215308828E+03   -0.47104E-04   -0.19348E-03  5768   0.414E-02    0.274E-02
RMM:   7    -0.413215356795E+03   -0.47966E-04   -0.27306E-04  5731   0.155E-02    0.192E-02
RMM:   8    -0.413215352511E+03    0.42832E-05   -0.60012E-05  5051   0.825E-03    0.103E-02
RMM:   9    -0.413215351556E+03    0.95575E-06   -0.13926E-05  3986   0.460E-03    0.485E-03
RMM:  10    -0.413215347030E+03    0.45255E-05   -0.23961E-06  2627   0.234E-03    0.310E-03
RMM:  11    -0.413215342609E+03    0.44211E-05   -0.11919E-06  2495   0.165E-03    0.164E-03
RMM:  12    -0.413215334057E+03    0.85516E-05   -0.10004E-06  2455   0.152E-03    0.895E-04
RMM:  13    -0.413215328659E+03    0.53983E-05   -0.35556E-07  2070   0.102E-03    0.597E-04
RMM:  14    -0.413215326203E+03    0.24565E-05   -0.17363E-07  1405   0.741E-04    0.255E-04
RMM:  15    -0.413215315299E+03    0.10903E-04   -0.19002E-07  1640   0.778E-04    0.372E-04
RMM:  16    -0.413215309420E+03    0.58791E-05   -0.97058E-08  1230   0.649E-04    0.295E-04
RMM:  17    -0.413215304828E+03    0.45927E-05   -0.71778E-08  1181   0.616E-04    0.199E-04
RMM:  18    -0.413215299646E+03    0.51810E-05   -0.63306E-08  1292   0.618E-04    0.904E-05
RMM:  19    -0.413215299082E+03    0.56487E-06   -0.30822E-08   856   0.525E-04
   42 T=    71. E= -.41286774E+03 F= -.41321530E+03 E0= -.41319426E+03  EK= 0.34756E+00 SP= 0.00E+00 SK= 0.00E+00
       N       E                     dE             d eps       ncg     rms          rms(c)
RMM:   1    -0.413233865289E+03   -0.18566E-01   -0.63603E+00  4316   0.882E-01    0.983E-01
RMM:   2    -0.413226375067E+03    0.74902E-02   -0.96938E-02  4372   0.115E-01    0.709E-01
RMM:   3    -0.413219695086E+03    0.66800E-02   -0.61976E-02  4824   0.898E-02    0.274E-01
RMM:   4    -0.413239163933E+03   -0.19469E-01   -0.24989E-02  5115   0.135E-01    0.619E-01
RMM:   5    -0.413217259521E+03    0.21904E-01   -0.10837E-02  4778   0.104E-01    0.425E-02
RMM:   6    -0.413217298215E+03   -0.38694E-04   -0.17530E-03  5750   0.399E-02    0.270E-02
RMM:   7    -0.413217340233E+03   -0.42018E-04   -0.27531E-04  5733   0.156E-02    0.198E-02
RMM:   8    -0.413217335227E+03    0.50058E-05   -0.57712E-05  5070   0.823E-03    0.969E-03
RMM:   9    -0.413217336369E+03   -0.11421E-05   -0.11451E-05  3554   0.415E-03    0.440E-03
RMM:  10    -0.413217335306E+03    0.10637E-05   -0.20722E-06  2592   0.217E-03    0.280E-03
RMM:  11    -0.413217333478E+03    0.18276E-05   -0.11918E-06  2488   0.155E-03    0.133E-03
RMM:  12    -0.413217329627E+03    0.38514E-05   -0.90664E-07  2423   0.137E-03    0.784E-04
RMM:  13    -0.413217326805E+03    0.28213E-05   -0.32397E-07  1912   0.946E-04    0.496E-04
RMM:  14    -0.413217324969E+03    0.18365E-05   -0.16880E-07  1324   0.724E-04    0.205E-04
RMM:  15    -0.413217318154E+03    0.68152E-05   -0.17463E-07  1405   0.747E-04    0.264E-04
RMM:  16    -0.413217314771E+03    0.33830E-05   -0.98736E-08  1199   0.657E-04    0.217E-04
RMM:  17    -0.413217311923E+03    0.28481E-05   -0.69814E-08  1114   0.617E-04    0.159E-04
RMM:  18    -0.413217307363E+03    0.45599E-05   -0.65758E-08  1245   0.625E-04    0.760E-05
RMM:  19    -0.413217306503E+03    0.85939E-06   -0.31909E-08   857   0.540E-04
   43 T=    71. E= -.41286770E+03 F= -.41321731E+03 E0= -.41319629E+03  EK= 0.34961E+00 SP= 0.00E+00 SK= 0.00E+00
       N       E                     dE             d eps       ncg     rms          rms(c)
RMM:   1    -0.413236836674E+03   -0.19529E-01   -0.64947E+00  4316   0.973E-01    0.987E-01
RMM:   2    -0.413227721851E+03    0.91148E-02   -0.10021E-01  4404   0.128E-01    0.718E-01
RMM:   3    -0.413221517982E+03    0.62039E-02   -0.64935E-02  4859   0.976E-02    0.307E-01
RMM:   4    -0.413244186126E+03   -0.22668E-01   -0.30348E-02  5102   0.149E-01    0.674E-01
RMM:   5    -0.413218242853E+03    0.25943E-01   -0.12880E-02  4776   0.113E-01    0.440E-02
RMM:   6    -0.413218284076E+03   -0.41222E-04   -0.20192E-03  5766   0.423E-02    0.261E-02
RMM:   7    -0.413218330982E+03   -0.46906E-04   -0.26969E-04  5803   0.153E-02    0.185E-02
RMM:   8    -0.413218331699E+03   -0.71703E-06   -0.62254E-05  5070   0.824E-03    0.100E-02
RMM:   9    -0.413218334453E+03   -0.27536E-05   -0.13531E-05  3912   0.454E-03    0.470E-03
RMM:  10    -0.413218334480E+03   -0.26608E-07   -0.26923E-06  2649   0.240E-03
   44 T=    71. E= -.41286751E+03 F= -.41321833E+03 E0= -.41319735E+03  EK= 0.35082E+00 SP= 0.00E+00 SK= 0.00E+00
       N       E                     dE             d eps       ncg     rms          rms(c)
RMM:   1    -0.413238739859E+03   -0.20405E-01   -0.64227E+00  4316   0.985E-01    0.101E+00
RMM:   2    -0.413228812763E+03    0.99271E-02   -0.10044E-01  4457   0.128E-01    0.718E-01
RMM:   3    -0.413225603114E+03    0.32096E-02   -0.62118E-02  5023   0.111E-01    0.356E-01
RMM:   4    -0.413243986166E+03   -0.18383E-01   -0.35452E-02  5067   0.163E-01    0.658E-01
RMM:   5    -0.413219527246E+03    0.24459E-01   -0.11391E-02  4705   0.110E-01    0.455E-02
RMM:   6    -0.413219549635E+03   -0.22388E-04   -0.18653E-03  5723   0.405E-02    0.266E-02
RMM:   7    -0.413219577791E+03   -0.28156E-04   -0.21803E-04  5694   0.144E-02    0.185E-02
RMM:   8    -0.413219583147E+03   -0.53564E-05   -0.68369E-05  5074   0.869E-03    0.107E-02
RMM:   9    -0.413219574508E+03    0.86390E-05   -0.14395E-05  3994   0.493E-03    0.456E-03
RMM:  10    -0.413219569882E+03    0.46260E-05   -0.27255E-06  2665   0.242E-03    0.283E-03
RMM:  11    -0.413219565484E+03    0.43977E-05   -0.12201E-06  2498   0.167E-03    0.139E-03
RMM:  12    -0.413219557555E+03    0.79292E-05   -0.88590E-07  2430   0.142E-03    0.741E-04
RMM:  13    -0.413219551477E+03    0.60785E-05   -0.35447E-07  1964   0.979E-04    0.428E-04
RMM:  14    -0.413219547956E+03    0.35201E-05   -0.17745E-07  1382   0.740E-04    0.194E-04
RMM:  15    -0.413219536521E+03    0.11436E-04   -0.18795E-07  1584   0.780E-04    0.274E-04
RMM:  16    -0.413219531513E+03    0.50079E-05   -0.10697E-07  1343   0.656E-04    0.203E-04
RMM:  17    -0.413219527629E+03    0.38840E-05   -0.73577E-08  1176   0.602E-04    0.102E-04
RMM:  18    -0.413219522420E+03    0.52084E-05   -0.64030E-08  1257   0.610E-04    0.709E-05
RMM:  19    -0.413219522016E+03    0.40403E-06   -0.28672E-08   796   0.518E-04
   45 T=    72. E= -.41286801E+03 F= -.41321952E+03 E0= -.41319855E+03  EK= 0.35151E+00 SP= 0.00E+00 SK= 0.00E+00
       N       E                     dE             d eps       ncg     rms          rms(c)
RMM:   1    -0.413238441390E+03   -0.18919E-01   -0.63766E+00  4315   0.107E+00    0.988E-01
RMM:   2    -0.413227927757E+03    0.10514E-01   -0.10146E-01  4464   0.135E-01    0.711E-01
RMM:   3    -0.413222763136E+03    0.51646E-02   -0.59865E-02  4931   0.104E-01    0.300E-01
RMM:   4    -0.413248151621E+03   -0.25388E-01   -0.36116E-02  5093   0.163E-01    0.714E-01
RMM:   5    -0.413218790052E+03    0.29362E-01   -0.14009E-02  4760   0.120E-01    0.465E-02
RMM:   6    -0.413218838053E+03   -0.48001E-04   -0.22213E-03  5763   0.442E-02    0.261E-02
RMM:   7    -0.413218880796E+03   -0.42743E-04   -0.25177E-04  5766   0.150E-02    0.170E-02
RMM:   8    -0.413218884078E+03   -0.32818E-05   -0.58732E-05  5072   0.796E-03    0.989E-03
RMM:   9    -0.413218883296E+03    0.78208E-06   -0.17561E-05  4308   0.485E-03    0.492E-03
RMM:  10    -0.413218880039E+03    0.32568E-05   -0.30245E-06  2673   0.265E-03    0.312E-03
RMM:  11    -0.413218877791E+03    0.22477E-05   -0.13512E-06  2509   0.182E-03    0.170E-03
RMM:  12    -0.413218872555E+03    0.52363E-05   -0.95817E-07  2488   0.154E-03    0.849E-04
RMM:  13    -0.413218868281E+03    0.42737E-05   -0.41848E-07  2148   0.105E-03    0.568E-04
RMM:  14    -0.413218865959E+03    0.23225E-05   -0.18468E-07  1444   0.754E-04    0.254E-04
RMM:  15    -0.413218859499E+03    0.64596E-05   -0.15872E-07  1389   0.739E-04    0.210E-04
RMM:  16    -0.413218855446E+03    0.40530E-05   -0.10176E-07  1260   0.663E-04    0.188E-04
RMM:  17    -0.413218852759E+03    0.26876E-05   -0.70759E-08  1131   0.612E-04    0.135E-04
RMM:  18    -0.413218848792E+03    0.39669E-05   -0.62094E-08  1211   0.613E-04    0.776E-05
RMM:  19    -0.413218846467E+03    0.23248E-05   -0.40709E-08  1007   0.568E-04    0.388E-05
RMM:  20    -0.413218846243E+03    0.22385E-06   -0.19189E-08   743   0.522E-04
   46 T=    71. E= -.41286798E+03 F= -.41321885E+03 E0= -.41319790E+03  EK= 0.35087E+00 SP= 0.00E+00 SK= 0.00E+00
       N       E                     dE             d eps       ncg     rms          rms(c)
RMM:   1    -0.413240610270E+03   -0.21764E-01   -0.64834E+00  4315   0.120E+00    0.973E-01
RMM:   2    -0.413227067129E+03    0.13543E-01   -0.10957E-01  4507   0.150E-01    0.717E-01
RMM:   3    -0.413223932338E+03    0.31348E-02   -0.62709E-02  4982   0.119E-01    0.375E-01
RMM:   4    -0.413245692293E+03   -0.21760E-01   -0.39948E-02  5067   0.174E-01    0.707E-01
RMM:   5    -0.413217323489E+03    0.28369E-01   -0.13351E-02  4710   0.119E-01    0.467E-02
RMM:   6    -0.413217350204E+03   -0.26715E-04   -0.20897E-03  5729   0.431E-02    0.247E-02
RMM:   7    -0.413217384984E+03   -0.34779E-04   -0.21208E-04  5716   0.139E-02    0.153E-02
RMM:   8    -0.413217400241E+03   -0.15258E-04   -0.57058E-05  5122   0.795E-03    0.928E-03
RMM:   9    -0.413217394919E+03    0.53222E-05   -0.17178E-05  4301   0.488E-03    0.471E-03
RMM:  10    -0.413217394177E+03    0.74240E-06   -0.29750E-06  2667   0.258E-03
   47 T=    71. E= -.41286835E+03 F= -.41321739E+03 E0= -.41319646E+03  EK= 0.34905E+00 SP= 0.00E+00 SK= 0.00E+00
       N       E                     dE             d eps       ncg     rms          rms(c)
RMM:   1    -0.413239792892E+03   -0.22398E-01   -0.63789E+00  4315   0.126E+00    0.991E-01
RMM:   2    -0.413223926406E+03    0.15866E-01   -0.10658E-01  4541   0.159E-01    0.715E-01
RMM:   3    -0.413227381122E+03   -0.34547E-02   -0.64191E-02  5069   0.143E-01    0.485E-01
RMM:   4    -0.413231969659E+03   -0.45885E-02   -0.36193E-02  5009   0.170E-01    0.560E-01
RMM:   5    -0.413214664918E+03    0.17305E-01   -0.75828E-03  4594   0.959E-02    0.435E-02
RMM:   6    -0.413214648246E+03    0.16672E-04   -0.11881E-03  5458   0.333E-02    0.237E-02
RMM:   7    -0.413214668287E+03   -0.20041E-04   -0.14113E-04  5527   0.123E-02    0.151E-02
RMM:   8    -0.413214680249E+03   -0.11962E-04   -0.62998E-05  5156   0.839E-03    0.945E-03
RMM:   9    -0.413214671162E+03    0.90871E-05   -0.11079E-05  3807   0.454E-03    0.383E-03
RMM:  10    -0.413214667249E+03    0.39128E-05   -0.25043E-06  2661   0.233E-03    0.230E-03
RMM:  11    -0.413214661900E+03    0.53495E-05   -0.13299E-06  2502   0.175E-03    0.107E-03
RMM:  12    -0.413214655600E+03    0.62999E-05   -0.64415E-07  2329   0.127E-03    0.591E-04
RMM:  13    -0.413214650353E+03    0.52466E-05   -0.30204E-07  1789   0.899E-04    0.298E-04
RMM:  14    -0.413214644857E+03    0.54959E-05   -0.19227E-07  1438   0.754E-04    0.167E-04
RMM:  15    -0.413214637288E+03    0.75697E-05   -0.17795E-07  1541   0.748E-04    0.140E-04
RMM:  16    -0.413214632124E+03    0.51638E-05   -0.12105E-07  1409   0.661E-04    0.962E-05
RMM:  17    -0.413214624613E+03    0.75107E-05   -0.11729E-07  1459   0.683E-04    0.914E-05
RMM:  18    -0.413214624137E+03    0.47645E-06   -0.43590E-08   868   0.523E-04
   48 T=    70. E= -.41286878E+03 F= -.41321462E+03 E0= -.41319370E+03  EK= 0.34584E+00 SP= 0.00E+00 SK= 0.00E+00
       N       E                     dE             d eps       ncg     rms          rms(c)
RMM:   1    -0.413237048942E+03   -0.22424E-01   -0.62587E+00  4313   0.136E+00    0.979E-01
RMM:   2    -0.413218432822E+03    0.18616E-01   -0.10557E-01  4585   0.168E-01    0.705E-01
RMM:   3    -0.413221865956E+03   -0.34331E-02   -0.61776E-02  5043   0.145E-01    0.476E-01
RMM:   4    -0.413226559635E+03   -0.46937E-02   -0.35539E-02  5004   0.170E-01    0.555E-01
RMM:   5    -0.413209451339E+03    0.17108E-01   -0.73764E-03  4613   0.963E-02    0.450E-02
RMM:   6    -0.413209429149E+03    0.22190E-04   -0.11417E-03  5394   0.332E-02    0.231E-02
RMM:   7    -0.413209459449E+03   -0.30300E-04   -0.13315E-04  5499   0.118E-02    0.127E-02
RMM:   8    -0.413209468134E+03   -0.86845E-05   -0.45350E-05  5175   0.746E-03    0.838E-03
RMM:   9    -0.413209460395E+03    0.77389E-05   -0.12307E-05  3961   0.427E-03    0.374E-03
RMM:  10    -0.413209457666E+03    0.27288E-05   -0.22529E-06  2592   0.239E-03    0.238E-03
RMM:  11    -0.413209453313E+03    0.43534E-05   -0.12853E-06  2502   0.181E-03    0.117E-03
RMM:  12    -0.413209448591E+03    0.47217E-05   -0.54715E-07  2385   0.125E-03    0.631E-04
RMM:  13    -0.413209444244E+03    0.43476E-05   -0.26289E-07  1742   0.867E-04    0.289E-04
RMM:  14    -0.413209440059E+03    0.41843E-05   -0.16007E-07  1324   0.724E-04    0.165E-04
RMM:  15    -0.413209435289E+03    0.47707E-05   -0.12624E-07  1288   0.694E-04    0.120E-04
RMM:  16    -0.413209431152E+03    0.41366E-05   -0.10453E-07  1394   0.662E-04    0.883E-05
RMM:  17    -0.413209426079E+03    0.50732E-05   -0.87791E-08  1333   0.625E-04    0.511E-05
RMM:  18    -0.413209424003E+03    0.20761E-05   -0.43455E-08   905   0.534E-04    0.457E-05
RMM:  19    -0.413209423156E+03    0.84661E-06   -0.26982E-08   797   0.513E-04
   49 T=    69. E= -.41286864E+03 F= -.41320942E+03 E0= -.41318850E+03  EK= 0.34078E+00 SP= 0.00E+00 SK= 0.00E+00
       N       E                     dE             d eps       ncg     rms          rms(c)
RMM:   1    -0.413228171383E+03   -0.18747E-01   -0.61886E+00  4313   0.144E+00    0.943E-01
RMM:   2    -0.413212542463E+03    0.15629E-01   -0.11528E-01  4691   0.179E-01    0.701E-01
RMM:   3    -0.413225920597E+03   -0.13378E-01   -0.65836E-02  5092   0.174E-01    0.631E-01
RMM:   4    -0.413215866940E+03    0.10054E-01   -0.40313E-02  4967   0.184E-01    0.485E-01
RMM:   5    -0.413203222866E+03    0.12644E-01   -0.61934E-03  4551   0.926E-02    0.470E-02
RMM:   6    -0.413203149508E+03    0.73358E-04   -0.70317E-04  4919   0.291E-02    0.235E-02
RMM:   7    -0.413203176961E+03   -0.27453E-04   -0.13120E-04  5665   0.129E-02    0.113E-02
RMM:   8    -0.413203178191E+03   -0.12305E-05   -0.37127E-05  5095   0.696E-03    0.797E-03
RMM:   9    -0.413203176561E+03    0.16302E-05   -0.10639E-05  3825   0.400E-03    0.346E-03
RMM:  10    -0.413203173798E+03    0.27635E-05   -0.19991E-06  2569   0.227E-03    0.243E-03
RMM:  11    -0.413203170149E+03    0.36490E-05   -0.11993E-06  2493   0.177E-03    0.140E-03
RMM:  12    -0.413203167518E+03    0.26308E-05   -0.51827E-07  2353   0.118E-03    0.753E-04
RMM:  13    -0.413203163947E+03    0.35708E-05   -0.35555E-07  1994   0.945E-04    0.388E-04
RMM:  14    -0.413203159349E+03    0.45976E-05   -0.28957E-07  1639   0.812E-04    0.343E-04
RMM:  15    -0.413203155534E+03    0.38157E-05   -0.17855E-07  1284   0.690E-04    0.138E-04
RMM:  16    -0.413203153299E+03    0.22350E-05   -0.11169E-07  1175   0.624E-04    0.879E-05
RMM:  17    -0.413203149132E+03    0.41667E-05   -0.13623E-07  1450   0.689E-04    0.979E-05
RMM:  18    -0.413203148385E+03    0.74715E-06   -0.52438E-08   877   0.538E-04
   50 T=    68. E= -.41286894E+03 F= -.41320315E+03 E0= -.41318223E+03  EK= 0.33421E+00 SP= 0.00E+00 SK= 0.00E+00
       N       E                     dE             d eps       ncg     rms          rms(c)
RMM:   1    -0.413218891612E+03   -0.15742E-01   -0.60214E+00  4308   0.148E+00    0.946E-01
RMM:   2    -0.413203289962E+03    0.15602E-01   -0.11458E-01  4761   0.183E-01    0.697E-01
RMM:   3    -0.413223456458E+03   -0.20166E-01   -0.67655E-02  5106   0.189E-01    0.709E-01
RMM:   4    -0.413203662533E+03    0.19794E-01   -0.40906E-02  4941   0.189E-01    0.420E-01
RMM:   5    -0.413194259802E+03    0.94027E-02   -0.52036E-03  4591   0.892E-02    0.496E-02
RMM:   6    -0.413194161966E+03    0.97836E-04   -0.51505E-04  4756   0.276E-02    0.249E-02
RMM:   7    -0.413194201289E+03   -0.39323E-04   -0.19179E-04  5660   0.155E-02    0.179E-02
RMM:   8    -0.413194187610E+03    0.13679E-04   -0.47523E-05  4997   0.804E-03    0.874E-03
RMM:   9    -0.413194185855E+03    0.17550E-05   -0.11577E-05  4023   0.458E-03    0.382E-03
RMM:  10    -0.413194182254E+03    0.36013E-05   -0.19696E-06  2606   0.234E-03    0.255E-03
RMM:  11    -0.413194177325E+03    0.49285E-05   -0.97064E-07  2509   0.160E-03    0.153E-03
RMM:  12    -0.413194174187E+03    0.31385E-05   -0.42473E-07  2041   0.102E-03    0.758E-04
RMM:  13    -0.413194169426E+03    0.47605E-05   -0.46562E-07  2339   0.103E-03    0.467E-04
RMM:  14    -0.413194166841E+03    0.25849E-05   -0.19569E-07  1356   0.737E-04    0.345E-04
RMM:  15    -0.413194161204E+03    0.56373E-05   -0.22928E-07  1499   0.776E-04    0.133E-04
RMM:  16    -0.413194159077E+03    0.21277E-05   -0.11438E-07  1259   0.643E-04    0.107E-04
RMM:  17    -0.413194155367E+03    0.37095E-05   -0.12216E-07  1336   0.652E-04    0.802E-05
RMM:  18    -0.413194153580E+03    0.17866E-05   -0.71588E-08  1070   0.571E-04    0.575E-05
RMM:  19    -0.413194152075E+03    0.15052E-05   -0.54130E-08   993   0.549E-04    0.352E-05
RMM:  20    -0.413194151708E+03    0.36754E-06   -0.26780E-08   773   0.504E-04
   51 T=    66. E= -.41286864E+03 F= -.41319415E+03 E0= -.41317323E+03  EK= 0.32551E+00 SP= 0.00E+00 SK= 0.00E+00
[...]
RMM:  11    -0.413145545164E+03   -0.78387E-05   -0.13587E-06  2506   0.184E-03    0.107E-03
RMM:  12    -0.413145548547E+03   -0.33828E-05   -0.51399E-07  2311   0.108E-03    0.665E-04
RMM:  13    -0.413145550674E+03   -0.21270E-05   -0.25916E-07  1577   0.792E-04    0.386E-04
RMM:  14    -0.413145553919E+03   -0.32445E-05   -0.45190E-07  2136   0.942E-04    0.335E-04
RMM:  15    -0.413145554541E+03   -0.62264E-06   -0.97305E-08  1102   0.570E-04
  139 T=    57. E= -.41286776E+03 F= -.41314555E+03 E0= -.41312480E+03  EK= 0.27780E+00 SP= 0.00E+00 SK= 0.00E+00
       N       E                     dE             d eps       ncg     rms          rms(c)
RMM:   1    -0.413146408739E+03   -0.85482E-03   -0.70835E+00  4264   0.101E+00    0.631E-01
RMM:   2    -0.413153661720E+03   -0.72530E-02   -0.79132E-02  4463   0.108E-01    0.483E-01
RMM:   3    -0.413151815157E+03    0.18466E-02   -0.49865E-03  4889   0.577E-02    0.747E-02
RMM:   4    -0.413154192311E+03   -0.23772E-02   -0.36194E-03  5199   0.593E-02    0.208E-01
RMM:   5    -0.413151890675E+03    0.23016E-02   -0.14421E-03  4908   0.392E-02    0.512E-02
RMM:   6    -0.413151788576E+03    0.10210E-03   -0.35655E-04  5252   0.230E-02    0.126E-02
RMM:   7    -0.413151813325E+03   -0.24749E-04   -0.85014E-05  5778   0.910E-03    0.106E-02
RMM:   8    -0.413151848120E+03   -0.34794E-04   -0.18188E-05  4109   0.512E-03    0.510E-03
RMM:   9    -0.413151871349E+03   -0.23229E-04   -0.58036E-06  2952   0.341E-03    0.242E-03
RMM:  10    -0.413151884111E+03   -0.12762E-04   -0.19347E-06  2576   0.203E-03    0.169E-03
RMM:  11    -0.413151903640E+03   -0.19529E-04   -0.15099E-06  2476   0.164E-03    0.824E-04
RMM:  12    -0.413151913905E+03   -0.10265E-04   -0.65763E-07  2168   0.106E-03    0.431E-04
RMM:  13    -0.413151920151E+03   -0.62463E-05   -0.32200E-07  1678   0.815E-04    0.292E-04
RMM:  14    -0.413151927926E+03   -0.77746E-05   -0.35780E-07  1955   0.865E-04    0.229E-04
RMM:  15    -0.413151931542E+03   -0.36161E-05   -0.13615E-07  1247   0.631E-04    0.148E-04
RMM:  16    -0.413151935332E+03   -0.37897E-05   -0.12392E-07  1310   0.659E-04    0.897E-05
RMM:  17    -0.413151936427E+03   -0.10953E-05   -0.53742E-08  1038   0.556E-04    0.680E-05
RMM:  18    -0.413151937303E+03   -0.87598E-06   -0.41277E-08   984   0.531E-04
  140 T=    58. E= -.41286921E+03 F= -.41315194E+03 E0= -.41313123E+03  EK= 0.28273E+00 SP= 0.00E+00 SK= 0.00E+00
       N       E                     dE             d eps       ncg     rms          rms(c)
RMM:   1    -0.413145846626E+03    0.60898E-02   -0.67126E+00  4264   0.989E-01    0.654E-01
RMM:   2    -0.413151352429E+03   -0.55058E-02   -0.71747E-02  4471   0.105E-01    0.463E-01
RMM:   3    -0.413150383670E+03    0.96876E-03   -0.47645E-03  4969   0.525E-02    0.982E-02
RMM:   4    -0.413155184678E+03   -0.48010E-02   -0.59080E-03  5203   0.713E-02    0.294E-01
RMM:   5    -0.413150458055E+03    0.47266E-02   -0.26346E-03  4856   0.520E-02    0.513E-02
RMM:   6    -0.413150366441E+03    0.91614E-04   -0.56457E-04  5402   0.275E-02    0.165E-02
RMM:   7    -0.413150394651E+03   -0.28210E-04   -0.13759E-04  5934   0.115E-02    0.137E-02
RMM:   8    -0.413150414023E+03   -0.19372E-04   -0.41623E-05  4922   0.697E-03    0.604E-03
RMM:   9    -0.413150421157E+03   -0.71340E-05   -0.74277E-06  3339   0.357E-03    0.309E-03
RMM:  10    -0.413150426403E+03   -0.52462E-05   -0.19569E-06  2541   0.215E-03    0.207E-03
RMM:  11    -0.413150437151E+03   -0.10747E-04   -0.20296E-06  2545   0.203E-03    0.124E-03
RMM:  12    -0.413150443308E+03   -0.61577E-05   -0.10655E-06  2431   0.143E-03    0.632E-04
RMM:  13    -0.413150445011E+03   -0.17026E-05   -0.30505E-07  1882   0.865E-04    0.407E-04
RMM:  14    -0.413150447912E+03   -0.29014E-05   -0.32058E-07  1817   0.858E-04    0.246E-04
RMM:  15    -0.413150450522E+03   -0.26100E-05   -0.30875E-07  1660   0.790E-04    0.199E-04
RMM:  16    -0.413150451469E+03   -0.94617E-06   -0.10877E-07  1225   0.607E-04
  141 T=    57. E= -.41287013E+03 F= -.41315045E+03 E0= -.41312979E+03  EK= 0.28033E+00 SP= 0.00E+00 SK= 0.00E+00
       N       E                     dE             d eps       ncg     rms          rms(c)
RMM:   1    -0.413136167959E+03    0.14283E-01   -0.63643E+00  4264   0.965E-01    0.679E-01
RMM:   2    -0.413140218325E+03   -0.40504E-02   -0.69637E-02  4441   0.103E-01    0.460E-01
RMM:   3    -0.413138809071E+03    0.14093E-02   -0.66856E-03  4961   0.497E-02    0.953E-02
RMM:   4    -0.413141446606E+03   -0.26375E-02   -0.37079E-03  5223   0.579E-02    0.218E-01
RMM:   5    -0.413138945022E+03    0.25016E-02   -0.15431E-03  4901   0.403E-02    0.537E-02
RMM:   6    -0.413138856050E+03    0.88972E-04   -0.42078E-04  5316   0.243E-02    0.220E-02
RMM:   7    -0.413138893623E+03   -0.37573E-04   -0.16588E-04  5829   0.132E-02    0.172E-02
RMM:   8    -0.413138896254E+03   -0.26312E-05   -0.57524E-05  4945   0.849E-03    0.775E-03
RMM:   9    -0.413138897350E+03   -0.10962E-05   -0.94202E-06  3708   0.390E-03    0.392E-03
RMM:  10    -0.413138899725E+03   -0.23751E-05   -0.25303E-06  2587   0.244E-03    0.242E-03
RMM:  11    -0.413138904134E+03   -0.44091E-05   -0.27256E-06  2604   0.236E-03    0.132E-03
RMM:  12    -0.413138906129E+03   -0.19950E-05   -0.17939E-06  2528   0.179E-03    0.788E-04
RMM:  13    -0.413138906516E+03   -0.38648E-06   -0.59952E-07  2265   0.112E-03
  142 T=    55. E= -.41286749E+03 F= -.41313891E+03 E0= -.41311830E+03  EK= 0.27141E+00 SP= 0.00E+00 SK= 0.00E+00
       N       E                     dE             d eps       ncg     rms          rms(c)
RMM:   1    -0.413143365032E+03   -0.44589E-02   -0.58325E+00  4264   0.943E-01    0.610E-01
RMM:   2    -0.413147915043E+03   -0.45500E-02   -0.67448E-02  4461   0.991E-02    0.464E-01
RMM:   3    -0.413145804595E+03    0.21104E-02   -0.85417E-03  4843   0.562E-02    0.482E-02
RMM:   4    -0.413146100475E+03   -0.29588E-03   -0.11710E-03  5201   0.376E-02    0.805E-02
RMM:   5    -0.413145933399E+03    0.16708E-03   -0.40751E-04  5113   0.208E-02    0.580E-02
RMM:   6    -0.413145795375E+03    0.13802E-03   -0.17769E-04  5143   0.159E-02    0.203E-02
RMM:   7    -0.413145833145E+03   -0.37770E-04   -0.12702E-04  5595   0.116E-02    0.157E-02
RMM:   8    -0.413145855372E+03   -0.22227E-04   -0.53367E-05  4869   0.785E-03    0.914E-03
RMM:   9    -0.413145857962E+03   -0.25895E-05   -0.62434E-06  3267   0.340E-03    0.481E-03
RMM:  10    -0.413145862798E+03   -0.48368E-05   -0.26226E-06  2575   0.237E-03    0.277E-03
RMM:  11    -0.413145881727E+03   -0.18928E-04   -0.39620E-06  2738   0.261E-03    0.147E-03
RMM:  12    -0.413145894030E+03   -0.12304E-04   -0.22760E-06  2552   0.198E-03    0.831E-04
RMM:  13    -0.413145898672E+03   -0.46414E-05   -0.95946E-07  2367   0.138E-03    0.997E-04
RMM:  14    -0.413145903282E+03   -0.46100E-05   -0.59038E-07  2163   0.108E-03    0.755E-04
RMM:  15    -0.413145908514E+03   -0.52322E-05   -0.64843E-07  2076   0.954E-04    0.436E-04
RMM:  16    -0.413145912237E+03   -0.37230E-05   -0.52064E-07  1874   0.884E-04    0.264E-04
RMM:  17    -0.413145913732E+03   -0.14951E-05   -0.18449E-07  1251   0.615E-04    0.180E-04
RMM:  18    -0.413145915184E+03   -0.14519E-05   -0.15428E-07  1174   0.606E-04    0.906E-05
RMM:  19    -0.413145915626E+03   -0.44160E-06   -0.64016E-08   927   0.522E-04
  143 T=    56. E= -.41287057E+03 F= -.41314592E+03 E0= -.41312535E+03  EK= 0.27535E+00 SP= 0.00E+00 SK= 0.00E+00
       N       E                     dE             d eps       ncg     rms          rms(c)
RMM:   1    -0.413142261617E+03    0.36536E-02   -0.54917E+00  4264   0.916E-01    0.637E-01
RMM:   2    -0.413145522756E+03   -0.32611E-02   -0.63604E-02  4457   0.961E-02    0.481E-01
RMM:   3    -0.413143088911E+03    0.24338E-02   -0.13314E-02  4851   0.601E-02    0.835E-02
RMM:   4    -0.413144994864E+03   -0.19060E-02   -0.28123E-03  5150   0.540E-02    0.198E-01
RMM:   5    -0.413142890200E+03    0.21047E-02   -0.11226E-03  4877   0.350E-02    0.427E-02
RMM:   6    -0.413142848372E+03    0.41828E-04   -0.27150E-04  5329   0.192E-02    0.206E-02
RMM:   7    -0.413142885959E+03   -0.37588E-04   -0.14676E-04  5631   0.125E-02    0.165E-02
RMM:   8    -0.413142897237E+03   -0.11277E-04   -0.51136E-05  4859   0.824E-03    0.742E-03
RMM:   9    -0.413142902770E+03   -0.55333E-05   -0.95245E-06  3647   0.372E-03    0.364E-03
RMM:  10    -0.413142909962E+03   -0.71917E-05   -0.27776E-06  2587   0.247E-03    0.226E-03
RMM:  11    -0.413142925295E+03   -0.15334E-04   -0.28674E-06  2586   0.229E-03    0.129E-03
RMM:  12    -0.413142934715E+03   -0.94194E-05   -0.15605E-06  2487   0.158E-03    0.889E-04
RMM:  13    -0.413142937838E+03   -0.31235E-05   -0.49355E-07  2080   0.978E-04    0.679E-04
RMM:  14    -0.413142943993E+03   -0.61547E-05   -0.94608E-07  2369   0.113E-03    0.446E-04
RMM:  15    -0.413142946485E+03   -0.24926E-05   -0.37433E-07  1374   0.736E-04    0.252E-04
RMM:  16    -0.413142949461E+03   -0.29753E-05   -0.46967E-07  1839   0.864E-04    0.170E-04
RMM:  17    -0.413142950997E+03   -0.15362E-05   -0.21122E-07  1350   0.651E-04    0.179E-04
RMM:  18    -0.413142951852E+03   -0.85547E-06   -0.10379E-07  1021   0.555E-04
  144 T=    56. E= -.41286697E+03 F= -.41314295E+03 E0= -.41312243E+03  EK= 0.27598E+00 SP= 0.00E+00 SK= 0.00E+00
       N       E                     dE             d eps       ncg     rms          rms(c)
RMM:   1    -0.413139410488E+03    0.35405E-02   -0.51053E+00  4264   0.908E-01    0.707E-01
RMM:   2    -0.413138379556E+03    0.10309E-02   -0.60355E-02  4452   0.926E-02    0.484E-01
RMM:   3    -0.413135691509E+03    0.26880E-02   -0.14981E-02  4884   0.563E-02    0.645E-02
RMM:   4    -0.413140377753E+03   -0.46862E-02   -0.53146E-03  5168   0.655E-02    0.293E-01
RMM:   5    -0.413135620838E+03    0.47569E-02   -0.24659E-03  4848   0.500E-02    0.428E-02
RMM:   6    -0.413135595250E+03    0.25588E-04   -0.52152E-04  5526   0.249E-02    0.242E-02
RMM:   7    -0.413135620454E+03   -0.25203E-04   -0.18600E-04  5557   0.152E-02    0.182E-02
RMM:   8    -0.413135611156E+03    0.92979E-05   -0.55196E-05  4828   0.935E-03    0.678E-03
RMM:   9    -0.413135611624E+03   -0.46860E-06   -0.13177E-05  3873   0.404E-03    0.357E-03
RMM:  10    -0.413135611898E+03   -0.27369E-06   -0.25176E-06  2572   0.229E-03
  145 T=    55. E= -.41286791E+03 F= -.41313561E+03 E0= -.41311512E+03  EK= 0.26770E+00 SP= 0.00E+00 SK= 0.00E+00
       N       E                     dE             d eps       ncg     rms          rms(c)
RMM:   1    -0.413138486790E+03   -0.28752E-02   -0.44085E+00  4264   0.845E-01    0.615E-01
RMM:   2    -0.413139650012E+03   -0.11632E-02   -0.52270E-02  4470   0.873E-02    0.456E-01
RMM:   3    -0.413136954760E+03    0.26953E-02   -0.18993E-02  4793   0.581E-02    0.121E-01
RMM:   4    -0.413137716031E+03   -0.76127E-03   -0.19656E-03  5135   0.451E-02    0.150E-01
RMM:   5    -0.413136530262E+03    0.11858E-02   -0.67012E-04  4920   0.272E-02    0.355E-02
RMM:   6    -0.413136511202E+03    0.19060E-04   -0.18516E-04  5332   0.156E-02    0.190E-02
RMM:   7    -0.413136548142E+03   -0.36940E-04   -0.11857E-04  5442   0.119E-02    0.153E-02
RMM:   8    -0.413136552355E+03   -0.42130E-05   -0.34107E-05  4735   0.731E-03    0.651E-03
RMM:   9    -0.413136557178E+03   -0.48235E-05   -0.78499E-06  3454   0.345E-03    0.311E-03
RMM:  10    -0.413136563534E+03   -0.63560E-05   -0.29670E-06  2604   0.251E-03    0.246E-03
RMM:  11    -0.413136574857E+03   -0.11322E-04   -0.28763E-06  2574   0.222E-03    0.130E-03
RMM:  12    -0.413136580009E+03   -0.51519E-05   -0.13212E-06  2480   0.143E-03    0.850E-04
RMM:  13    -0.413136582337E+03   -0.23283E-05   -0.50440E-07  1952   0.934E-04    0.624E-04
RMM:  14    -0.413136587003E+03   -0.46661E-05   -0.16355E-06  2532   0.133E-03    0.583E-04
RMM:  15    -0.413136588163E+03   -0.11597E-05   -0.31987E-07  1252   0.679E-04    0.346E-04
RMM:  16    -0.413136590437E+03   -0.22745E-05   -0.51462E-07  1715   0.858E-04    0.175E-04
RMM:  17    -0.413136591815E+03   -0.13776E-05   -0.19913E-07  1342   0.652E-04    0.194E-04
RMM:  18    -0.413136593142E+03   -0.13269E-05   -0.12877E-07  1181   0.596E-04    0.127E-04
RMM:  19    -0.413136594327E+03   -0.11855E-05   -0.86351E-08  1040   0.558E-04    0.493E-05
RMM:  20    -0.413136594906E+03   -0.57909E-06   -0.45084E-08   904   0.517E-04
  146 T=    54. E= -.41286896E+03 F= -.41313659E+03 E0= -.41311614E+03  EK= 0.26763E+00 SP= 0.00E+00 SK= 0.00E+00
       N       E                     dE             d eps       ncg     rms          rms(c)
RMM:   1    -0.413140952580E+03   -0.43583E-02   -0.45149E+00  4264   0.847E-01    0.661E-01
RMM:   2    -0.413141045492E+03   -0.92912E-04   -0.52872E-02  4499   0.841E-02    0.495E-01
RMM:   3    -0.413138491743E+03    0.25537E-02   -0.31805E-02  4995   0.703E-02    0.254E-01
RMM:   4    -0.413147119703E+03   -0.86280E-02   -0.12469E-02  5126   0.987E-02    0.432E-01
RMM:   5    -0.413136803155E+03    0.10317E-01   -0.52214E-03  4779   0.743E-02    0.388E-02
RMM:   6    -0.413136792251E+03    0.10904E-04   -0.84407E-04  5644   0.292E-02    0.192E-02
RMM:   7    -0.413136824253E+03   -0.32002E-04   -0.15353E-04  5727   0.120E-02    0.138E-02
RMM:   8    -0.413136850612E+03   -0.26359E-04   -0.38258E-05  4754   0.751E-03    0.513E-03
RMM:   9    -0.413136867671E+03   -0.17059E-04   -0.88781E-06  3301   0.379E-03    0.357E-03
RMM:  10    -0.413136878919E+03   -0.11248E-04   -0.19692E-06  2579   0.205E-03    0.257E-03
RMM:  11    -0.413136896322E+03   -0.17404E-04   -0.18655E-06  2549   0.179E-03    0.135E-03
RMM:  12    -0.413136909141E+03   -0.12819E-04   -0.13476E-06  2402   0.135E-03    0.738E-04
RMM:  13    -0.413136913800E+03   -0.46591E-05   -0.38351E-07  1579   0.851E-04    0.484E-04
RMM:  14    -0.413136920550E+03   -0.67493E-05   -0.52497E-07  2251   0.102E-03    0.392E-04
RMM:  15    -0.413136923394E+03   -0.28447E-05   -0.19237E-07  1251   0.657E-04    0.248E-04
RMM:  16    -0.413136928710E+03   -0.53154E-05   -0.36814E-07  1703   0.834E-04    0.116E-04
RMM:  17    -0.413136930574E+03   -0.18646E-05   -0.14818E-07  1298   0.640E-04    0.131E-04
RMM:  18    -0.413136931290E+03   -0.71563E-06   -0.74668E-08  1028   0.547E-04
  147 T=    55. E= -.41286572E+03 F= -.41313693E+03 E0= -.41311650E+03  EK= 0.27121E+00 SP= 0.00E+00 SK= 0.00E+00
       N       E                     dE             d eps       ncg     rms          rms(c)
RMM:   1    -0.413141206321E+03   -0.42757E-02   -0.41620E+00  4264   0.822E-01    0.705E-01
RMM:   2    -0.413138615117E+03    0.25912E-02   -0.50112E-02  4479   0.850E-02    0.485E-01
RMM:   3    -0.413136236328E+03    0.23788E-02   -0.23246E-02  5060   0.599E-02    0.141E-01
RMM:   4    -0.413148419752E+03   -0.12183E-01   -0.14826E-02  5138   0.105E-01    0.478E-01
RMM:   5    -0.413135350264E+03    0.13069E-01   -0.62390E-03  4791   0.810E-02    0.375E-02
RMM:   6    -0.413135336112E+03    0.14152E-04   -0.10795E-03  5698   0.326E-02    0.204E-02
RMM:   7    -0.413135368425E+03   -0.32313E-04   -0.18187E-04  5789   0.131E-02    0.157E-02
RMM:   8    -0.413135369205E+03   -0.77944E-06   -0.39731E-05  4827   0.747E-03    0.668E-03
RMM:   9    -0.413135367833E+03    0.13712E-05   -0.95599E-06  3262   0.385E-03    0.328E-03
RMM:  10    -0.413135366709E+03    0.11246E-05   -0.18447E-06  2564   0.202E-03    0.227E-03
RMM:  11    -0.413135363866E+03    0.28427E-05   -0.19088E-06  2554   0.179E-03    0.136E-03
RMM:  12    -0.413135361251E+03    0.26148E-05   -0.11779E-06  2376   0.130E-03    0.697E-04
RMM:  13    -0.413135360126E+03    0.11254E-05   -0.47960E-07  1762   0.916E-04    0.433E-04
RMM:  14    -0.413135358883E+03    0.12424E-05   -0.49660E-07  1958   0.937E-04    0.285E-04
RMM:  15    -0.413135357419E+03    0.14640E-05   -0.58122E-07  1740   0.901E-04    0.175E-04
RMM:  16    -0.413135357510E+03   -0.90578E-07   -0.31181E-07  1535   0.749E-04
  148 T=    54. E= -.41286980E+03 F= -.41313536E+03 E0= -.41311496E+03  EK= 0.26556E+00 SP= 0.00E+00 SK= 0.00E+00
       N       E                     dE             d eps       ncg     rms          rms(c)
RMM:   1    -0.413132943687E+03    0.24137E-02   -0.38845E+00  4264   0.804E-01    0.633E-01
RMM:   2    -0.413131976741E+03    0.96695E-03   -0.46159E-02  4494   0.803E-02    0.456E-01
RMM:   3    -0.413129857260E+03    0.21195E-02   -0.23464E-02  5083   0.605E-02    0.177E-01
RMM:   4    -0.413140946486E+03   -0.11089E-01   -0.14627E-02  5124   0.106E-01    0.466E-01
RMM:   5    -0.413128657638E+03    0.12289E-01   -0.59499E-03  4770   0.793E-02    0.353E-02
RMM:   6    -0.413128642115E+03    0.15523E-04   -0.10031E-03  5687   0.313E-02    0.190E-02
RMM:   7    -0.413128659571E+03   -0.17455E-04   -0.15862E-04  5758   0.122E-02    0.145E-02
RMM:   8    -0.413128666637E+03   -0.70666E-05   -0.34061E-05  4717   0.682E-03    0.580E-03
RMM:   9    -0.413128672504E+03   -0.58667E-05   -0.82326E-06  3109   0.361E-03    0.311E-03
RMM:  10    -0.413128676246E+03   -0.37425E-05   -0.18098E-06  2573   0.192E-03    0.221E-03
RMM:  11    -0.413128681139E+03   -0.48921E-05   -0.17168E-06  2545   0.169E-03    0.124E-03
RMM:  12    -0.413128683878E+03   -0.27393E-05   -0.10392E-06  2332   0.124E-03    0.640E-04
RMM:  13    -0.413128685204E+03   -0.13257E-05   -0.34824E-07  1679   0.865E-04    0.360E-04
RMM:  14    -0.413128686599E+03   -0.13952E-05   -0.33801E-07  1945   0.884E-04    0.241E-04
RMM:  15    -0.413128688012E+03   -0.14130E-05   -0.30609E-07  1616   0.794E-04    0.153E-04
RMM:  16    -0.413128689284E+03   -0.12718E-05   -0.15763E-07  1376   0.668E-04    0.795E-05
RMM:  17    -0.413128690327E+03   -0.10432E-05   -0.11165E-07  1225   0.609E-04    0.754E-05
RMM:  18    -0.413128691033E+03   -0.70677E-06   -0.62157E-08   995   0.533E-04
  149 T=    53. E= -.41286771E+03 F= -.41312869E+03 E0= -.41310831E+03  EK= 0.26098E+00 SP= 0.00E+00 SK= 0.00E+00
       N       E                     dE             d eps       ncg     rms          rms(c)
RMM:   1    -0.413139844559E+03   -0.11154E-01   -0.43451E+00  4264   0.834E-01    0.649E-01
RMM:   2    -0.413139089010E+03    0.75555E-03   -0.48350E-02  4495   0.812E-02    0.486E-01
RMM:   3    -0.413137457982E+03    0.16310E-02   -0.32977E-02  5083   0.698E-02    0.282E-01
RMM:   4    -0.413145877452E+03   -0.84195E-02   -0.14067E-02  5097   0.104E-01    0.449E-01
RMM:   5    -0.413135092015E+03    0.10785E-01   -0.59380E-03  4753   0.769E-02    0.358E-02
RMM:   6    -0.413135099838E+03   -0.78227E-05   -0.87846E-04  5653   0.291E-02    0.184E-02
RMM:   7    -0.413135141473E+03   -0.41635E-04   -0.14736E-04  5670   0.115E-02    0.125E-02
RMM:   8    -0.413135177539E+03   -0.36066E-04   -0.30075E-05  4661   0.624E-03    0.491E-03
RMM:   9    -0.413135202332E+03   -0.24793E-04   -0.65967E-06  3063   0.322E-03    0.342E-03
RMM:  10    -0.413135219643E+03   -0.17311E-04   -0.16512E-06  2559   0.190E-03    0.228E-03
RMM:  11    -0.413135246539E+03   -0.26896E-04   -0.24427E-06  2585   0.189E-03    0.122E-03
RMM:  12    -0.413135262021E+03   -0.15482E-04   -0.14213E-06  2458   0.134E-03    0.613E-04
RMM:  13    -0.413135268917E+03   -0.68963E-05   -0.53594E-07  1687   0.900E-04    0.360E-04
RMM:  14    -0.413135276997E+03   -0.80800E-05   -0.51092E-07  2227   0.985E-04    0.277E-04
RMM:  15    -0.413135283300E+03   -0.63025E-05   -0.33007E-07  1423   0.748E-04    0.149E-04
RMM:  16    -0.413135287362E+03   -0.40619E-05   -0.18556E-07  1433   0.697E-04    0.713E-05
RMM:  17    -0.413135289507E+03   -0.21454E-05   -0.10063E-07  1186   0.599E-04    0.611E-05
RMM:  18    -0.413135290539E+03   -0.10324E-05   -0.51818E-08   935   0.529E-04    0.461E-05
RMM:  19    -0.413135292119E+03   -0.15801E-05   -0.42519E-08   896   0.520E-04    0.350E-05
RMM:  20    -0.413135292559E+03   -0.43936E-06   -0.19698E-08   755   0.492E-04
  150 T=    54. E= -.41286834E+03 F= -.41313529E+03 E0= -.41311493E+03  EK= 0.26695E+00 SP= 0.00E+00 SK= 0.00E+00
