       N       E                     dE             d eps       ncg     rms          rms(c)
RMM:   1     0.220145560023E+04    0.22015E+04   -0.52440E+04  2132   0.654E+02
RMM:   2     0.705508839690E+03   -0.14959E+04   -0.16261E+04  2132   0.177E+02
RMM:   3     0.137506899122E+03   -0.56800E+03   -0.65708E+03  2132   0.117E+02
RMM:   4    -0.159258546965E+03   -0.29677E+03   -0.27848E+03  2132   0.936E+01
RMM:   5    -0.287536307698E+03   -0.12828E+03   -0.11465E+03  2132   0.595E+01
RMM:   6    -0.349816648089E+03   -0.62280E+02   -0.55127E+02  2132   0.423E+01
RMM:   7    -0.382732248205E+03   -0.32916E+02   -0.30404E+02  2132   0.293E+01
RMM:   8    -0.404273109898E+03   -0.21541E+02   -0.18450E+02  2132   0.233E+01
RMM:   9    -0.436027501589E+03   -0.31754E+02   -0.30658E+02  6110   0.173E+01
RMM:  10    -0.441344239504E+03   -0.53167E+01   -0.63072E+01  6399   0.538E+00
RMM:  11    -0.442522999325E+03   -0.11788E+01   -0.10775E+01  6209   0.172E+00
RMM:  12    -0.442890845233E+03   -0.36785E+00   -0.27099E+00  6365   0.598E-01    0.134E+02
RMM:  13    -0.425597524805E+03    0.17293E+02   -0.80914E+01  4677   0.119E+01    0.712E+01
RMM:  14    -0.499378020829E+03   -0.73780E+02   -0.53881E+02  5418   0.232E+01    0.307E+01
RMM:  15    -0.415911256807E+03    0.83467E+02   -0.19973E+02  5086   0.163E+01    0.701E+00
RMM:  16    -0.414035792702E+03    0.18755E+01   -0.39915E+01  6080   0.612E+00    0.430E+00
RMM:  17    -0.413211906309E+03    0.82389E+00   -0.25589E+00  5393   0.188E+00    0.245E+00
RMM:  18    -0.413172893386E+03    0.39013E-01   -0.80175E-01  5986   0.913E-01    0.167E+00
RMM:  19    -0.413170829281E+03    0.20641E-02   -0.26289E-01  5685   0.551E-01    0.887E-01
RMM:  20    -0.413194641455E+03   -0.23812E-01   -0.31574E-01  5543   0.584E-01    0.684E-01
RMM:  21    -0.413168983833E+03    0.25658E-01   -0.37357E-02  4953   0.254E-01    0.313E-01
RMM:  22    -0.413165362655E+03    0.36212E-02   -0.25531E-02  5897   0.151E-01    0.136E-01
RMM:  23    -0.413164492498E+03    0.87016E-03   -0.66193E-03  6086   0.717E-02    0.856E-02
RMM:  24    -0.413163400199E+03    0.10923E-02   -0.17289E-03  5253   0.422E-02    0.520E-02
RMM:  25    -0.413162828256E+03    0.57194E-03   -0.83126E-04  5091   0.274E-02    0.398E-02
RMM:  26    -0.413162927708E+03   -0.99453E-04   -0.10278E-03  5725   0.334E-02    0.328E-02
RMM:  27    -0.413163312499E+03   -0.38479E-03   -0.19396E-04  4623   0.191E-02    0.192E-02
RMM:  28    -0.413163784254E+03   -0.47175E-03   -0.16263E-04  4990   0.185E-02    0.977E-03
RMM:  29    -0.413164175402E+03   -0.39115E-03   -0.12213E-04  4674   0.158E-02    0.469E-03
RMM:  30    -0.413164399105E+03   -0.22370E-03   -0.74309E-05  4136   0.998E-03    0.335E-03
RMM:  31    -0.413164546345E+03   -0.14724E-03   -0.59472E-05  3396   0.764E-03    0.348E-03
RMM:  32    -0.413164573891E+03   -0.27546E-04   -0.22393E-05  2987   0.318E-03    0.179E-03
RMM:  33    -0.413164586484E+03   -0.12593E-04   -0.86553E-06  2770   0.211E-03    0.854E-04
RMM:  34    -0.413164589841E+03   -0.33568E-05   -0.49187E-06  2646   0.158E-03    0.536E-04
RMM:  35    -0.413164590523E+03   -0.68250E-06   -0.23316E-06  2336   0.128E-03
    1 T=    61. E= -.41286678E+03 F= -.41316459E+03 E0= -.41314209E+03  EK= 0.29781E+00 SP= 0.00E+00 SK= 0.00E+00
       N       E                     dE             d eps       ncg     rms          rms(c)
RMM:   1    -0.413158369135E+03    0.62207E-02   -0.10226E+01  3999   0.663E-01    0.885E-01
RMM:   2    -0.413167173081E+03   -0.88039E-02   -0.12533E-01  3963   0.966E-02    0.645E-01
RMM:   3    -0.413164432164E+03    0.27409E-02   -0.97265E-03  4668   0.416E-02    0.113E-01
RMM:   4    -0.413179335133E+03   -0.14903E-01   -0.15770E-02  5214   0.104E-01    0.512E-01
RMM:   5    -0.413164220327E+03    0.15115E-01   -0.76204E-03  4862   0.857E-02    0.382E-02
RMM:   6    -0.413164314791E+03   -0.94464E-04   -0.13146E-03  5788   0.349E-02    0.266E-02
RMM:   7    -0.413164319426E+03   -0.46346E-05   -0.25370E-04  5663   0.144E-02    0.146E-02
RMM:   8    -0.413164321438E+03   -0.20126E-05   -0.27138E-05  4373   0.561E-03    0.612E-03
RMM:   9    -0.413164325587E+03   -0.41485E-05   -0.56654E-06  3011   0.261E-03    0.476E-03
RMM:  10    -0.413164330698E+03   -0.51108E-05   -0.14534E-06  2539   0.178E-03    0.289E-03
RMM:  11    -0.413164337262E+03   -0.65639E-05   -0.12811E-06  2517   0.162E-03    0.120E-03
RMM:  12    -0.413164342565E+03   -0.53038E-05   -0.92910E-07  2416   0.133E-03    0.579E-04
RMM:  13    -0.413164343312E+03   -0.74680E-06   -0.41314E-07  1960   0.910E-04
    2 T=    61. E= -.41286658E+03 F= -.41316434E+03 E0= -.41314184E+03  EK= 0.29776E+00 SP= 0.00E+00 SK= 0.00E+00
       N       E                     dE             d eps       ncg     rms          rms(c)
RMM:   1    -0.413159430929E+03    0.49116E-02   -0.10244E+01  4198   0.669E-01    0.907E-01
RMM:   2    -0.413167087698E+03   -0.76568E-02   -0.12328E-01  3966   0.948E-02    0.639E-01
RMM:   3    -0.413165046932E+03    0.20408E-02   -0.97685E-03  4810   0.412E-02    0.133E-01
RMM:   4    -0.413188091116E+03   -0.23044E-01   -0.23622E-02  5181   0.128E-01    0.634E-01
RMM:   5    -0.413164737854E+03    0.23353E-01   -0.11426E-02  4835   0.106E-01    0.424E-02
RMM:   6    -0.413164885917E+03   -0.14806E-03   -0.19627E-03  5807   0.426E-02    0.281E-02
RMM:   7    -0.413164886256E+03   -0.33877E-06   -0.32085E-04  5710   0.165E-02    0.175E-02
RMM:   8    -0.413164880874E+03    0.53817E-05   -0.50160E-05  4981   0.754E-03    0.819E-03
RMM:   9    -0.413164879752E+03    0.11229E-05   -0.10187E-05  3606   0.358E-03    0.631E-03
RMM:  10    -0.413164880313E+03   -0.56142E-06   -0.15705E-06  2557   0.201E-03
    3 T=    61. E= -.41286687E+03 F= -.41316488E+03 E0= -.41314239E+03  EK= 0.29801E+00 SP= 0.00E+00 SK= 0.00E+00
       N       E                     dE             d eps       ncg     rms          rms(c)
RMM:   1    -0.413159028937E+03    0.58508E-02   -0.10166E+01  4220   0.674E-01    0.891E-01
RMM:   2    -0.413166802373E+03   -0.77734E-02   -0.12256E-01  4141   0.922E-02    0.633E-01
RMM:   3    -0.413167397807E+03   -0.59543E-03   -0.11501E-02  5136   0.628E-02    0.251E-01
RMM:   4    -0.413199257705E+03   -0.31860E-01   -0.44222E-02  5140   0.177E-01    0.768E-01
RMM:   5    -0.413164534927E+03    0.34723E-01   -0.15022E-02  4764   0.128E-01    0.581E-02
RMM:   6    -0.413164631295E+03   -0.96368E-04   -0.26075E-03  5612   0.505E-02    0.276E-02
RMM:   7    -0.413164653481E+03   -0.22186E-04   -0.39864E-04  6053   0.169E-02    0.175E-02
RMM:   8    -0.413164653248E+03    0.23220E-06   -0.67186E-05  5268   0.867E-03    0.786E-03
RMM:   9    -0.413164651327E+03    0.19215E-05   -0.10605E-05  3516   0.373E-03    0.385E-03
RMM:  10    -0.413164652685E+03   -0.13577E-05   -0.24900E-06  2619   0.223E-03    0.265E-03
RMM:  11    -0.413164654296E+03   -0.16112E-05   -0.13562E-06  2532   0.181E-03    0.145E-03
RMM:  12    -0.413164655255E+03   -0.95958E-06   -0.77699E-07  2487   0.140E-03
    4 T=    61. E= -.41286661E+03 F= -.41316466E+03 E0= -.41314217E+03  EK= 0.29804E+00 SP= 0.00E+00 SK= 0.00E+00
       N       E                     dE             d eps       ncg     rms          rms(c)
RMM:   1    -0.413158850316E+03    0.58040E-02   -0.10217E+01  4234   0.679E-01    0.883E-01
RMM:   2    -0.413167352747E+03   -0.85024E-02   -0.12555E-01  3982   0.918E-02    0.644E-01
RMM:   3    -0.413165114959E+03    0.22378E-02   -0.97658E-03  4925   0.412E-02    0.130E-01
RMM:   4    -0.413194064104E+03   -0.28949E-01   -0.30070E-02  5163   0.144E-01    0.710E-01
RMM:   5    -0.413164621512E+03    0.29443E-01   -0.14322E-02  4818   0.118E-01    0.438E-02
RMM:   6    -0.413164800471E+03   -0.17896E-03   -0.23520E-03  5798   0.470E-02    0.276E-02
RMM:   7    -0.413164810882E+03   -0.10411E-04   -0.35166E-04  5797   0.167E-02    0.177E-02
RMM:   8    -0.413164811988E+03   -0.11060E-05   -0.57433E-05  5015   0.779E-03    0.838E-03
RMM:   9    -0.413164813587E+03   -0.15992E-05   -0.11688E-05  3794   0.386E-03    0.616E-03
RMM:  10    -0.413164817707E+03   -0.41201E-05   -0.17169E-06  2570   0.200E-03    0.402E-03
RMM:  11    -0.413164822914E+03   -0.52068E-05   -0.14484E-06  2547   0.185E-03    0.191E-03
RMM:  12    -0.413164828336E+03   -0.54220E-05   -0.14574E-06  2554   0.173E-03    0.805E-04
RMM:  13    -0.413164828999E+03   -0.66270E-06   -0.40056E-07  2204   0.108E-03
    5 T=    61. E= -.41286663E+03 F= -.41316483E+03 E0= -.41314235E+03  EK= 0.29820E+00 SP= 0.00E+00 SK= 0.00E+00
       N       E                     dE             d eps       ncg     rms          rms(c)
RMM:   1    -0.413159702166E+03    0.51262E-02   -0.10249E+01  4250   0.681E-01    0.903E-01
RMM:   2    -0.413167476773E+03   -0.77746E-02   -0.12361E-01  4049   0.949E-02    0.641E-01
RMM:   3    -0.413165468232E+03    0.20085E-02   -0.97282E-03  4708   0.424E-02    0.128E-01
RMM:   4    -0.413185330554E+03   -0.19862E-01   -0.20181E-02  5158   0.119E-01    0.591E-01
RMM:   5    -0.413165171508E+03    0.20159E-01   -0.99642E-03  4833   0.979E-02    0.402E-02
RMM:   6    -0.413165290841E+03   -0.11933E-03   -0.16550E-03  5816   0.390E-02    0.259E-02
RMM:   7    -0.413165291040E+03   -0.19891E-06   -0.27235E-04  5687   0.155E-02    0.164E-02
RMM:   8    -0.413165284828E+03    0.62115E-05   -0.46867E-05  4887   0.734E-03    0.774E-03
RMM:   9    -0.413165283662E+03    0.11668E-05   -0.93969E-06  3572   0.354E-03    0.607E-03
RMM:  10    -0.413165284143E+03   -0.48157E-06   -0.14065E-06  2537   0.199E-03
    6 T=    61. E= -.41286681E+03 F= -.41316528E+03 E0= -.41314282E+03  EK= 0.29848E+00 SP= 0.00E+00 SK= 0.00E+00
       N       E                     dE             d eps       ncg     rms          rms(c)
RMM:   1    -0.413159438121E+03    0.58455E-02   -0.10195E+01  4256   0.684E-01    0.899E-01
RMM:   2    -0.413167280640E+03   -0.78425E-02   -0.12282E-01  4196   0.957E-02    0.634E-01
RMM:   3    -0.413167489910E+03   -0.20927E-03   -0.11382E-02  5106   0.614E-02    0.242E-01
RMM:   4    -0.413200798799E+03   -0.33309E-01   -0.44533E-02  5139   0.177E-01    0.781E-01
RMM:   5    -0.413164934233E+03    0.35865E-01   -0.15771E-02  4773   0.129E-01    0.575E-02
RMM:   6    -0.413165045050E+03   -0.11082E-03   -0.26833E-03  5639   0.512E-02    0.282E-02
RMM:   7    -0.413165063905E+03   -0.18855E-04   -0.40163E-04  6031   0.169E-02    0.177E-02
RMM:   8    -0.413165061439E+03    0.24657E-05   -0.67326E-05  5244   0.861E-03    0.795E-03
RMM:   9    -0.413165057855E+03    0.35842E-05   -0.10786E-05  3531   0.374E-03    0.397E-03
RMM:  10    -0.413165057864E+03   -0.87384E-08   -0.25317E-06  2616   0.224E-03
    7 T=    61. E= -.41286649E+03 F= -.41316506E+03 E0= -.41314261E+03  EK= 0.29857E+00 SP= 0.00E+00 SK= 0.00E+00
       N       E                     dE             d eps       ncg     rms          rms(c)
RMM:   1    -0.413159673214E+03    0.53846E-02   -0.10203E+01  4269   0.690E-01    0.882E-01
RMM:   2    -0.413168207822E+03   -0.85346E-02   -0.12491E-01  4170   0.944E-02    0.642E-01
RMM:   3    -0.413166602737E+03    0.16051E-02   -0.10245E-02  5043   0.503E-02    0.173E-01
RMM:   4    -0.413208748504E+03   -0.42146E-01   -0.47069E-02  5151   0.181E-01    0.855E-01
RMM:   5    -0.413165369985E+03    0.43379E-01   -0.20412E-02  4803   0.143E-01    0.524E-02
RMM:   6    -0.413165582453E+03   -0.21247E-03   -0.33527E-03  5761   0.565E-02    0.289E-02
RMM:   7    -0.413165600284E+03   -0.17831E-04   -0.46275E-04  5961   0.183E-02    0.194E-02
RMM:   8    -0.413165601978E+03   -0.16936E-05   -0.74315E-05  5244   0.862E-03    0.934E-03
RMM:   9    -0.413165601674E+03    0.30353E-06   -0.14845E-05  4020   0.422E-03    0.565E-03
RMM:  10    -0.413165604970E+03   -0.32957E-05   -0.26593E-06  2636   0.221E-03    0.377E-03
RMM:  11    -0.413165608024E+03   -0.30541E-05   -0.12204E-06  2527   0.171E-03    0.198E-03
RMM:  12    -0.413165611664E+03   -0.36400E-05   -0.13847E-06  2548   0.170E-03    0.638E-04
RMM:  13    -0.413165612875E+03   -0.12110E-05   -0.55366E-07  2282   0.117E-03    0.533E-04
RMM:  14    -0.413165612746E+03    0.12907E-06   -0.22349E-07  1707   0.813E-04
    8 T=    61. E= -.41286671E+03 F= -.41316561E+03 E0= -.41314318E+03  EK= 0.29890E+00 SP= 0.00E+00 SK= 0.00E+00
       N       E                     dE             d eps       ncg     rms          rms(c)
RMM:   1    -0.413160149913E+03    0.54630E-02   -0.10254E+01  4281   0.698E-01    0.898E-01
RMM:   2    -0.413168296727E+03   -0.81468E-02   -0.12444E-01  4164   0.963E-02    0.644E-01
RMM:   3    -0.413166074894E+03    0.22218E-02   -0.98185E-03  4816   0.424E-02    0.130E-01
RMM:   4    -0.413191041995E+03   -0.24967E-01   -0.25663E-02  5152   0.133E-01    0.660E-01
RMM:   5    -0.413165651158E+03    0.25391E-01   -0.12465E-02  4813   0.110E-01    0.425E-02
RMM:   6    -0.413165806622E+03   -0.15546E-03   -0.20411E-03  5794   0.437E-02    0.279E-02
RMM:   7    -0.413165807802E+03   -0.11795E-05   -0.32326E-04  5724   0.165E-02    0.174E-02
RMM:   8    -0.413165803665E+03    0.41370E-05   -0.50500E-05  4976   0.752E-03    0.809E-03
RMM:   9    -0.413165802488E+03    0.11768E-05   -0.10276E-05  3620   0.364E-03    0.613E-03
RMM:  10    -0.413165803210E+03   -0.72250E-06   -0.14801E-06  2546   0.197E-03
    9 T=    61. E= -.41286669E+03 F= -.41316580E+03 E0= -.41314339E+03  EK= 0.29911E+00 SP= 0.00E+00 SK= 0.00E+00
       N       E                     dE             d eps       ncg     rms          rms(c)
RMM:   1    -0.413160429459E+03    0.53730E-02   -0.10228E+01  4295   0.697E-01    0.905E-01
RMM:   2    -0.413168015057E+03   -0.75856E-02   -0.12293E-01  4267   0.956E-02    0.636E-01
RMM:   3    -0.413168353018E+03   -0.33796E-03   -0.11557E-02  5091   0.632E-02    0.245E-01
RMM:   4    -0.413201135027E+03   -0.32782E-01   -0.44242E-02  5125   0.176E-01    0.776E-01
RMM:   5    -0.413165742548E+03    0.35392E-01   -0.15560E-02  4763   0.129E-01    0.572E-02
RMM:   6    -0.413165850919E+03   -0.10837E-03   -0.26611E-03  5626   0.507E-02    0.285E-02
RMM:   7    -0.413165865021E+03   -0.14101E-04   -0.39931E-04  6010   0.169E-02    0.180E-02
RMM:   8    -0.413165860926E+03    0.40951E-05   -0.66216E-05  5241   0.858E-03    0.803E-03
RMM:   9    -0.413165856000E+03    0.49262E-05   -0.10713E-05  3536   0.375E-03    0.404E-03
RMM:  10    -0.413165854741E+03    0.12581E-05   -0.25180E-06  2609   0.225E-03    0.282E-03
RMM:  11    -0.413165853048E+03    0.16933E-05   -0.12286E-06  2519   0.175E-03    0.145E-03
RMM:  12    -0.413165851080E+03    0.19683E-05   -0.78887E-07  2482   0.140E-03    0.473E-04
RMM:  13    -0.413165850107E+03    0.97281E-06   -0.38421E-07  2064   0.994E-04
   10 T=    61. E= -.41286651E+03 F= -.41316585E+03 E0= -.41314346E+03  EK= 0.29934E+00 SP= 0.00E+00 SK= 0.00E+00
       N       E                     dE             d eps       ncg     rms          rms(c)
RMM:   1    -0.413160718941E+03    0.51321E-02   -0.10188E+01  4285   0.705E-01    0.883E-01
RMM:   2    -0.413169116232E+03   -0.83973E-02   -0.12439E-01  4218   0.957E-02    0.639E-01
RMM:   3    -0.413166981749E+03    0.21345E-02   -0.96839E-03  4857   0.437E-02    0.135E-01
RMM:   4    -0.413197175935E+03   -0.30194E-01   -0.31413E-02  5144   0.147E-01    0.724E-01
RMM:   5    -0.413166433381E+03    0.30743E-01   -0.14977E-02  4806   0.121E-01    0.447E-02
RMM:   6    -0.413166614810E+03   -0.18143E-03   -0.24770E-03  5789   0.479E-02    0.284E-02
RMM:   7    -0.413166621025E+03   -0.62152E-05   -0.36574E-04  5760   0.171E-02    0.182E-02
RMM:   8    -0.413166617860E+03    0.31652E-05   -0.59108E-05  5010   0.797E-03    0.876E-03
RMM:   9    -0.413166616392E+03    0.14678E-05   -0.12166E-05  3830   0.395E-03    0.642E-03
RMM:  10    -0.413166617479E+03   -0.10867E-05   -0.17365E-06  2562   0.203E-03    0.418E-03
RMM:  11    -0.413166619092E+03   -0.16129E-05   -0.16490E-06  2560   0.197E-03    0.187E-03
RMM:  12    -0.413166620379E+03   -0.12866E-05   -0.13486E-06  2532   0.173E-03    0.784E-04
RMM:  13    -0.413166620477E+03   -0.98556E-07   -0.37844E-07  2188   0.107E-03
   11 T=    61. E= -.41286677E+03 F= -.41316662E+03 E0= -.41314426E+03  EK= 0.29985E+00 SP= 0.00E+00 SK= 0.00E+00
       N       E                     dE             d eps       ncg     rms          rms(c)
RMM:   1    -0.413160826416E+03    0.57940E-02   -0.10263E+01  4292   0.710E-01    0.894E-01
RMM:   2    -0.413169094858E+03   -0.82684E-02   -0.12529E-01  4210   0.950E-02    0.646E-01
RMM:   3    -0.413166818178E+03    0.22767E-02   -0.98009E-03  4806   0.411E-02    0.127E-01
RMM:   4    -0.413191334721E+03   -0.24517E-01   -0.25277E-02  5141   0.132E-01    0.654E-01
RMM:   5    -0.413166432930E+03    0.24902E-01   -0.12192E-02  4811   0.108E-01    0.419E-02
RMM:   6    -0.413166585121E+03   -0.15219E-03   -0.20423E-03  5816   0.429E-02    0.266E-02
RMM:   7    -0.413166591018E+03   -0.58964E-05   -0.30519E-04  5729   0.160E-02    0.171E-02
RMM:   8    -0.413166586701E+03    0.43165E-05   -0.54987E-05  4956   0.776E-03    0.840E-03
RMM:   9    -0.413166585367E+03    0.13341E-05   -0.11075E-05  3748   0.381E-03    0.641E-03
RMM:  10    -0.413166586300E+03   -0.93223E-06   -0.14910E-06  2541   0.200E-03
   12 T=    61. E= -.41286647E+03 F= -.41316659E+03 E0= -.41314425E+03  EK= 0.30012E+00 SP= 0.00E+00 SK= 0.00E+00
       N       E                     dE             d eps       ncg     rms          rms(c)
RMM:   1    -0.413161879397E+03    0.47060E-02   -0.10263E+01  4304   0.710E-01    0.911E-01
RMM:   2    -0.413169059620E+03   -0.71802E-02   -0.12329E-01  4278   0.918E-02    0.639E-01
RMM:   3    -0.413169780540E+03   -0.72092E-03   -0.11804E-02  5119   0.615E-02    0.250E-01
RMM:   4    -0.413201934026E+03   -0.32153E-01   -0.44251E-02  5125   0.176E-01    0.771E-01
RMM:   5    -0.413167000219E+03    0.34934E-01   -0.15257E-02  4757   0.127E-01    0.566E-02
RMM:   6    -0.413167109631E+03   -0.10941E-03   -0.25930E-03  5628   0.502E-02    0.288E-02
RMM:   7    -0.413167119235E+03   -0.96039E-05   -0.38923E-04  6007   0.168E-02    0.181E-02
RMM:   8    -0.413167113454E+03    0.57816E-05   -0.66226E-05  5232   0.861E-03    0.806E-03
RMM:   9    -0.413167107386E+03    0.60678E-05   -0.10713E-05  3553   0.377E-03    0.402E-03
RMM:  10    -0.413167105235E+03    0.21512E-05   -0.24579E-06  2609   0.223E-03    0.279E-03
RMM:  11    -0.413167102423E+03    0.28115E-05   -0.12009E-06  2516   0.174E-03    0.143E-03
RMM:  12    -0.413167099320E+03    0.31028E-05   -0.76911E-07  2473   0.139E-03    0.463E-04
RMM:  13    -0.413167097883E+03    0.14374E-05   -0.36876E-07  2049   0.988E-04    0.298E-04
RMM:  14    -0.413167096714E+03    0.11691E-05   -0.21685E-07  1570   0.792E-04    0.201E-04
RMM:  15    -0.413167094854E+03    0.18595E-05   -0.18958E-07  1420   0.742E-04    0.102E-04
RMM:  16    -0.413167092902E+03    0.19520E-05   -0.16704E-07  1448   0.714E-04    0.120E-04
RMM:  17    -0.413167091192E+03    0.17109E-05   -0.12748E-07  1332   0.655E-04    0.687E-05
RMM:  18    -0.413167089711E+03    0.14804E-05   -0.91417E-08  1101   0.598E-04    0.284E-05
RMM:  19    -0.413167089271E+03    0.44008E-06   -0.41861E-08   847   0.544E-04
   13 T=    61. E= -.41286651E+03 F= -.41316709E+03 E0= -.41314479E+03  EK= 0.30058E+00 SP= 0.00E+00 SK= 0.00E+00
       N       E                     dE             d eps       ncg     rms          rms(c)
RMM:   1    -0.413161917429E+03    0.51723E-02   -0.10188E+01  4291   0.715E-01    0.886E-01
RMM:   2    -0.413170155059E+03   -0.82376E-02   -0.12423E-01  4230   0.922E-02    0.638E-01
RMM:   3    -0.413168261327E+03    0.18937E-02   -0.97714E-03  4948   0.426E-02    0.144E-01
RMM:   4    -0.413202386137E+03   -0.34125E-01   -0.36056E-02  5145   0.157E-01    0.769E-01
RMM:   5    -0.413167593854E+03    0.34792E-01   -0.16944E-02  4796   0.128E-01    0.470E-02
RMM:   6    -0.413167787609E+03   -0.19376E-03   -0.27656E-03  5770   0.508E-02    0.295E-02
RMM:   7    -0.413167790910E+03   -0.33006E-05   -0.39647E-04  5750   0.177E-02    0.189E-02
RMM:   8    -0.413167786520E+03    0.43904E-05   -0.64255E-05  5108   0.823E-03    0.911E-03
RMM:   9    -0.413167783428E+03    0.30915E-05   -0.13620E-05  3983   0.412E-03    0.639E-03
RMM:  10    -0.413167783280E+03    0.14769E-06   -0.19197E-06  2572   0.206E-03
   14 T=    61. E= -.41286665E+03 F= -.41316778E+03 E0= -.41314551E+03  EK= 0.30114E+00 SP= 0.00E+00 SK= 0.00E+00
       N       E                     dE             d eps       ncg     rms          rms(c)
RMM:   1    -0.413162527849E+03    0.52556E-02   -0.10281E+01  4303   0.731E-01    0.891E-01
RMM:   2    -0.413170620348E+03   -0.80925E-02   -0.12742E-01  4306   0.979E-02    0.649E-01
RMM:   3    -0.413171780420E+03   -0.11601E-02   -0.12805E-02  5118   0.709E-02    0.288E-01
RMM:   4    -0.413201090374E+03   -0.29310E-01   -0.45978E-02  5101   0.181E-01    0.752E-01
RMM:   5    -0.413167700957E+03    0.33389E-01   -0.13853E-02  4718   0.123E-01    0.571E-02
RMM:   6    -0.413167784769E+03   -0.83813E-04   -0.24296E-03  5589   0.485E-02    0.267E-02
RMM:   7    -0.413167805098E+03   -0.20328E-04   -0.36640E-04  6010   0.166E-02    0.173E-02
RMM:   8    -0.413167805816E+03   -0.71857E-06   -0.67700E-05  5236   0.871E-03    0.789E-03
RMM:   9    -0.413167803668E+03    0.21479E-05   -0.10582E-05  3525   0.382E-03    0.366E-03
RMM:  10    -0.413167804847E+03   -0.11789E-05   -0.22959E-06  2590   0.217E-03    0.245E-03
RMM:  11    -0.413167806172E+03   -0.13252E-05   -0.14345E-06  2527   0.183E-03    0.142E-03
RMM:  12    -0.413167806638E+03   -0.46600E-06   -0.73533E-07  2465   0.138E-03
   15 T=    61. E= -.41286632E+03 F= -.41316781E+03 E0= -.41314557E+03  EK= 0.30149E+00 SP= 0.00E+00 SK= 0.00E+00
       N       E                     dE             d eps       ncg     rms          rms(c)
RMM:   1    -0.413163594874E+03    0.42113E-02   -0.10290E+01  4301   0.725E-01    0.912E-01
RMM:   2    -0.413171223501E+03   -0.76286E-02   -0.12406E-01  4249   0.985E-02    0.642E-01
RMM:   3    -0.413169430159E+03    0.17933E-02   -0.10220E-02  4930   0.472E-02    0.154E-01
RMM:   4    -0.413205745709E+03   -0.36316E-01   -0.38591E-02  5139   0.163E-01    0.793E-01
RMM:   5    -0.413168661226E+03    0.37084E-01   -0.17917E-02  4791   0.132E-01    0.493E-02
RMM:   6    -0.413168873604E+03   -0.21238E-03   -0.30880E-03  5776   0.529E-02    0.311E-02
RMM:   7    -0.413168873717E+03   -0.11306E-06   -0.43056E-04  5785   0.185E-02    0.202E-02
RMM:   8    -0.413168864573E+03    0.91438E-05   -0.70458E-05  5133   0.863E-03    0.101E-02
RMM:   9    -0.413168857876E+03    0.66970E-05   -0.14396E-05  4066   0.426E-03    0.704E-03
RMM:  10    -0.413168854117E+03    0.37589E-05   -0.21626E-06  2596   0.218E-03    0.451E-03
RMM:  11    -0.413168850637E+03    0.34799E-05   -0.14219E-06  2527   0.186E-03    0.234E-03
RMM:  12    -0.413168845272E+03    0.53658E-05   -0.16282E-06  2558   0.194E-03    0.860E-04
RMM:  13    -0.413168843674E+03    0.15976E-05   -0.49374E-07  2324   0.124E-03    0.613E-04
RMM:  14    -0.413168843747E+03   -0.73447E-07   -0.22318E-07  1829   0.835E-04
   16 T=    62. E= -.41286670E+03 F= -.41316884E+03 E0= -.41314665E+03  EK= 0.30214E+00 SP= 0.00E+00 SK= 0.00E+00
       N       E                     dE             d eps       ncg     rms          rms(c)
RMM:   1    -0.413163657361E+03    0.51863E-02   -0.10207E+01  4297   0.723E-01    0.892E-01
RMM:   2    -0.413171827629E+03   -0.81703E-02   -0.12416E-01  4258   0.984E-02    0.638E-01
RMM:   3    -0.413169622219E+03    0.22054E-02   -0.97111E-03  4841   0.443E-02    0.138E-01
RMM:   4    -0.413198416591E+03   -0.28794E-01   -0.29811E-02  5143   0.143E-01    0.707E-01
RMM:   5    -0.413169143376E+03    0.29273E-01   -0.14310E-02  4802   0.118E-01    0.449E-02
RMM:   6    -0.413169324685E+03   -0.18131E-03   -0.24610E-03  5804   0.467E-02    0.290E-02
RMM:   7    -0.413169325461E+03   -0.77586E-06   -0.35377E-04  5720   0.172E-02    0.184E-02
RMM:   8    -0.413169317480E+03    0.79815E-05   -0.60084E-05  5008   0.810E-03    0.907E-03
RMM:   9    -0.413169312835E+03    0.46452E-05   -0.12434E-05  3887   0.400E-03    0.672E-03
RMM:  10    -0.413169310686E+03    0.21487E-05   -0.16806E-06  2555   0.205E-03    0.433E-03
RMM:  11    -0.413169308045E+03    0.26412E-05   -0.16034E-06  2543   0.198E-03    0.199E-03
RMM:  12    -0.413169304927E+03    0.31174E-05   -0.12846E-06  2515   0.175E-03    0.771E-04
RMM:  13    -0.413169304419E+03    0.50876E-06   -0.38450E-07  2201   0.109E-03
   17 T=    62. E= -.41286662E+03 F= -.41316930E+03 E0= -.41314714E+03  EK= 0.30269E+00 SP= 0.00E+00 SK= 0.00E+00
       N       E                     dE             d eps       ncg     rms          rms(c)
RMM:   1    -0.413164056505E+03    0.52484E-02   -0.10284E+01  4296   0.733E-01    0.889E-01
RMM:   2    -0.413172535581E+03   -0.84791E-02   -0.12664E-01  4267   0.967E-02    0.649E-01
RMM:   3    -0.413170109209E+03    0.24264E-02   -0.10095E-02  4849   0.450E-02    0.131E-01
RMM:   4    -0.413199899042E+03   -0.29790E-01   -0.31082E-02  5133   0.146E-01    0.719E-01
RMM:   5    -0.413169557309E+03    0.30342E-01   -0.14912E-02  4801   0.120E-01    0.442E-02
RMM:   6    -0.413169736391E+03   -0.17908E-03   -0.24118E-03  5806   0.471E-02    0.278E-02
RMM:   7    -0.413169742729E+03   -0.63381E-05   -0.34635E-04  5741   0.170E-02    0.178E-02
RMM:   8    -0.413169738624E+03    0.41053E-05   -0.63290E-05  5032   0.818E-03    0.900E-03
RMM:   9    -0.413169735868E+03    0.27564E-05   -0.13055E-05  3969   0.409E-03    0.655E-03
RMM:  10    -0.413169735973E+03   -0.10483E-06   -0.17723E-06  2564   0.204E-03
   18 T=    62. E= -.41286644E+03 F= -.41316974E+03 E0= -.41314762E+03  EK= 0.30329E+00 SP= 0.00E+00 SK= 0.00E+00
       N       E                     dE             d eps       ncg     rms          rms(c)
RMM:   1    -0.413165639188E+03    0.40967E-02   -0.10315E+01  4305   0.734E-01    0.912E-01
RMM:   2    -0.413173192264E+03   -0.75531E-02   -0.12508E-01  4311   0.960E-02    0.646E-01
RMM:   3    -0.413174257440E+03   -0.10652E-02   -0.12446E-02  5112   0.668E-02    0.270E-01
RMM:   4    -0.413204510625E+03   -0.30253E-01   -0.44751E-02  5103   0.178E-01    0.756E-01
RMM:   5    -0.413170888894E+03    0.33622E-01   -0.14382E-02  4730   0.125E-01    0.565E-02
RMM:   6    -0.413170988854E+03   -0.99960E-04   -0.24902E-03  5623   0.489E-02    0.286E-02
RMM:   7    -0.413170997834E+03   -0.89803E-05   -0.37335E-04  5999   0.167E-02    0.181E-02
RMM:   8    -0.413170991889E+03    0.59450E-05   -0.66781E-05  5196   0.865E-03    0.806E-03
RMM:   9    -0.413170984689E+03    0.72000E-05   -0.10621E-05  3557   0.381E-03    0.390E-03
RMM:  10    -0.413170981973E+03    0.27165E-05   -0.23463E-06  2593   0.220E-03    0.268E-03
RMM:  11    -0.413170978045E+03    0.39278E-05   -0.11792E-06  2512   0.174E-03    0.141E-03
RMM:  12    -0.413170974154E+03    0.38911E-05   -0.68509E-07  2450   0.136E-03    0.439E-04
RMM:  13    -0.413170972258E+03    0.18959E-05   -0.33334E-07  2023   0.963E-04    0.282E-04
RMM:  14    -0.413170970684E+03    0.15736E-05   -0.19302E-07  1519   0.774E-04    0.193E-04
RMM:  15    -0.413170968105E+03    0.25791E-05   -0.16256E-07  1377   0.725E-04    0.960E-05
RMM:  16    -0.413170965737E+03    0.23682E-05   -0.12974E-07  1349   0.690E-04    0.106E-04
RMM:  17    -0.413170963235E+03    0.25022E-05   -0.11294E-07  1323   0.656E-04    0.592E-05
RMM:  18    -0.413170961494E+03    0.17403E-05   -0.72065E-08  1080   0.588E-04    0.243E-05
RMM:  19    -0.413170960808E+03    0.68642E-06   -0.36262E-08   846   0.543E-04
   19 T=    62. E= -.41286678E+03 F= -.41317096E+03 E0= -.41314888E+03  EK= 0.30418E+00 SP= 0.00E+00 SK= 0.00E+00
       N       E                     dE             d eps       ncg     rms          rms(c)
RMM:   1    -0.413165889111E+03    0.50724E-02   -0.10252E+01  4296   0.735E-01    0.901E-01
RMM:   2    -0.413173485887E+03   -0.75968E-02   -0.12446E-01  4260   0.957E-02    0.639E-01
RMM:   3    -0.413171937651E+03    0.15482E-02   -0.10085E-02  4942   0.459E-02    0.155E-01
RMM:   4    -0.413208800796E+03   -0.36863E-01   -0.39374E-02  5136   0.164E-01    0.799E-01
RMM:   5    -0.413171152165E+03    0.37649E-01   -0.18336E-02  4791   0.133E-01    0.492E-02
RMM:   6    -0.413171358669E+03   -0.20650E-03   -0.30246E-03  5784   0.528E-02    0.312E-02
RMM:   7    -0.413171357330E+03    0.13387E-05   -0.43037E-04  5754   0.185E-02    0.200E-02
RMM:   8    -0.413171348506E+03    0.88240E-05   -0.70581E-05  5166   0.865E-03    0.977E-03
RMM:   9    -0.413171341707E+03    0.67993E-05   -0.15027E-05  4139   0.432E-03    0.671E-03
RMM:  10    -0.413171338119E+03    0.35882E-05   -0.21321E-06  2590   0.213E-03    0.434E-03
RMM:  11    -0.413171334781E+03    0.33380E-05   -0.12399E-06  2507   0.177E-03    0.227E-03
RMM:  12    -0.413171329863E+03    0.49182E-05   -0.14707E-06  2537   0.187E-03    0.826E-04
RMM:  13    -0.413171328190E+03    0.16722E-05   -0.46674E-07  2305   0.121E-03    0.604E-04
RMM:  14    -0.413171328339E+03   -0.14891E-06   -0.21464E-07  1801   0.823E-04
   20 T=    62. E= -.41286649E+03 F= -.41317133E+03 E0= -.41314929E+03  EK= 0.30484E+00 SP= 0.00E+00 SK= 0.00E+00
       N       E                     dE             d eps       ncg     rms          rms(c)
RMM:   1    -0.413166822692E+03    0.45055E-02   -0.10299E+01  4294   0.751E-01    0.889E-01
RMM:   2    -0.413175327032E+03   -0.85043E-02   -0.12773E-01  4269   0.981E-02    0.650E-01
RMM:   3    -0.413172773882E+03    0.25531E-02   -0.10104E-02  4864   0.437E-02    0.129E-01
RMM:   4    -0.413200616992E+03   -0.27843E-01   -0.29007E-02  5139   0.141E-01    0.696E-01
RMM:   5    -0.413172292572E+03    0.28324E-01   -0.13963E-02  4800   0.115E-01    0.438E-02
RMM:   6    -0.413172456878E+03   -0.16431E-03   -0.23491E-03  5825   0.455E-02    0.276E-02
RMM:   7    -0.413172460799E+03   -0.39208E-05   -0.32399E-04  5730   0.166E-02    0.173E-02
RMM:   8    -0.413172455773E+03    0.50265E-05   -0.63286E-05  5003   0.816E-03    0.915E-03
RMM:   9    -0.413172451632E+03    0.41405E-05   -0.12974E-05  4017   0.413E-03    0.670E-03
RMM:  10    -0.413172450963E+03    0.66939E-06   -0.16785E-06  2558   0.203E-03
   21 T=    62. E= -.41286662E+03 F= -.41317245E+03 E0= -.41315046E+03  EK= 0.30583E+00 SP= 0.00E+00 SK= 0.00E+00
       N       E                     dE             d eps       ncg     rms          rms(c)
RMM:   1    -0.413168265712E+03    0.41859E-02   -0.10352E+01  4295   0.753E-01    0.910E-01
RMM:   2    -0.413176081029E+03   -0.78153E-02   -0.12638E-01  4309   0.986E-02    0.650E-01
RMM:   3    -0.413176729114E+03   -0.64808E-03   -0.12479E-02  5093   0.668E-02    0.266E-01
RMM:   4    -0.413208826791E+03   -0.32098E-01   -0.46449E-02  5107   0.181E-01    0.774E-01
RMM:   5    -0.413173428339E+03    0.35398E-01   -0.15314E-02  4743   0.128E-01    0.563E-02
RMM:   6    -0.413173539744E+03   -0.11140E-03   -0.26356E-03  5645   0.502E-02    0.287E-02
RMM:   7    -0.413173546519E+03   -0.67756E-05   -0.38705E-04  5982   0.170E-02    0.184E-02
RMM:   8    -0.413173540048E+03    0.64713E-05   -0.68792E-05  5194   0.879E-03    0.824E-03
RMM:   9    -0.413173532871E+03    0.71773E-05   -0.11452E-05  3640   0.393E-03    0.399E-03
RMM:  10    -0.413173530211E+03    0.26600E-05   -0.25049E-06  2616   0.222E-03    0.275E-03
RMM:  11    -0.413173526496E+03    0.37153E-05   -0.11177E-06  2501   0.171E-03    0.142E-03
RMM:  12    -0.413173522495E+03    0.40008E-05   -0.68268E-07  2442   0.136E-03    0.431E-04
RMM:  13    -0.413173520459E+03    0.20353E-05   -0.33632E-07  2022   0.969E-04    0.274E-04
RMM:  14    -0.413173518890E+03    0.15696E-05   -0.19158E-07  1529   0.773E-04    0.178E-04
RMM:  15    -0.413173516232E+03    0.26581E-05   -0.15302E-07  1365   0.724E-04    0.969E-05
RMM:  16    -0.413173513820E+03    0.24122E-05   -0.11913E-07  1325   0.685E-04    0.110E-04
RMM:  17    -0.413173511547E+03    0.22724E-05   -0.97006E-08  1315   0.646E-04    0.631E-05
RMM:  18    -0.413173509492E+03    0.20548E-05   -0.69955E-08  1110   0.594E-04    0.277E-05
RMM:  19    -0.413173508788E+03    0.70473E-06   -0.34468E-08   856   0.541E-04
   22 T=    62. E= -.41286667E+03 F= -.41317351E+03 E0= -.41315157E+03  EK= 0.30684E+00 SP= 0.00E+00 SK= 0.00E+00
       N       E                     dE             d eps       ncg     rms          rms(c)
RMM:   1    -0.413168887299E+03    0.46222E-02   -0.10320E+01  4293   0.749E-01    0.911E-01
RMM:   2    -0.413176656764E+03   -0.77695E-02   -0.12556E-01  4278   0.101E-01    0.643E-01
RMM:   3    -0.413174670910E+03    0.19859E-02   -0.10312E-02  4887   0.480E-02    0.151E-01
RMM:   4    -0.413209496799E+03   -0.34826E-01   -0.36779E-02  5142   0.159E-01    0.776E-01
RMM:   5    -0.413174019008E+03    0.35478E-01   -0.17418E-02  4792   0.129E-01    0.484E-02
RMM:   6    -0.413174215191E+03   -0.19618E-03   -0.28922E-03  5794   0.514E-02    0.312E-02
RMM:   7    -0.413174212889E+03    0.23018E-05   -0.40562E-04  5726   0.184E-02    0.196E-02
RMM:   8    -0.413174202915E+03    0.99746E-05   -0.72501E-05  5137   0.876E-03    0.102E-02
RMM:   9    -0.413174194847E+03    0.80682E-05   -0.14772E-05  4154   0.438E-03    0.709E-03
RMM:  10    -0.413174190034E+03    0.48130E-05   -0.21028E-06  2581   0.217E-03    0.454E-03
RMM:  11    -0.413174185552E+03    0.44815E-05   -0.13550E-06  2514   0.185E-03    0.238E-03
RMM:  12    -0.413174178944E+03    0.66082E-05   -0.15434E-06  2536   0.192E-03    0.886E-04
RMM:  13    -0.413174176997E+03    0.19465E-05   -0.48738E-07  2325   0.124E-03    0.629E-04
RMM:  14    -0.413174176983E+03    0.14705E-07   -0.22342E-07  1845   0.838E-04
   23 T=    63. E= -.41286646E+03 F= -.41317418E+03 E0= -.41315228E+03  EK= 0.30772E+00 SP= 0.00E+00 SK= 0.00E+00
       N       E                     dE             d eps       ncg     rms          rms(c)
RMM:   1    -0.413174374091E+03   -0.19709E-03   -0.10364E+01  4292   0.803E-01    0.892E-01
RMM:   2    -0.413178784820E+03   -0.44107E-02   -0.12810E-01  4276   0.104E-01    0.650E-01
RMM:   3    -0.413175999235E+03    0.27856E-02   -0.10159E-02  4751   0.465E-02    0.127E-01
RMM:   4    -0.413201004552E+03   -0.25005E-01   -0.25749E-02  5140   0.133E-01    0.660E-01
RMM:   5    -0.413175627926E+03    0.25377E-01   -0.12590E-02  4802   0.109E-01    0.427E-02
RMM:   6    -0.413175766909E+03   -0.13898E-03   -0.21040E-03  5822   0.429E-02    0.269E-02
RMM:   7    -0.413175770048E+03   -0.31382E-05   -0.28580E-04  5696   0.159E-02    0.160E-02
RMM:   8    -0.413175764640E+03    0.54071E-05   -0.60697E-05  4993   0.798E-03    0.911E-03
RMM:   9    -0.413175759717E+03    0.49236E-05   -0.12145E-05  3970   0.406E-03    0.669E-03
RMM:  10    -0.413175758014E+03    0.17031E-05   -0.15657E-06  2550   0.204E-03    0.430E-03
RMM:  11    -0.413175755643E+03    0.23704E-05   -0.16686E-06  2538   0.205E-03    0.198E-03
RMM:  12    -0.413175753033E+03    0.26103E-05   -0.11325E-06  2482   0.168E-03    0.704E-04
RMM:  13    -0.413175752478E+03    0.55540E-06   -0.37000E-07  2159   0.106E-03
   24 T=    63. E= -.41286677E+03 F= -.41317575E+03 E0= -.41315390E+03  EK= 0.30898E+00 SP= 0.00E+00 SK= 0.00E+00
       N       E                     dE             d eps       ncg     rms          rms(c)
RMM:   1    -0.413177469126E+03   -0.17161E-02   -0.10463E+01  4298   0.820E-01    0.906E-01
RMM:   2    -0.413179699546E+03   -0.22304E-02   -0.13823E-01  4278   0.108E-01    0.656E-01
RMM:   3    -0.413176929990E+03    0.27696E-02   -0.98555E-03  4709   0.433E-02    0.136E-01
RMM:   4    -0.413196911105E+03   -0.19981E-01   -0.20556E-02  5143   0.119E-01    0.591E-01
RMM:   5    -0.413176660598E+03    0.20251E-01   -0.10054E-02  4811   0.977E-02    0.411E-02
RMM:   6    -0.413176759295E+03   -0.98698E-04   -0.16836E-03  5830   0.380E-02    0.245E-02
RMM:   7    -0.413176757789E+03    0.15063E-05   -0.19035E-04  5615   0.133E-02    0.113E-02
RMM:   8    -0.413176752743E+03    0.50458E-05   -0.32952E-05  4772   0.588E-03    0.760E-03
RMM:   9    -0.413176749343E+03    0.34001E-05   -0.65268E-06  3181   0.292E-03    0.565E-03
RMM:  10    -0.413176747998E+03    0.13458E-05   -0.13475E-06  2524   0.188E-03    0.397E-03
RMM:  11    -0.413176743573E+03    0.44241E-05   -0.19551E-06  2562   0.223E-03    0.188E-03
RMM:  12    -0.413176740245E+03    0.33283E-05   -0.10036E-06  2464   0.165E-03    0.110E-03
RMM:  13    -0.413176739649E+03    0.59653E-06   -0.28627E-07  2148   0.987E-04
   25 T=    63. E= -.41286659E+03 F= -.41317674E+03 E0= -.41315494E+03  EK= 0.31015E+00 SP= 0.00E+00 SK= 0.00E+00
       N       E                     dE             d eps       ncg     rms          rms(c)
RMM:   1    -0.413173041833E+03    0.36984E-02   -0.10406E+01  4293   0.767E-01    0.920E-01
RMM:   2    -0.413180395565E+03   -0.73537E-02   -0.12671E-01  4276   0.995E-02    0.648E-01
RMM:   3    -0.413178311145E+03    0.20844E-02   -0.10321E-02  4702   0.441E-02    0.133E-01
RMM:   4    -0.413198306244E+03   -0.19995E-01   -0.20503E-02  5144   0.119E-01    0.592E-01
RMM:   5    -0.413178033642E+03    0.20273E-01   -0.10133E-02  4808   0.978E-02    0.423E-02
RMM:   6    -0.413178124971E+03   -0.91329E-04   -0.17094E-03  5820   0.384E-02    0.258E-02
RMM:   7    -0.413178116922E+03    0.80492E-05   -0.21240E-04  5664   0.143E-02    0.133E-02
RMM:   8    -0.413178109932E+03    0.69897E-05   -0.47052E-05  4958   0.703E-03    0.889E-03
RMM:   9    -0.413178103336E+03    0.65964E-05   -0.96371E-06  3733   0.364E-03    0.670E-03
RMM:  10    -0.413178098407E+03    0.49281E-05   -0.13746E-06  2527   0.204E-03    0.417E-03
RMM:  11    -0.413178091505E+03    0.69020E-05   -0.15569E-06  2532   0.200E-03    0.201E-03
RMM:  12    -0.413178083734E+03    0.77717E-05   -0.99739E-07  2458   0.163E-03    0.660E-04
RMM:  13    -0.413178082238E+03    0.14958E-05   -0.35435E-07  2132   0.104E-03    0.485E-04
RMM:  14    -0.413178081337E+03    0.90121E-06   -0.17253E-07  1617   0.765E-04
   26 T=    63. E= -.41286663E+03 F= -.41317808E+03 E0= -.41315633E+03  EK= 0.31145E+00 SP= 0.00E+00 SK= 0.00E+00
       N       E                     dE             d eps       ncg     rms          rms(c)
RMM:   1    -0.413174448886E+03    0.36334E-02   -0.10368E+01  4295   0.784E-01    0.897E-01
RMM:   2    -0.413182459262E+03   -0.80104E-02   -0.12831E-01  4278   0.102E-01    0.650E-01
RMM:   3    -0.413180163038E+03    0.22962E-02   -0.10294E-02  4781   0.461E-02    0.130E-01
RMM:   4    -0.413205232333E+03   -0.25069E-01   -0.25836E-02  5149   0.134E-01    0.661E-01
RMM:   5    -0.413179762083E+03    0.25470E-01   -0.12688E-02  4805   0.110E-01    0.437E-02
RMM:   6    -0.413179896896E+03   -0.13481E-03   -0.21359E-03  5817   0.436E-02    0.282E-02
RMM:   7    -0.413179895232E+03    0.16644E-05   -0.31119E-04  5688   0.166E-02    0.171E-02
RMM:   8    -0.413179887444E+03    0.77881E-05   -0.61176E-05  4990   0.817E-03    0.916E-03
RMM:   9    -0.413179881646E+03    0.57975E-05   -0.11882E-05  3912   0.403E-03    0.666E-03
RMM:  10    -0.413179878570E+03    0.30756E-05   -0.15955E-06  2550   0.205E-03    0.423E-03
RMM:  11    -0.413179874980E+03    0.35909E-05   -0.13855E-06  2522   0.189E-03    0.202E-03
RMM:  12    -0.413179870686E+03    0.42937E-05   -0.11771E-06  2490   0.171E-03    0.752E-04
RMM:  13    -0.413179869665E+03    0.10206E-05   -0.38945E-07  2209   0.109E-03    0.500E-04
RMM:  14    -0.413179869230E+03    0.43573E-06   -0.18620E-07  1675   0.780E-04
   27 T=    64. E= -.41286688E+03 F= -.41317987E+03 E0= -.41315817E+03  EK= 0.31299E+00 SP= 0.00E+00 SK= 0.00E+00
       N       E                     dE             d eps       ncg     rms          rms(c)
RMM:   1    -0.413176699716E+03    0.31699E-02   -0.10486E+01  4297   0.813E-01    0.907E-01
RMM:   2    -0.413183793334E+03   -0.70936E-02   -0.13208E-01  4274   0.107E-01    0.661E-01
RMM:   3    -0.413181246028E+03    0.25473E-02   -0.10595E-02  4703   0.465E-02    0.124E-01
RMM:   4    -0.413201184609E+03   -0.19939E-01   -0.20418E-02  5148   0.119E-01    0.591E-01
RMM:   5    -0.413180956940E+03    0.20228E-01   -0.10113E-02  4807   0.976E-02    0.412E-02
RMM:   6    -0.413181055351E+03   -0.98410E-04   -0.17026E-03  5831   0.385E-02    0.257E-02
RMM:   7    -0.413181054267E+03    0.10838E-05   -0.23283E-04  5685   0.148E-02    0.143E-02
RMM:   8    -0.413181049452E+03    0.48151E-05   -0.51492E-05  4952   0.741E-03    0.870E-03
RMM:   9    -0.413181044415E+03    0.50364E-05   -0.10140E-05  3800   0.379E-03    0.642E-03
RMM:  10    -0.413181042140E+03    0.22758E-05   -0.13863E-06  2526   0.201E-03    0.400E-03
RMM:  11    -0.413181039137E+03    0.30022E-05   -0.13777E-06  2515   0.190E-03    0.193E-03
RMM:  12    -0.413181035578E+03    0.35598E-05   -0.99377E-07  2457   0.159E-03    0.619E-04
RMM:  13    -0.413181034675E+03    0.90238E-06   -0.35029E-07  2123   0.102E-03
   28 T=    64. E= -.41286655E+03 F= -.41318103E+03 E0= -.41315939E+03  EK= 0.31448E+00 SP= 0.00E+00 SK= 0.00E+00
       N       E                     dE             d eps       ncg     rms          rms(c)
RMM:   1    -0.413178054301E+03    0.29813E-02   -0.10506E+01  4294   0.788E-01    0.928E-01
RMM:   2    -0.413185405491E+03   -0.73512E-02   -0.12896E-01  4273   0.105E-01    0.655E-01
RMM:   3    -0.413183111811E+03    0.22937E-02   -0.10797E-02  4494   0.483E-02    0.126E-01
RMM:   4    -0.413192414229E+03   -0.93024E-02   -0.97197E-03  5152   0.824E-02    0.407E-01
RMM:   5    -0.413183036102E+03    0.93781E-02   -0.47937E-03  4833   0.669E-02    0.384E-02
RMM:   6    -0.413183060722E+03   -0.24620E-04   -0.86808E-04  5808   0.275E-02    0.240E-02
RMM:   7    -0.413183054688E+03    0.60346E-05   -0.22445E-04  5414   0.149E-02    0.157E-02
RMM:   8    -0.413183037363E+03    0.17325E-04   -0.22719E-05  4389   0.602E-03    0.651E-03
RMM:   9    -0.413183033317E+03    0.40453E-05   -0.50060E-06  3008   0.276E-03    0.471E-03
RMM:  10    -0.413183027699E+03    0.56184E-05   -0.13836E-06  2493   0.202E-03    0.259E-03
RMM:  11    -0.413183020961E+03    0.67375E-05   -0.91511E-07  2476   0.163E-03    0.121E-03
RMM:  12    -0.413183015689E+03    0.52726E-05   -0.43591E-07  2264   0.115E-03    0.536E-04
RMM:  13    -0.413183013367E+03    0.23221E-05   -0.22285E-07  1823   0.833E-04    0.272E-04
RMM:  14    -0.413183010164E+03    0.32025E-05   -0.13165E-07  1446   0.712E-04    0.186E-04
RMM:  15    -0.413183004828E+03    0.53360E-05   -0.11260E-07  1388   0.693E-04    0.981E-05
RMM:  16    -0.413183003264E+03    0.15643E-05   -0.50688E-08   994   0.597E-04    0.714E-05
RMM:  17    -0.413182998414E+03    0.48499E-05   -0.80173E-08  1319   0.644E-04    0.486E-05
RMM:  18    -0.413182996842E+03    0.15716E-05   -0.34657E-08   915   0.549E-04    0.230E-05
RMM:  19    -0.413182996494E+03    0.34795E-06   -0.13768E-08   711   0.513E-04
   29 T=    64. E= -.41286671E+03 F= -.41318300E+03 E0= -.41316140E+03  EK= 0.31629E+00 SP= 0.00E+00 SK= 0.00E+00
       N       E                     dE             d eps       ncg     rms          rms(c)
RMM:   1    -0.413179518893E+03    0.34779E-02   -0.10454E+01  4288   0.799E-01    0.907E-01
RMM:   2    -0.413187831204E+03   -0.83123E-02   -0.13015E-01  4265   0.111E-01    0.654E-01
RMM:   3    -0.413184994160E+03    0.28370E-02   -0.10590E-02  4503   0.486E-02    0.121E-01
RMM:   4    -0.413194913988E+03   -0.99198E-02   -0.10310E-02  5161   0.855E-02    0.419E-01
RMM:   5    -0.413184912735E+03    0.10001E-01   -0.50893E-03  4825   0.690E-02    0.379E-02
RMM:   6    -0.413184946014E+03   -0.33279E-04   -0.89417E-04  5835   0.280E-02    0.237E-02
RMM:   7    -0.413184945516E+03    0.49757E-06   -0.21847E-04  5429   0.146E-02    0.156E-02
RMM:   8    -0.413184929402E+03    0.16114E-04   -0.26059E-05  4545   0.623E-03    0.670E-03
RMM:   9    -0.413184927186E+03    0.22166E-05   -0.49887E-06  2999   0.281E-03    0.492E-03
RMM:  10    -0.413184923705E+03    0.34811E-05   -0.13433E-06  2492   0.196E-03    0.273E-03
RMM:  11    -0.413184919930E+03    0.37749E-05   -0.88136E-07  2467   0.159E-03    0.135E-03
RMM:  12    -0.413184916430E+03    0.34995E-05   -0.52578E-07  2327   0.122E-03    0.663E-04
RMM:  13    -0.413184915034E+03    0.13963E-05   -0.23119E-07  1854   0.849E-04    0.294E-04
RMM:  14    -0.413184913252E+03    0.17821E-05   -0.12891E-07  1339   0.698E-04    0.182E-04
RMM:  15    -0.413184910418E+03    0.28336E-05   -0.92915E-08  1200   0.663E-04    0.774E-05
RMM:  16    -0.413184909069E+03    0.13492E-05   -0.50412E-08   943   0.610E-04    0.641E-05
RMM:  17    -0.413184907083E+03    0.19864E-05   -0.50207E-08  1026   0.610E-04    0.465E-05
RMM:  18    -0.413184904749E+03    0.23338E-05   -0.47561E-08  1074   0.599E-04    0.352E-05
RMM:  19    -0.413184904241E+03    0.50788E-06   -0.17007E-08   719   0.537E-04
   30 T=    65. E= -.41286685E+03 F= -.41318490E+03 E0= -.41316336E+03  EK= 0.31805E+00 SP= 0.00E+00 SK= 0.00E+00
       N       E                     dE             d eps       ncg     rms          rms(c)
RMM:   1    -0.413186312149E+03   -0.14074E-02   -0.10621E+01  4291   0.858E-01    0.908E-01
RMM:   2    -0.413190143432E+03   -0.38313E-02   -0.14435E-01  4281   0.124E-01    0.668E-01
RMM:   3    -0.413186465458E+03    0.36780E-02   -0.10527E-02  4340   0.528E-02    0.125E-01
RMM:   4    -0.413189447282E+03   -0.29818E-02   -0.36982E-03  5146   0.513E-02    0.229E-01
RMM:   5    -0.413186526587E+03    0.29207E-02   -0.14784E-03  4807   0.380E-02    0.351E-02
RMM:   6    -0.413186536378E+03   -0.97905E-05   -0.39011E-04  5668   0.194E-02    0.239E-02
RMM:   7    -0.413186523137E+03    0.13241E-04   -0.18485E-04  5121   0.134E-02    0.141E-02
RMM:   8    -0.413186515424E+03    0.77126E-05   -0.13679E-05  3925   0.483E-03    0.566E-03
RMM:   9    -0.413186514503E+03    0.92059E-06   -0.19555E-06  2536   0.201E-03
   31 T=    65. E= -.41286665E+03 F= -.41318651E+03 E0= -.41316502E+03  EK= 0.31987E+00 SP= 0.00E+00 SK= 0.00E+00
       N       E                     dE             d eps       ncg     rms          rms(c)
RMM:   1    -0.413187766018E+03   -0.12506E-02   -0.10656E+01  4291   0.848E-01    0.935E-01
RMM:   2    -0.413192069844E+03   -0.43038E-02   -0.13256E-01  4284   0.126E-01    0.663E-01
RMM:   3    -0.413189120657E+03    0.29492E-02   -0.11178E-02  4383   0.545E-02    0.122E-01
RMM:   4    -0.413191514839E+03   -0.23942E-02   -0.30988E-03  5137   0.483E-02    0.206E-01
RMM:   5    -0.413189184037E+03    0.23308E-02   -0.12102E-03  4815   0.346E-02    0.383E-02
RMM:   6    -0.413189181220E+03    0.28171E-05   -0.37729E-04  5534   0.197E-02    0.291E-02
RMM:   7    -0.413189153549E+03    0.27671E-04   -0.19343E-04  4990   0.131E-02    0.145E-02
RMM:   8    -0.413189147113E+03    0.64362E-05   -0.17749E-05  4292   0.499E-03    0.603E-03
RMM:   9    -0.413189144933E+03    0.21798E-05   -0.27850E-06  2547   0.207E-03    0.300E-03
RMM:  10    -0.413189137153E+03    0.77797E-05   -0.92839E-07  2477   0.156E-03    0.144E-03
RMM:  11    -0.413189131036E+03    0.61168E-05   -0.50530E-07  2248   0.112E-03    0.565E-04
RMM:  12    -0.413189126122E+03    0.49145E-05   -0.27362E-07  1903   0.889E-04    0.263E-04
RMM:  13    -0.413189122310E+03    0.38114E-05   -0.14779E-07  1336   0.717E-04    0.189E-04
RMM:  14    -0.413189116931E+03    0.53792E-05   -0.11095E-07  1199   0.674E-04    0.130E-04
RMM:  15    -0.413189111241E+03    0.56899E-05   -0.10915E-07  1372   0.674E-04    0.103E-04
RMM:  16    -0.413189108799E+03    0.24423E-05   -0.59457E-08  1053   0.581E-04    0.807E-05
RMM:  17    -0.413189105733E+03    0.30663E-05   -0.54056E-08  1021   0.569E-04    0.347E-05
RMM:  18    -0.413189104813E+03    0.91978E-06   -0.27872E-08   786   0.521E-04
   32 T=    66. E= -.41286695E+03 F= -.41318910E+03 E0= -.41316766E+03  EK= 0.32216E+00 SP= 0.00E+00 SK= 0.00E+00
       N       E                     dE             d eps       ncg     rms          rms(c)
RMM:   1    -0.413186592165E+03    0.25136E-02   -0.10589E+01  4287   0.847E-01    0.920E-01
RMM:   2    -0.413193953615E+03   -0.73615E-02   -0.13359E-01  4274   0.126E-01    0.659E-01
RMM:   3    -0.413191055047E+03    0.28986E-02   -0.10878E-02  4335   0.517E-02    0.123E-01
RMM:   4    -0.413193247792E+03   -0.21927E-02   -0.28392E-03  5146   0.457E-02    0.197E-01
RMM:   5    -0.413191150499E+03    0.20973E-02   -0.10826E-03  4812   0.329E-02    0.366E-02
RMM:   6    -0.413191149518E+03    0.98060E-06   -0.35508E-04  5579   0.192E-02    0.265E-02
RMM:   7    -0.413191125970E+03    0.23548E-04   -0.19235E-04  5035   0.133E-02    0.152E-02
RMM:   8    -0.413191118462E+03    0.75081E-05   -0.16727E-05  4219   0.501E-03    0.613E-03
RMM:   9    -0.413191116732E+03    0.17304E-05   -0.25661E-06  2520   0.205E-03    0.306E-03
RMM:  10    -0.413191111207E+03    0.55247E-05   -0.89360E-07  2442   0.153E-03    0.156E-03
RMM:  11    -0.413191107101E+03    0.41064E-05   -0.44996E-07  2152   0.107E-03    0.724E-04
RMM:  12    -0.413191102691E+03    0.44093E-05   -0.27321E-07  1864   0.880E-04    0.278E-04
RMM:  13    -0.413191099575E+03    0.31161E-05   -0.13321E-07  1229   0.696E-04    0.183E-04
RMM:  14    -0.413191096139E+03    0.34361E-05   -0.84142E-08   953   0.642E-04    0.137E-04
RMM:  15    -0.413191091801E+03    0.43385E-05   -0.80259E-08  1083   0.646E-04    0.632E-05
RMM:  16    -0.413191089857E+03    0.19436E-05   -0.49578E-08   889   0.588E-04    0.603E-05
RMM:  17    -0.413191087571E+03    0.22865E-05   -0.38213E-08   823   0.567E-04    0.257E-05
RMM:  18    -0.413191086249E+03    0.13221E-05   -0.23610E-08   693   0.538E-04    0.180E-05
RMM:  19    -0.413191085928E+03    0.32062E-06   -0.11616E-08   527   0.509E-04
   33 T=    66. E= -.41286676E+03 F= -.41319109E+03 E0= -.41316968E+03  EK= 0.32433E+00 SP= 0.00E+00 SK= 0.00E+00
       N       E                     dE             d eps       ncg     rms          rms(c)
RMM:   1    -0.413197908494E+03   -0.68222E-02   -0.10782E+01  4297   0.924E-01    0.912E-01
RMM:   2    -0.413196520147E+03    0.13883E-02   -0.15527E-01  4273   0.137E-01    0.674E-01
RMM:   3    -0.413193562833E+03    0.29573E-02   -0.10382E-02  4243   0.567E-02    0.139E-01
RMM:   4    -0.413194266001E+03   -0.70317E-03   -0.17750E-03  5050   0.341E-02    0.112E-01
RMM:   5    -0.413193622740E+03    0.64326E-03   -0.37089E-04  4749   0.195E-02    0.360E-02
RMM:   6    -0.413193624406E+03   -0.16662E-05   -0.24644E-04  5422   0.158E-02    0.251E-02
RMM:   7    -0.413193602618E+03    0.21788E-04   -0.17291E-04  4884   0.125E-02    0.150E-02
RMM:   8    -0.413193597550E+03    0.50681E-05   -0.14321E-05  3617   0.431E-03    0.479E-03
RMM:   9    -0.413193596944E+03    0.60620E-06   -0.21006E-06  2454   0.196E-03
   34 T=    67. E= -.41286678E+03 F= -.41319360E+03 E0= -.41317224E+03  EK= 0.32682E+00 SP= 0.00E+00 SK= 0.00E+00
       N       E                     dE             d eps       ncg     rms          rms(c)
RMM:   1    -0.413192916178E+03    0.68137E-03   -0.10781E+01  4302   0.888E-01    0.939E-01
RMM:   2    -0.413199239888E+03   -0.63237E-02   -0.13867E-01  4277   0.131E-01    0.672E-01
RMM:   3    -0.413196393841E+03    0.28460E-02   -0.11235E-02  4419   0.574E-02    0.126E-01
RMM:   4    -0.413201352667E+03   -0.49588E-02   -0.56300E-03  5180   0.637E-02    0.296E-01
RMM:   5    -0.413196433445E+03    0.49192E-02   -0.24929E-03  4827   0.490E-02    0.390E-02
RMM:   6    -0.413196442043E+03   -0.85981E-05   -0.55299E-04  5734   0.231E-02    0.288E-02
RMM:   7    -0.413196422195E+03    0.19848E-04   -0.22519E-04  5183   0.143E-02    0.148E-02
RMM:   8    -0.413196412479E+03    0.97153E-05   -0.18791E-05  4240   0.521E-03    0.614E-03
RMM:   9    -0.413196409775E+03    0.27049E-05   -0.26584E-06  2623   0.214E-03    0.354E-03
RMM:  10    -0.413196402431E+03    0.73436E-05   -0.10503E-06  2480   0.168E-03    0.177E-03
RMM:  11    -0.413196397022E+03    0.54088E-05   -0.53317E-07  2318   0.118E-03    0.922E-04
RMM:  12    -0.413196391467E+03    0.55552E-05   -0.33176E-07  2044   0.962E-04    0.333E-04
RMM:  13    -0.413196388187E+03    0.32796E-05   -0.16283E-07  1405   0.732E-04    0.210E-04
RMM:  14    -0.413196383765E+03    0.44221E-05   -0.10915E-07  1145   0.671E-04    0.156E-04
RMM:  15    -0.413196377638E+03    0.61267E-05   -0.10725E-07  1288   0.679E-04    0.960E-05
RMM:  16    -0.413196375588E+03    0.20506E-05   -0.53201E-08   952   0.593E-04    0.730E-05
RMM:  17    -0.413196371105E+03    0.44825E-05   -0.73496E-08  1317   0.633E-04    0.338E-05
RMM:  18    -0.413196370061E+03    0.10440E-05   -0.27085E-08   770   0.522E-04    0.211E-05
RMM:  19    -0.413196369647E+03    0.41454E-06   -0.14462E-08   639   0.504E-04
   35 T=    67. E= -.41286687E+03 F= -.41319637E+03 E0= -.41317506E+03  EK= 0.32950E+00 SP= 0.00E+00 SK= 0.00E+00
       N       E                     dE             d eps       ncg     rms          rms(c)
RMM:   1    -0.413195172396E+03    0.11977E-02   -0.10774E+01  4301   0.917E-01    0.937E-01
RMM:   2    -0.413201059774E+03   -0.58874E-02   -0.13830E-01  4250   0.133E-01    0.667E-01
RMM:   3    -0.413198500692E+03    0.25591E-02   -0.11360E-02  4477   0.592E-02    0.133E-01
RMM:   4    -0.413208264968E+03   -0.97643E-02   -0.10168E-02  5176   0.849E-02    0.417E-01
RMM:   5    -0.413198486209E+03    0.97788E-02   -0.50476E-03  4821   0.692E-02    0.404E-02
RMM:   6    -0.413198483882E+03    0.23274E-05   -0.90305E-04  5785   0.298E-02    0.279E-02
RMM:   7    -0.413198476117E+03    0.77647E-05   -0.26488E-04  5362   0.159E-02    0.162E-02
RMM:   8    -0.413198460884E+03    0.15233E-04   -0.27189E-05  4660   0.637E-03    0.699E-03
RMM:   9    -0.413198457974E+03    0.29105E-05   -0.47987E-06  2958   0.274E-03    0.447E-03
RMM:  10    -0.413198452262E+03    0.57114E-05   -0.12051E-06  2501   0.188E-03    0.239E-03
RMM:  11    -0.413198446107E+03    0.61552E-05   -0.81361E-07  2463   0.151E-03    0.120E-03
RMM:  12    -0.413198440275E+03    0.58318E-05   -0.47518E-07  2262   0.116E-03    0.583E-04
RMM:  13    -0.413198437608E+03    0.26669E-05   -0.21885E-07  1777   0.830E-04    0.290E-04
RMM:  14    -0.413198434624E+03    0.29839E-05   -0.11696E-07  1261   0.683E-04    0.166E-04
RMM:  15    -0.413198430039E+03    0.45854E-05   -0.81706E-08  1124   0.655E-04    0.786E-05
RMM:  16    -0.413198427250E+03    0.27889E-05   -0.56785E-08  1042   0.618E-04    0.698E-05
RMM:  17    -0.413198424705E+03    0.25447E-05   -0.41142E-08   949   0.591E-04    0.474E-05
RMM:  18    -0.413198420947E+03    0.37586E-05   -0.50103E-08  1167   0.613E-04    0.277E-05
RMM:  19    -0.413198420357E+03    0.58997E-06   -0.16614E-08   712   0.529E-04
   36 T=    68. E= -.41286650E+03 F= -.41319842E+03 E0= -.41317716E+03  EK= 0.33192E+00 SP= 0.00E+00 SK= 0.00E+00
       N       E                     dE             d eps       ncg     rms          rms(c)
RMM:   1    -0.413211922873E+03   -0.13502E-01   -0.10979E+01  4304   0.104E+00    0.921E-01
RMM:   2    -0.413204978053E+03    0.69448E-02   -0.16074E-01  4247   0.144E-01    0.679E-01
RMM:   3    -0.413201592700E+03    0.33854E-02   -0.10645E-02  4607   0.572E-02    0.155E-01
RMM:   4    -0.413223162647E+03   -0.21570E-01   -0.21962E-02  5161   0.125E-01    0.615E-01
RMM:   5    -0.413201428879E+03    0.21734E-01   -0.11001E-02  4806   0.102E-01    0.443E-02
RMM:   6    -0.413201445877E+03   -0.16998E-04   -0.18343E-03  5841   0.407E-02    0.282E-02
RMM:   7    -0.413201456804E+03   -0.10926E-04   -0.28484E-04  5599   0.160E-02    0.161E-02
RMM:   8    -0.413201444882E+03    0.11922E-04   -0.55547E-05  4986   0.797E-03    0.874E-03
RMM:   9    -0.413201443440E+03    0.14417E-05   -0.12825E-05  4066   0.427E-03    0.620E-03
RMM:  10    -0.413201440072E+03    0.33683E-05   -0.17053E-06  2574   0.218E-03    0.362E-03
RMM:  11    -0.413201437583E+03    0.24882E-05   -0.99462E-07  2497   0.161E-03    0.209E-03
RMM:  12    -0.413201432543E+03    0.50403E-05   -0.12471E-06  2498   0.178E-03    0.989E-04
RMM:  13    -0.413201430354E+03    0.21894E-05   -0.45310E-07  2253   0.117E-03    0.561E-04
RMM:  14    -0.413201429891E+03    0.46245E-06   -0.19936E-07  1692   0.797E-04
   37 T=    68. E= -.41286685E+03 F= -.41320143E+03 E0= -.41318021E+03  EK= 0.33458E+00 SP= 0.00E+00 SK= 0.00E+00
       N       E                     dE             d eps       ncg     rms          rms(c)
RMM:   1    -0.413213763196E+03   -0.12333E-01   -0.11069E+01  4307   0.106E+00    0.942E-01
RMM:   2    -0.413207568508E+03    0.61947E-02   -0.15884E-01  4253   0.134E-01    0.684E-01
RMM:   3    -0.413204152303E+03    0.34162E-02   -0.11081E-02  4758   0.544E-02    0.164E-01
RMM:   4    -0.413236005110E+03   -0.31853E-01   -0.32607E-02  5152   0.151E-01    0.744E-01
RMM:   5    -0.413203779774E+03    0.32225E-01   -0.16267E-02  4799   0.124E-01    0.492E-02
RMM:   6    -0.413203839197E+03   -0.59423E-04   -0.27098E-03  5839   0.489E-02    0.309E-02
RMM:   7    -0.413203849692E+03   -0.10494E-04   -0.35841E-04  5727   0.174E-02    0.168E-02
RMM:   8    -0.413203839464E+03    0.10227E-04   -0.65836E-05  5031   0.838E-03    0.101E-02
RMM:   9    -0.413203836431E+03    0.30333E-05   -0.19145E-05  4493   0.493E-03    0.691E-03
RMM:  10    -0.413203830694E+03    0.57364E-05   -0.25453E-06  2651   0.249E-03    0.411E-03
RMM:  11    -0.413203827128E+03    0.35661E-05   -0.11991E-06  2498   0.178E-03    0.251E-03
RMM:  12    -0.413203818709E+03    0.84197E-05   -0.15513E-06  2515   0.205E-03    0.116E-03
RMM:  13    -0.413203814766E+03    0.39423E-05   -0.58800E-07  2372   0.136E-03    0.770E-04
RMM:  14    -0.413203814567E+03    0.19961E-06   -0.23908E-07  1943   0.877E-04
   38 T=    69. E= -.41286674E+03 F= -.41320381E+03 E0= -.41318264E+03  EK= 0.33708E+00 SP= 0.00E+00 SK= 0.00E+00
       N       E                     dE             d eps       ncg     rms          rms(c)
RMM:   1    -0.413204114262E+03   -0.29950E-03   -0.10962E+01  4303   0.101E+00    0.954E-01
RMM:   2    -0.413209722914E+03   -0.56087E-02   -0.14405E-01  4259   0.124E-01    0.677E-01
RMM:   3    -0.413207088069E+03    0.26348E-02   -0.12068E-02  4964   0.565E-02    0.178E-01
RMM:   4    -0.413251901351E+03   -0.44813E-01   -0.48005E-02  5137   0.182E-01    0.878E-01
RMM:   5    -0.413206269196E+03    0.45632E-01   -0.22567E-02  4789   0.148E-01    0.557E-02
RMM:   6    -0.413206389622E+03   -0.12043E-03   -0.37983E-03  5830   0.576E-02    0.337E-02
RMM:   7    -0.413206398895E+03   -0.92729E-05   -0.43620E-04  5705   0.189E-02    0.177E-02
RMM:   8    -0.413206391068E+03    0.78268E-05   -0.58678E-05  4925   0.751E-03    0.954E-03
RMM:   9    -0.413206383836E+03    0.72323E-05   -0.18340E-05  4317   0.445E-03    0.693E-03
RMM:  10    -0.413206379194E+03    0.46414E-05   -0.47525E-06  2962   0.285E-03    0.433E-03
RMM:  11    -0.413206373321E+03    0.58733E-05   -0.15452E-06  2499   0.208E-03    0.258E-03
RMM:  12    -0.413206361180E+03    0.12141E-04   -0.15896E-06  2511   0.211E-03    0.981E-04
RMM:  13    -0.413206356955E+03    0.42247E-05   -0.54352E-07  2398   0.135E-03    0.762E-04
RMM:  14    -0.413206356954E+03    0.18372E-08   -0.23805E-07  1990   0.884E-04
   39 T=    69. E= -.41286670E+03 F= -.41320636E+03 E0= -.41318522E+03  EK= 0.33966E+00 SP= 0.00E+00 SK= 0.00E+00
       N       E                     dE             d eps       ncg     rms          rms(c)
RMM:   1    -0.413228523215E+03   -0.22166E-01   -0.11186E+01  4312   0.117E+00    0.932E-01
RMM:   2    -0.413213280112E+03    0.15243E-01   -0.16887E-01  4260   0.133E-01    0.684E-01
RMM:   3    -0.413210449045E+03    0.28311E-02   -0.11131E-02  5003   0.574E-02    0.212E-01
RMM:   4    -0.413264538716E+03   -0.54090E-01   -0.59288E-02  5133   0.202E-01    0.963E-01
RMM:   5    -0.413209161116E+03    0.55378E-01   -0.27243E-02  4785   0.163E-01    0.595E-02
RMM:   6    -0.413209325319E+03   -0.16420E-03   -0.45419E-03  5816   0.629E-02    0.347E-02
RMM:   7    -0.413209343097E+03   -0.17778E-04   -0.53824E-04  5817   0.205E-02    0.207E-02
RMM:   8    -0.413209344301E+03   -0.12036E-05   -0.11692E-04  5248   0.104E-02    0.135E-02
RMM:   9    -0.413209331225E+03    0.13076E-04   -0.28756E-05  4735   0.605E-03    0.702E-03
RMM:  10    -0.413209326689E+03    0.45354E-05   -0.50776E-06  2908   0.300E-03    0.436E-03
RMM:  11    -0.413209322996E+03    0.36936E-05   -0.16488E-06  2509   0.211E-03    0.259E-03
RMM:  12    -0.413209315735E+03    0.72608E-05   -0.14507E-06  2511   0.201E-03    0.880E-04
RMM:  13    -0.413209311840E+03    0.38946E-05   -0.62330E-07  2415   0.138E-03    0.634E-04
RMM:  14    -0.413209311138E+03    0.70190E-06   -0.27442E-07  2024   0.927E-04
   40 T=    70. E= -.41286694E+03 F= -.41320931E+03 E0= -.41318821E+03  EK= 0.34237E+00 SP= 0.00E+00 SK= 0.00E+00
       N       E                     dE             d eps       ncg     rms          rms(c)
RMM:   1    -0.413229257384E+03   -0.19946E-01   -0.11293E+01  4312   0.121E+00    0.945E-01
RMM:   2    -0.413215503032E+03    0.13754E-01   -0.17650E-01  4267   0.142E-01    0.695E-01
RMM:   3    -0.413213209065E+03    0.22940E-02   -0.11803E-02  5041   0.632E-02    0.244E-01
RMM:   4    -0.413269960944E+03   -0.56752E-01   -0.65495E-02  5126   0.213E-01    0.991E-01
RMM:   5    -0.413211265514E+03    0.58695E-01   -0.28399E-02  4773   0.167E-01    0.624E-02
RMM:   6    -0.413211430697E+03   -0.16518E-03   -0.46926E-03  5803   0.645E-02    0.352E-02
RMM:   7    -0.413211449563E+03   -0.18866E-04   -0.58186E-04  5850   0.212E-02    0.225E-02
RMM:   8    -0.413211450122E+03   -0.55840E-06   -0.13195E-04  5271   0.113E-02    0.140E-02
RMM:   9    -0.413211435954E+03    0.14167E-04   -0.27519E-05  4675   0.614E-03    0.635E-03
RMM:  10    -0.413211431750E+03    0.42044E-05   -0.59481E-06  3033   0.304E-03    0.402E-03
RMM:  11    -0.413211428292E+03    0.34585E-05   -0.15314E-06  2506   0.204E-03    0.235E-03
RMM:  12    -0.413211421944E+03    0.63479E-05   -0.11672E-06  2489   0.182E-03    0.793E-04
RMM:  13    -0.413211418391E+03    0.35530E-05   -0.54408E-07  2378   0.128E-03    0.492E-04
RMM:  14    -0.413211417236E+03    0.11547E-05   -0.25820E-07  1963   0.896E-04    0.339E-04
RMM:  15    -0.413211414747E+03    0.24887E-05   -0.14108E-07  1439   0.721E-04    0.152E-04
RMM:  16    -0.413211411080E+03    0.36676E-05   -0.10192E-07  1212   0.673E-04    0.128E-04
RMM:  17    -0.413211409101E+03    0.19787E-05   -0.62959E-08  1059   0.627E-04    0.813E-05
RMM:  18    -0.413211406224E+03    0.28772E-05   -0.58204E-08  1138   0.630E-04    0.597E-05
RMM:  19    -0.413211404055E+03    0.21685E-05   -0.40580E-08  1038   0.599E-04    0.368E-05
RMM:  20    -0.413211403308E+03    0.74695E-06   -0.24078E-08   866   0.560E-04
   41 T=    70. E= -.41286666E+03 F= -.41321140E+03 E0= -.41319033E+03  EK= 0.34474E+00 SP= 0.00E+00 SK= 0.00E+00
       N       E                     dE             d eps       ncg     rms          rms(c)
RMM:   1    -0.413221321601E+03   -0.99175E-02   -0.11208E+01  4311   0.120E+00    0.968E-01
RMM:   2    -0.413217467623E+03    0.38540E-02   -0.15005E-01  4294   0.134E-01    0.687E-01
RMM:   3    -0.413217442790E+03    0.24833E-04   -0.14745E-02  5069   0.752E-02    0.285E-01
RMM:   4    -0.413255631034E+03   -0.38188E-01   -0.53417E-02  5094   0.194E-01    0.841E-01
RMM:   5    -0.413213962658E+03    0.41668E-01   -0.18634E-02  4745   0.140E-01    0.595E-02
RMM:   6    -0.413214037697E+03   -0.75039E-04   -0.32573E-03  5761   0.541E-02    0.345E-02
RMM:   7    -0.413214042779E+03   -0.50814E-05   -0.45485E-04  5760   0.195E-02    0.220E-02
RMM:   8    -0.413214039043E+03    0.37356E-05   -0.12217E-04  5213   0.112E-02    0.126E-02
RMM:   9    -0.413214024734E+03    0.14309E-04   -0.20234E-05  4455   0.559E-03    0.528E-03
RMM:  10    -0.413214019426E+03    0.53082E-05   -0.43548E-06  2860   0.268E-03    0.338E-03
RMM:  11    -0.413214014225E+03    0.52006E-05   -0.12067E-06  2490   0.186E-03    0.184E-03
RMM:  12    -0.413214006074E+03    0.81506E-05   -0.81028E-07  2463   0.156E-03    0.687E-04
RMM:  13    -0.413214001484E+03    0.45903E-05   -0.39007E-07  2215   0.110E-03    0.349E-04
RMM:  14    -0.413213999557E+03    0.19275E-05   -0.20346E-07  1733   0.809E-04    0.233E-04
RMM:  15    -0.413213994899E+03    0.46579E-05   -0.12645E-07  1348   0.711E-04    0.123E-04
RMM:  16    -0.413213991641E+03    0.32577E-05   -0.82224E-08  1162   0.653E-04    0.103E-04
RMM:  17    -0.413213988460E+03    0.31810E-05   -0.64638E-08  1143   0.634E-04    0.714E-05
RMM:  18    -0.413213985588E+03    0.28724E-05   -0.52158E-08  1145   0.616E-04    0.479E-05
RMM:  19    -0.413213983211E+03    0.23770E-05   -0.40225E-08  1065   0.588E-04    0.341E-05
RMM:  20    -0.413213982674E+03    0.53634E-06   -0.20028E-08   794   0.540E-04
   42 T=    71. E= -.41286687E+03 F= -.41321398E+03 E0= -.41319294E+03  EK= 0.34711E+00 SP= 0.00E+00 SK= 0.00E+00
       N       E                     dE             d eps       ncg     rms          rms(c)
RMM:   1    -0.413237042186E+03   -0.23059E-01   -0.11295E+01  4311   0.134E+00    0.944E-01
RMM:   2    -0.413219868689E+03    0.17173E-01   -0.17008E-01  4296   0.149E-01    0.689E-01
RMM:   3    -0.413220355604E+03   -0.48691E-03   -0.14259E-02  5085   0.789E-02    0.319E-01
RMM:   4    -0.413258690551E+03   -0.38335E-01   -0.56267E-02  5091   0.200E-01    0.850E-01
RMM:   5    -0.413216141849E+03    0.42549E-01   -0.18896E-02  4733   0.142E-01    0.611E-02
RMM:   6    -0.413216217829E+03   -0.75980E-04   -0.32985E-03  5755   0.545E-02    0.343E-02
RMM:   7    -0.413216224461E+03   -0.66320E-05   -0.46952E-04  5794   0.195E-02    0.227E-02
RMM:   8    -0.413216221483E+03    0.29784E-05   -0.12245E-04  5197   0.113E-02    0.122E-02
RMM:   9    -0.413216208846E+03    0.12637E-04   -0.21386E-05  4502   0.571E-03    0.482E-03
RMM:  10    -0.413216205437E+03    0.34088E-05   -0.45043E-06  2860   0.266E-03    0.310E-03
RMM:  11    -0.413216201472E+03    0.39646E-05   -0.12879E-06  2501   0.187E-03    0.168E-03
RMM:  12    -0.413216196086E+03    0.53867E-05   -0.74060E-07  2449   0.147E-03    0.625E-04
RMM:  13    -0.413216192975E+03    0.31111E-05   -0.36597E-07  2114   0.103E-03    0.295E-04
RMM:  14    -0.413216190936E+03    0.20389E-05   -0.19577E-07  1601   0.791E-04    0.190E-04
RMM:  15    -0.413216186943E+03    0.39931E-05   -0.13639E-07  1320   0.714E-04    0.110E-04
RMM:  16    -0.413216184945E+03    0.19975E-05   -0.82582E-08  1109   0.654E-04    0.758E-05
RMM:  17    -0.413216182405E+03    0.25402E-05   -0.70396E-08  1179   0.646E-04    0.527E-05
RMM:  18    -0.413216180008E+03    0.23966E-05   -0.54396E-08  1133   0.620E-04    0.363E-05
RMM:  19    -0.413216178562E+03    0.14465E-05   -0.34250E-08   941   0.574E-04    0.220E-05
RMM:  20    -0.413216177967E+03    0.59528E-06   -0.19245E-08   775   0.547E-04
   43 T=    71. E= -.41286702E+03 F= -.41321618E+03 E0= -.41319517E+03  EK= 0.34916E+00 SP= 0.00E+00 SK= 0.00E+00
       N       E                     dE             d eps       ncg     rms          rms(c)
RMM:   1    -0.413234424497E+03   -0.18246E-01   -0.11362E+01  4312   0.137E+00    0.949E-01
RMM:   2    -0.413221479393E+03    0.12945E-01   -0.16922E-01  4297   0.162E-01    0.702E-01
RMM:   3    -0.413222815843E+03   -0.13364E-02   -0.15990E-02  5070   0.886E-02    0.345E-01
RMM:   4    -0.413257756866E+03   -0.34941E-01   -0.56223E-02  5084   0.201E-01    0.827E-01
RMM:   5    -0.413217487644E+03    0.40269E-01   -0.17274E-02  4720   0.138E-01    0.607E-02
RMM:   6    -0.413217541942E+03   -0.54298E-04   -0.30793E-03  5743   0.527E-02    0.337E-02
RMM:   7    -0.413217545953E+03   -0.40111E-05   -0.43417E-04  5784   0.191E-02    0.224E-02
RMM:   8    -0.413217543317E+03    0.26355E-05   -0.11460E-04  5174   0.110E-02    0.116E-02
RMM:   9    -0.413217532422E+03    0.10895E-04   -0.20418E-05  4442   0.561E-03    0.452E-03
RMM:  10    -0.413217529998E+03    0.24236E-05   -0.41007E-06  2811   0.258E-03    0.284E-03
RMM:  11    -0.413217526947E+03    0.30514E-05   -0.13298E-06  2505   0.186E-03    0.153E-03
RMM:  12    -0.413217523073E+03    0.38736E-05   -0.73380E-07  2438   0.143E-03    0.593E-04
RMM:  13    -0.413217520708E+03    0.23652E-05   -0.36249E-07  2023   0.100E-03    0.276E-04
RMM:  14    -0.413217518867E+03    0.18413E-05   -0.20373E-07  1547   0.788E-04    0.171E-04
RMM:  15    -0.413217515561E+03    0.33056E-05   -0.15384E-07  1326   0.724E-04    0.102E-04
RMM:  16    -0.413217513935E+03    0.16260E-05   -0.91992E-08  1125   0.660E-04    0.718E-05
RMM:  17    -0.413217511618E+03    0.23173E-05   -0.78890E-08  1193   0.654E-04    0.456E-05
RMM:  18    -0.413217509757E+03    0.18605E-05   -0.55670E-08  1069   0.614E-04    0.350E-05
RMM:  19    -0.413217508555E+03    0.12025E-05   -0.35814E-08   922   0.578E-04    0.215E-05
RMM:  20    -0.413217508068E+03    0.48691E-06   -0.20429E-08   779   0.552E-04
   44 T=    71. E= -.41286680E+03 F= -.41321751E+03 E0= -.41319652E+03  EK= 0.35071E+00 SP= 0.00E+00 SK= 0.00E+00
       N       E                     dE             d eps       ncg     rms          rms(c)
RMM:   1    -0.413248960867E+03   -0.31452E-01   -0.11481E+01  4311   0.152E+00    0.976E-01
RMM:   2    -0.413222390983E+03    0.26570E-01   -0.16958E-01  4330   0.169E-01    0.697E-01
RMM:   3    -0.413228331339E+03   -0.59404E-02   -0.19629E-02  5120   0.105E-01    0.439E-01
RMM:   4    -0.413244028925E+03   -0.15698E-01   -0.45327E-02  5050   0.183E-01    0.659E-01
RMM:   5    -0.413219180099E+03    0.24849E-01   -0.95390E-03  4655   0.111E-01    0.576E-02
RMM:   6    -0.413219161695E+03    0.18405E-04   -0.19390E-03  5601   0.422E-02    0.329E-02
RMM:   7    -0.413219158469E+03    0.32256E-05   -0.32209E-04  5632   0.173E-02    0.218E-02
RMM:   8    -0.413219149399E+03    0.90703E-05   -0.11327E-04  5087   0.111E-02    0.104E-02
RMM:   9    -0.413219136145E+03    0.13253E-04   -0.15961E-05  4291   0.543E-03    0.424E-03
RMM:  10    -0.413219132210E+03    0.39356E-05   -0.29052E-06  2710   0.231E-03    0.247E-03
RMM:  11    -0.413219126082E+03    0.61277E-05   -0.11581E-06  2482   0.178E-03    0.134E-03
RMM:  12    -0.413219119878E+03    0.62044E-05   -0.59653E-07  2410   0.134E-03    0.617E-04
RMM:  13    -0.413219116274E+03    0.36039E-05   -0.28372E-07  1880   0.917E-04    0.292E-04
RMM:  14    -0.413219112910E+03    0.33638E-05   -0.16110E-07  1397   0.730E-04    0.161E-04
RMM:  15    -0.413219107857E+03    0.50529E-05   -0.12440E-07  1274   0.696E-04    0.118E-04
RMM:  16    -0.413219105286E+03    0.25709E-05   -0.79624E-08  1120   0.642E-04    0.933E-05
RMM:  17    -0.413219100805E+03    0.44815E-05   -0.79499E-08  1270   0.650E-04    0.638E-05
RMM:  18    -0.413219098614E+03    0.21911E-05   -0.47177E-08  1047   0.585E-04    0.417E-05
RMM:  19    -0.413219097471E+03    0.11426E-05   -0.29772E-08   854   0.541E-04    0.241E-05
RMM:  20    -0.413219096935E+03    0.53656E-06   -0.19400E-08   744   0.524E-04
   45 T=    72. E= -.41286712E+03 F= -.41321910E+03 E0= -.41319813E+03  EK= 0.35198E+00 SP= 0.00E+00 SK= 0.00E+00
       N       E                     dE             d eps       ncg     rms          rms(c)
RMM:   1    -0.413260649622E+03   -0.41552E-01   -0.11485E+01  4311   0.163E+00    0.956E-01
RMM:   2    -0.413222622441E+03    0.38027E-01   -0.18328E-01  4355   0.184E-01    0.693E-01
RMM:   3    -0.413230794309E+03   -0.81719E-02   -0.20547E-02  5121   0.113E-01    0.492E-01
RMM:   4    -0.413240568415E+03   -0.97741E-02   -0.43839E-02  5035   0.182E-01    0.615E-01
RMM:   5    -0.413219381871E+03    0.21187E-01   -0.80869E-03  4617   0.105E-01    0.573E-02
RMM:   6    -0.413219337972E+03    0.43899E-04   -0.15948E-03  5478   0.391E-02    0.321E-02
RMM:   7    -0.413219333527E+03    0.44445E-05   -0.27664E-04  5626   0.162E-02    0.218E-02
RMM:   8    -0.413219325517E+03    0.80104E-05   -0.11961E-04  5078   0.113E-02    0.102E-02
RMM:   9    -0.413219312018E+03    0.13500E-04   -0.16641E-05  4326   0.560E-03    0.412E-03
RMM:  10    -0.413219308860E+03    0.31576E-05   -0.29098E-06  2711   0.225E-03    0.237E-03
RMM:  11    -0.413219303054E+03    0.58056E-05   -0.12948E-06  2497   0.182E-03    0.132E-03
RMM:  12    -0.413219298421E+03    0.46337E-05   -0.57229E-07  2429   0.133E-03    0.664E-04
RMM:  13    -0.413219295094E+03    0.33267E-05   -0.27301E-07  1810   0.898E-04    0.320E-04
RMM:  14    -0.413219291739E+03    0.33548E-05   -0.15540E-07  1343   0.719E-04    0.170E-04
RMM:  15    -0.413219287872E+03    0.38667E-05   -0.11679E-07  1231   0.679E-04    0.116E-04
RMM:  16    -0.413219285351E+03    0.25211E-05   -0.79459E-08  1130   0.636E-04    0.990E-05
RMM:  17    -0.413219281821E+03    0.35301E-05   -0.72605E-08  1237   0.638E-04    0.593E-05
RMM:  18    -0.413219279484E+03    0.23371E-05   -0.51241E-08  1094   0.587E-04    0.481E-05
RMM:  19    -0.413219278740E+03    0.74425E-06   -0.24358E-08   784   0.525E-04
   46 T=    72. E= -.41286697E+03 F= -.41321928E+03 E0= -.41319834E+03  EK= 0.35231E+00 SP= 0.00E+00 SK= 0.00E+00
       N       E                     dE             d eps       ncg     rms          rms(c)
RMM:   1    -0.413246537832E+03   -0.27258E-01   -0.11370E+01  4311   0.164E+00    0.944E-01
RMM:   2    -0.413222701565E+03    0.23836E-01   -0.19364E-01  4357   0.198E-01    0.707E-01
RMM:   3    -0.413231372060E+03   -0.86705E-02   -0.21037E-02  5108   0.120E-01    0.515E-01
RMM:   4    -0.413241543087E+03   -0.10171E-01   -0.46831E-02  5025   0.188E-01    0.635E-01
RMM:   5    -0.413218899779E+03    0.22643E-01   -0.87293E-03  4611   0.110E-01    0.595E-02
RMM:   6    -0.413218851229E+03    0.48550E-04   -0.16653E-03  5469   0.401E-02    0.323E-02
RMM:   7    -0.413218846491E+03    0.47379E-05   -0.28335E-04  5670   0.163E-02    0.226E-02
RMM:   8    -0.413218836806E+03    0.96851E-05   -0.12305E-04  5115   0.114E-02    0.104E-02
RMM:   9    -0.413218824702E+03    0.12104E-04   -0.18650E-05  4395   0.580E-03    0.411E-03
RMM:  10    -0.413218822615E+03    0.20873E-05   -0.31030E-06  2733   0.229E-03    0.238E-03
RMM:  11    -0.413218818734E+03    0.38806E-05   -0.14545E-06  2521   0.189E-03    0.138E-03
RMM:  12    -0.413218815783E+03    0.29509E-05   -0.59555E-07  2439   0.136E-03    0.707E-04
RMM:  13    -0.413218813245E+03    0.25381E-05   -0.30664E-07  1834   0.929E-04    0.333E-04
RMM:  14    -0.413218810765E+03    0.24795E-05   -0.17960E-07  1405   0.747E-04    0.176E-04
RMM:  15    -0.413218808158E+03    0.26073E-05   -0.13499E-07  1256   0.691E-04    0.112E-04
RMM:  16    -0.413218806206E+03    0.19519E-05   -0.90125E-08  1147   0.644E-04    0.944E-05
RMM:  17    -0.413218803625E+03    0.25812E-05   -0.85994E-08  1260   0.646E-04    0.557E-05
RMM:  18    -0.413218802015E+03    0.16099E-05   -0.48895E-08   976   0.582E-04    0.449E-05
RMM:  19    -0.413218801443E+03    0.57252E-06   -0.27664E-08   804   0.542E-04
   47 T=    72. E= -.41286692E+03 F= -.41321880E+03 E0= -.41319787E+03  EK= 0.35188E+00 SP= 0.00E+00 SK= 0.00E+00
       N       E                     dE             d eps       ncg     rms          rms(c)
RMM:   1    -0.413249375112E+03   -0.30573E-01   -0.11335E+01  4306   0.177E+00    0.970E-01
RMM:   2    -0.413221162903E+03    0.28212E-01   -0.18263E-01  4412   0.204E-01    0.701E-01
RMM:   3    -0.413237451076E+03   -0.16288E-01   -0.28221E-02  5137   0.142E-01    0.623E-01
RMM:   4    -0.413231000425E+03    0.64507E-02   -0.41806E-02  4985   0.182E-01    0.496E-01
RMM:   5    -0.413217781463E+03    0.13219E-01   -0.49476E-03  4530   0.917E-02    0.573E-02
RMM:   6    -0.413217684206E+03    0.97258E-04   -0.77842E-04  4958   0.306E-02    0.303E-02
RMM:   7    -0.413217671302E+03    0.12903E-04   -0.16630E-04  5781   0.126E-02    0.129E-02
RMM:   8    -0.413217670229E+03    0.10728E-05   -0.71492E-05  5250   0.879E-03    0.978E-03
RMM:   9    -0.413217658936E+03    0.11294E-04   -0.18541E-05  4447   0.514E-03    0.459E-03
RMM:  10    -0.413217656616E+03    0.23193E-05   -0.22178E-06  2570   0.236E-03    0.236E-03
RMM:  11    -0.413217650782E+03    0.58348E-05   -0.18124E-06  2519   0.209E-03    0.148E-03
RMM:  12    -0.413217646626E+03    0.41553E-05   -0.64535E-07  2383   0.145E-03    0.883E-04
RMM:  13    -0.413217642719E+03    0.39070E-05   -0.28924E-07  1869   0.964E-04    0.479E-04
RMM:  14    -0.413217638089E+03    0.46302E-05   -0.18867E-07  1710   0.776E-04    0.344E-04
RMM:  15    -0.413217633974E+03    0.41155E-05   -0.10514E-07  1047   0.611E-04    0.167E-04
RMM:  16    -0.413217631592E+03    0.23812E-05   -0.69261E-08   971   0.581E-04    0.122E-04
RMM:  17    -0.413217629013E+03    0.25797E-05   -0.58464E-08   978   0.581E-04    0.879E-05
RMM:  18    -0.413217626478E+03    0.25342E-05   -0.48959E-08   973   0.577E-04    0.570E-05
RMM:  19    -0.413217625487E+03    0.99169E-06   -0.24919E-08   728   0.526E-04
   48 T=    71. E= -.41286715E+03 F= -.41321763E+03 E0= -.41319671E+03  EK= 0.35047E+00 SP= 0.00E+00 SK= 0.00E+00
       N       E                     dE             d eps       ncg     rms          rms(c)
RMM:   1    -0.413250636526E+03   -0.33010E-01   -0.11183E+01  4305   0.190E+00    0.960E-01
RMM:   2    -0.413217746059E+03    0.32890E-01   -0.18291E-01  4462   0.216E-01    0.691E-01
RMM:   3    -0.413240249826E+03   -0.22504E-01   -0.33321E-02  5149   0.158E-01    0.706E-01
RMM:   4    -0.413223641159E+03    0.16609E-01   -0.40569E-02  4963   0.182E-01    0.425E-01
RMM:   5    -0.413214490705E+03    0.91505E-02   -0.43698E-03  4574   0.884E-02    0.624E-02
RMM:   6    -0.413214329687E+03    0.16102E-03   -0.48875E-04  4719   0.288E-02    0.325E-02
RMM:   7    -0.413214337468E+03   -0.77810E-05   -0.29170E-04  5784   0.176E-02    0.229E-02
RMM:   8    -0.413214305474E+03    0.31994E-04   -0.10459E-04  5056   0.116E-02    0.918E-03
RMM:   9    -0.413214298224E+03    0.72504E-05   -0.17363E-05  4647   0.550E-03    0.479E-03
RMM:  10    -0.413214294006E+03    0.42175E-05   -0.22123E-06  2614   0.237E-03    0.252E-03
RMM:  11    -0.413214287989E+03    0.60168E-05   -0.14180E-06  2502   0.193E-03    0.176E-03
RMM:  12    -0.413214284372E+03    0.36172E-05   -0.44035E-07  2395   0.124E-03    0.919E-04
RMM:  13    -0.413214279573E+03    0.47989E-05   -0.27815E-07  1950   0.898E-04    0.459E-04
RMM:  14    -0.413214274260E+03    0.53137E-05   -0.22870E-07  1811   0.805E-04    0.401E-04
RMM:  15    -0.413214269896E+03    0.43641E-05   -0.12301E-07  1145   0.643E-04    0.155E-04
RMM:  16    -0.413214267478E+03    0.24172E-05   -0.76149E-08  1090   0.606E-04    0.976E-05
RMM:  17    -0.413214264454E+03    0.30247E-05   -0.70316E-08  1147   0.605E-04    0.760E-05
RMM:  18    -0.413214263121E+03    0.13332E-05   -0.39037E-08   925   0.550E-04    0.663E-05
RMM:  19    -0.413214261519E+03    0.16014E-05   -0.36218E-08   977   0.549E-04    0.426E-05
RMM:  20    -0.413214260665E+03    0.85371E-06   -0.25140E-08   831   0.515E-04
   49 T=    71. E= -.41286682E+03 F= -.41321426E+03 E0= -.41319335E+03  EK= 0.34744E+00 SP= 0.00E+00 SK= 0.00E+00
       N       E                     dE             d eps       ncg     rms          rms(c)
RMM:   1    -0.413240350638E+03   -0.26089E-01   -0.10986E+01  4305   0.196E+00    0.934E-01
RMM:   2    -0.413214168076E+03    0.26183E-01   -0.18440E-01  4491   0.224E-01    0.696E-01
RMM:   3    -0.413236958871E+03   -0.22791E-01   -0.33710E-02  5157   0.162E-01    0.720E-01
RMM:   4    -0.413219827831E+03    0.17131E-01   -0.42024E-02  4962   0.186E-01    0.431E-01
RMM:   5    -0.413210289166E+03    0.95387E-02   -0.47792E-03  4603   0.922E-02    0.656E-02
RMM:   6    -0.413210095867E+03    0.19330E-03   -0.51455E-04  4709   0.303E-02    0.329E-02
RMM:   7    -0.413210102769E+03   -0.69022E-05   -0.30749E-04  5776   0.182E-02    0.236E-02
RMM:   8    -0.413210070300E+03    0.32469E-04   -0.10380E-04  5085   0.115E-02    0.985E-03
RMM:   9    -0.413210064516E+03    0.57840E-05   -0.21092E-05  4985   0.589E-03    0.503E-03
RMM:  10    -0.413210061109E+03    0.34070E-05   -0.27471E-06  2662   0.253E-03    0.266E-03
RMM:  11    -0.413210057054E+03    0.40548E-05   -0.16015E-06  2506   0.206E-03    0.192E-03
[...]
RMM:   9    -0.413801078466E+03   -0.30740E-05   -0.36249E-04  4606   0.244E-02    0.185E-02
RMM:  10    -0.413801096950E+03   -0.18484E-04   -0.10896E-04  5671   0.124E-02    0.112E-02
RMM:  11    -0.413801109082E+03   -0.12131E-04   -0.29929E-05  5000   0.683E-03    0.781E-03
RMM:  12    -0.413801121253E+03   -0.12171E-04   -0.10895E-05  3801   0.464E-03    0.448E-03
RMM:  13    -0.413801125957E+03   -0.47043E-05   -0.41102E-06  2884   0.271E-03    0.188E-03
RMM:  14    -0.413801130649E+03   -0.46920E-05   -0.25286E-06  2712   0.225E-03    0.117E-03
RMM:  15    -0.413801132800E+03   -0.21517E-05   -0.17606E-06  2576   0.177E-03    0.700E-04
RMM:  16    -0.413801133286E+03   -0.48557E-06   -0.13884E-06  2371   0.136E-03
  139 T=   187. E= -.41288210E+03 F= -.41380113E+03 E0= -.41377843E+03  EK= 0.91904E+00 SP= 0.00E+00 SK= 0.00E+00
       N       E                     dE             d eps       ncg     rms          rms(c)
RMM:   1    -0.413760885202E+03    0.40248E-01   -0.17677E+01  4296   0.784E+00    0.100E+00
RMM:   2    -0.413710939047E+03    0.49946E-01   -0.48935E-01  5401   0.815E-01    0.109E+00
RMM:   3    -0.413698753044E+03    0.12186E-01   -0.91381E-02  5635   0.330E-01    0.974E-01
RMM:   4    -0.413679935029E+03    0.18818E-01   -0.33634E-02  5257   0.222E-01    0.556E-01
RMM:   5    -0.413679948119E+03   -0.13091E-04   -0.32168E-02  4795   0.227E-01    0.291E-01
RMM:   6    -0.413678169280E+03    0.17788E-02   -0.20492E-02  5070   0.168E-01    0.156E-01
RMM:   7    -0.413676966872E+03    0.12024E-02   -0.27516E-03  4844   0.752E-02    0.836E-02
RMM:   8    -0.413676889179E+03    0.77693E-04   -0.85432E-04  5436   0.364E-02    0.489E-02
RMM:   9    -0.413676890491E+03   -0.13114E-05   -0.45752E-04  4615   0.262E-02    0.165E-02
RMM:  10    -0.413676907671E+03   -0.17180E-04   -0.10035E-04  5673   0.120E-02    0.124E-02
RMM:  11    -0.413676918015E+03   -0.10344E-04   -0.28577E-05  4711   0.692E-03    0.727E-03
RMM:  12    -0.413676929829E+03   -0.11814E-04   -0.10601E-05  3686   0.446E-03    0.411E-03
RMM:  13    -0.413676935744E+03   -0.59141E-05   -0.45561E-06  2937   0.291E-03    0.179E-03
RMM:  14    -0.413676940168E+03   -0.44245E-05   -0.29045E-06  2740   0.234E-03    0.120E-03
RMM:  15    -0.413676941739E+03   -0.15704E-05   -0.20766E-06  2589   0.180E-03    0.791E-04
RMM:  16    -0.413676941148E+03    0.59062E-06   -0.19080E-06  2502   0.156E-03
  140 T=   164. E= -.41287191E+03 F= -.41367694E+03 E0= -.41365442E+03  EK= 0.80503E+00 SP= 0.00E+00 SK= 0.00E+00
       N       E                     dE             d eps       ncg     rms          rms(c)
RMM:   1    -0.413639697991E+03    0.37244E-01   -0.14647E+01  4288   0.708E+00    0.800E-01
RMM:   2    -0.413585631039E+03    0.54067E-01   -0.38644E-01  5401   0.701E-01    0.735E-01
RMM:   3    -0.413603807079E+03   -0.18176E-01   -0.65544E-02  5708   0.270E-01    0.842E-01
RMM:   4    -0.413583059267E+03    0.20748E-01   -0.24731E-02  5168   0.179E-01    0.457E-01
RMM:   5    -0.413580814640E+03    0.22446E-02   -0.18702E-02  4480   0.181E-01    0.178E-01
RMM:   6    -0.413580483811E+03    0.33083E-03   -0.65904E-03  5194   0.100E-01    0.982E-02
RMM:   7    -0.413580134300E+03    0.34951E-03   -0.15117E-03  5362   0.491E-02    0.681E-02
RMM:   8    -0.413580047086E+03    0.87213E-04   -0.46572E-04  4598   0.288E-02    0.354E-02
RMM:   9    -0.413580074074E+03   -0.26988E-04   -0.30833E-04  4781   0.214E-02    0.174E-02
RMM:  10    -0.413580080953E+03   -0.68783E-05   -0.56390E-05  5313   0.920E-03    0.948E-03
RMM:  11    -0.413580090197E+03   -0.92440E-05   -0.20875E-05  4402   0.582E-03    0.537E-03
RMM:  12    -0.413580096700E+03   -0.65030E-05   -0.55981E-06  3068   0.340E-03    0.235E-03
RMM:  13    -0.413580100597E+03   -0.38970E-05   -0.29465E-06  2754   0.234E-03    0.153E-03
RMM:  14    -0.413580103151E+03   -0.25542E-05   -0.24100E-06  2706   0.208E-03    0.828E-04
RMM:  15    -0.413580103310E+03   -0.15886E-06   -0.12068E-06  2308   0.134E-03
  141 T=   145. E= -.41286841E+03 F= -.41358010E+03 E0= -.41355797E+03  EK= 0.71169E+00 SP= 0.00E+00 SK= 0.00E+00
       N       E                     dE             d eps       ncg     rms          rms(c)
RMM:   1    -0.413628210133E+03   -0.48107E-01   -0.13589E+01  4265   0.662E+00    0.772E-01
RMM:   2    -0.413565376233E+03    0.62834E-01   -0.37240E-01  5385   0.677E-01    0.683E-01
RMM:   3    -0.413584380347E+03   -0.19004E-01   -0.60976E-02  5687   0.259E-01    0.750E-01
RMM:   4    -0.413567021723E+03    0.17359E-01   -0.24962E-02  5160   0.176E-01    0.415E-01
RMM:   5    -0.413564445847E+03    0.25759E-02   -0.18063E-02  4538   0.177E-01    0.138E-01
RMM:   6    -0.413563866475E+03    0.57937E-03   -0.33649E-03  4989   0.787E-02    0.747E-02
RMM:   7    -0.413563653081E+03    0.21339E-03   -0.10003E-03  5329   0.401E-02    0.471E-02
RMM:   8    -0.413563617987E+03    0.35094E-04   -0.30493E-04  4923   0.230E-02    0.281E-02
RMM:   9    -0.413563625301E+03   -0.73139E-05   -0.13956E-04  4770   0.152E-02    0.146E-02
RMM:  10    -0.413563626665E+03   -0.13643E-05   -0.42236E-05  5367   0.782E-03    0.744E-03
RMM:  11    -0.413563628928E+03   -0.22632E-05   -0.10282E-05  3669   0.391E-03    0.461E-03
RMM:  12    -0.413563631183E+03   -0.22548E-05   -0.28723E-06  2734   0.277E-03    0.200E-03
RMM:  13    -0.413563632833E+03   -0.16504E-05   -0.17486E-06  2587   0.204E-03    0.120E-03
RMM:  14    -0.413563633781E+03   -0.94768E-06   -0.11922E-06  2524   0.163E-03
  142 T=   141. E= -.41287007E+03 F= -.41356363E+03 E0= -.41354198E+03  EK= 0.69356E+00 SP= 0.00E+00 SK= 0.00E+00
       N       E                     dE             d eps       ncg     rms          rms(c)
RMM:   1    -0.413683805733E+03   -0.12017E+00   -0.14576E+01  4264   0.675E+00    0.911E-01
RMM:   2    -0.413612748874E+03    0.71057E-01   -0.39984E-01  5369   0.708E-01    0.832E-01
RMM:   3    -0.413628817666E+03   -0.16069E-01   -0.72105E-02  5638   0.280E-01    0.894E-01
RMM:   4    -0.413607452766E+03    0.21365E-01   -0.28685E-02  4922   0.214E-01    0.383E-01
RMM:   5    -0.413607449484E+03    0.32827E-05   -0.23748E-02  4727   0.197E-01    0.159E-01
RMM:   6    -0.413606160507E+03    0.12890E-02   -0.62669E-03  5004   0.997E-02    0.870E-02
RMM:   7    -0.413605753379E+03    0.40713E-03   -0.11012E-03  5008   0.457E-02    0.445E-02
RMM:   8    -0.413605734324E+03    0.19055E-04   -0.35361E-04  5311   0.239E-02    0.240E-02
RMM:   9    -0.413605732970E+03    0.13540E-05   -0.12862E-04  5102   0.141E-02    0.130E-02
RMM:  10    -0.413605733366E+03   -0.39609E-06   -0.34448E-05  5226   0.680E-03    0.723E-03
RMM:  11    -0.413605734151E+03   -0.78414E-06   -0.77068E-06  3396   0.367E-03
  143 T=   149. E= -.41287399E+03 F= -.41360573E+03 E0= -.41358452E+03  EK= 0.73174E+00 SP= 0.00E+00 SK= 0.00E+00
       N       E                     dE             d eps       ncg     rms          rms(c)
RMM:   1    -0.413726979305E+03   -0.12125E+00   -0.16292E+01  4265   0.730E+00    0.110E+00
RMM:   2    -0.413663000015E+03    0.63979E-01   -0.46521E-01  5351   0.773E-01    0.993E-01
RMM:   3    -0.413684108456E+03   -0.21108E-01   -0.89933E-02  5577   0.318E-01    0.107E+00
RMM:   4    -0.413654556278E+03    0.29552E-01   -0.41626E-02  4874   0.261E-01    0.409E-01
RMM:   5    -0.413654648856E+03   -0.92578E-04   -0.33118E-02  4834   0.230E-01    0.192E-01
RMM:   6    -0.413652471425E+03    0.21774E-02   -0.76798E-03  4938   0.112E-01    0.933E-02
RMM:   7    -0.413652050272E+03    0.42115E-03   -0.11820E-03  4956   0.483E-02    0.478E-02
RMM:   8    -0.413652021766E+03    0.28505E-04   -0.47683E-04  5259   0.273E-02    0.228E-02
RMM:   9    -0.413652020673E+03    0.10930E-05   -0.15098E-04  5554   0.144E-02    0.138E-02
RMM:  10    -0.413652023037E+03   -0.23633E-05   -0.38287E-05  5323   0.723E-03    0.805E-03
RMM:  11    -0.413652028232E+03   -0.51951E-05   -0.10007E-05  3712   0.409E-03    0.489E-03
RMM:  12    -0.413652035772E+03   -0.75399E-05   -0.36702E-06  2863   0.304E-03    0.216E-03
RMM:  13    -0.413652044234E+03   -0.84623E-05   -0.18299E-06  2623   0.213E-03    0.133E-03
RMM:  14    -0.413652053211E+03   -0.89769E-05   -0.13541E-06  2587   0.169E-03    0.690E-04
RMM:  15    -0.413652060783E+03   -0.75720E-05   -0.10892E-06  2449   0.134E-03    0.475E-04
RMM:  16    -0.413652069217E+03   -0.84347E-05   -0.12859E-06  2438   0.134E-03    0.322E-04
RMM:  17    -0.413652077025E+03   -0.78073E-05   -0.12108E-06  2241   0.124E-03    0.226E-04
RMM:  18    -0.413652082100E+03   -0.50752E-05   -0.76486E-07  1913   0.974E-04    0.147E-04
RMM:  19    -0.413652085088E+03   -0.29878E-05   -0.33205E-07  1500   0.761E-04    0.999E-05
RMM:  20    -0.413652087427E+03   -0.23393E-05   -0.18828E-07  1283   0.662E-04    0.591E-05
RMM:  21    -0.413652088801E+03   -0.13737E-05   -0.10102E-07  1097   0.601E-04    0.428E-05
RMM:  22    -0.413652089654E+03   -0.85331E-06   -0.58178E-08  1002   0.571E-04
  144 T=   158. E= -.41287801E+03 F= -.41365209E+03 E0= -.41363123E+03  EK= 0.77408E+00 SP= 0.00E+00 SK= 0.00E+00
       N       E                     dE             d eps       ncg     rms          rms(c)
RMM:   1    -0.413709991212E+03   -0.57902E-01   -0.17436E+01  4265   0.773E+00    0.129E+00
RMM:   2    -0.413655836099E+03    0.54155E-01   -0.51647E-01  5338   0.847E-01    0.118E+00
RMM:   3    -0.413682293726E+03   -0.26458E-01   -0.10244E-01  5561   0.345E-01    0.125E+00
RMM:   4    -0.413645700898E+03    0.36593E-01   -0.53327E-02  4921   0.292E-01    0.481E-01
RMM:   5    -0.413645621666E+03    0.79232E-04   -0.40478E-02  4819   0.259E-01    0.228E-01
RMM:   6    -0.413642707952E+03    0.29137E-02   -0.81799E-03  4895   0.119E-01    0.103E-01
RMM:   7    -0.413642241079E+03    0.46687E-03   -0.12781E-03  4935   0.508E-02    0.547E-02
RMM:   8    -0.413642177574E+03    0.63504E-04   -0.59663E-04  5113   0.307E-02    0.240E-02
RMM:   9    -0.413642173443E+03    0.41316E-05   -0.19317E-04  5764   0.159E-02    0.144E-02
RMM:  10    -0.413642174854E+03   -0.14117E-05   -0.42299E-05  5309   0.764E-03    0.849E-03
RMM:  11    -0.413642180348E+03   -0.54938E-05   -0.12595E-05  4088   0.457E-03    0.523E-03
RMM:  12    -0.413642189248E+03   -0.88998E-05   -0.43541E-06  2950   0.329E-03    0.250E-03
RMM:  13    -0.413642199845E+03   -0.10597E-04   -0.22316E-06  2681   0.229E-03    0.150E-03
RMM:  14    -0.413642209693E+03   -0.98476E-05   -0.14445E-06  2593   0.176E-03    0.782E-04
RMM:  15    -0.413642218865E+03   -0.91722E-05   -0.12784E-06  2536   0.148E-03    0.557E-04
RMM:  16    -0.413642228760E+03   -0.98947E-05   -0.15110E-06  2523   0.144E-03    0.381E-04
RMM:  17    -0.413642237433E+03   -0.86735E-05   -0.14131E-06  2331   0.132E-03    0.266E-04
RMM:  18    -0.413642242881E+03   -0.54481E-05   -0.85787E-07  1994   0.103E-03    0.151E-04
RMM:  19    -0.413642245925E+03   -0.30433E-05   -0.36810E-07  1566   0.778E-04    0.113E-04
RMM:  20    -0.413642248920E+03   -0.29949E-05   -0.23208E-07  1346   0.695E-04    0.755E-05
RMM:  21    -0.413642250411E+03   -0.14913E-05   -0.12401E-07  1167   0.621E-04    0.467E-05
RMM:  22    -0.413642251250E+03   -0.83942E-06   -0.72928E-08  1062   0.581E-04
  145 T=   154. E= -.41288400E+03 F= -.41364225E+03 E0= -.41362161E+03  EK= 0.75825E+00 SP= 0.00E+00 SK= 0.00E+00
       N       E                     dE             d eps       ncg     rms          rms(c)
RMM:   1    -0.413574788818E+03    0.67462E-01   -0.16233E+01  4281   0.749E+00    0.148E+00
RMM:   2    -0.413526090362E+03    0.48698E-01   -0.47924E-01  5335   0.830E-01    0.132E+00
RMM:   3    -0.413576972185E+03   -0.50882E-01   -0.12249E-01  5560   0.372E-01    0.145E+00
RMM:   4    -0.413521109269E+03    0.55863E-01   -0.75564E-02  4969   0.331E-01    0.512E-01
RMM:   5    -0.413518260642E+03    0.28486E-02   -0.42140E-02  4857   0.268E-01    0.232E-01
RMM:   6    -0.413515800863E+03    0.24598E-02   -0.76660E-03  4976   0.116E-01    0.104E-01
RMM:   7    -0.413515334261E+03    0.46660E-03   -0.13108E-03  4888   0.509E-02    0.545E-02
RMM:   8    -0.413515280588E+03    0.53673E-04   -0.58255E-04  5371   0.301E-02    0.272E-02
RMM:   9    -0.413515268815E+03    0.11772E-04   -0.16570E-04  5585   0.153E-02    0.145E-02
RMM:  10    -0.413515270244E+03   -0.14288E-05   -0.45383E-05  5444   0.794E-03    0.825E-03
RMM:  11    -0.413515275666E+03   -0.54217E-05   -0.13937E-05  4235   0.476E-03    0.566E-03
RMM:  12    -0.413515283230E+03   -0.75639E-05   -0.46618E-06  3013   0.338E-03    0.260E-03
RMM:  13    -0.413515292708E+03   -0.94787E-05   -0.23984E-06  2692   0.242E-03    0.152E-03
RMM:  14    -0.413515300248E+03   -0.75399E-05   -0.12548E-06  2558   0.171E-03    0.780E-04
RMM:  15    -0.413515307524E+03   -0.72753E-05   -0.99184E-07  2502   0.139E-03    0.534E-04
RMM:  16    -0.413515316385E+03   -0.88612E-05   -0.13832E-06  2555   0.146E-03    0.352E-04
RMM:  17    -0.413515323099E+03   -0.67141E-05   -0.10948E-06  2179   0.120E-03    0.243E-04
RMM:  18    -0.413515327336E+03   -0.42368E-05   -0.70541E-07  1930   0.964E-04    0.141E-04
RMM:  19    -0.413515330309E+03   -0.29733E-05   -0.35917E-07  1589   0.778E-04    0.107E-04
RMM:  20    -0.413515332829E+03   -0.25199E-05   -0.21589E-07  1350   0.677E-04    0.754E-05
RMM:  21    -0.413515334068E+03   -0.12389E-05   -0.11365E-07  1096   0.598E-04    0.461E-05
RMM:  22    -0.413515334811E+03   -0.74282E-06   -0.68805E-08  1015   0.567E-04
  146 T=   130. E= -.41287739E+03 F= -.41351533E+03 E0= -.41349480E+03  EK= 0.63794E+00 SP= 0.00E+00 SK= 0.00E+00
       N       E                     dE             d eps       ncg     rms          rms(c)
RMM:   1    -0.413484102904E+03    0.31231E-01   -0.12252E+01  4288   0.631E+00    0.104E+00
RMM:   2    -0.413423791986E+03    0.60311E-01   -0.31200E-01  5286   0.634E-01    0.814E-01
RMM:   3    -0.413438952296E+03   -0.15160E-01   -0.51536E-02  5453   0.280E-01    0.576E-01
RMM:   4    -0.413466500098E+03   -0.27548E-01   -0.69837E-02  5206   0.255E-01    0.819E-01
RMM:   5    -0.413425762737E+03    0.40737E-01   -0.31312E-02  4962   0.216E-01    0.140E-01
RMM:   6    -0.413425290549E+03    0.47219E-03   -0.54990E-03  5533   0.905E-02    0.697E-02
RMM:   7    -0.413425169281E+03    0.12127E-03   -0.12669E-03  5407   0.393E-02    0.365E-02
RMM:   8    -0.413425162119E+03    0.71616E-05   -0.31100E-04  5782   0.200E-02    0.198E-02
RMM:   9    -0.413425156875E+03    0.52439E-05   -0.67948E-05  5333   0.100E-02    0.114E-02
RMM:  10    -0.413425159010E+03   -0.21353E-05   -0.20462E-05  4676   0.588E-03    0.531E-03
RMM:  11    -0.413425161709E+03   -0.26985E-05   -0.59863E-06  3163   0.316E-03    0.333E-03
RMM:  12    -0.413425165316E+03   -0.36068E-05   -0.14612E-06  2545   0.218E-03    0.187E-03
RMM:  13    -0.413425169509E+03   -0.41934E-05   -0.11468E-06  2537   0.174E-03    0.106E-03
RMM:  14    -0.413425172432E+03   -0.29233E-05   -0.62182E-07  2377   0.122E-03    0.471E-04
RMM:  15    -0.413425174570E+03   -0.21374E-05   -0.40069E-07  1953   0.958E-04    0.280E-04
RMM:  16    -0.413425177966E+03   -0.33958E-05   -0.56871E-07  2308   0.108E-03    0.294E-04
RMM:  17    -0.413425179929E+03   -0.19635E-05   -0.30542E-07  1490   0.770E-04    0.137E-04
RMM:  18    -0.413425181795E+03   -0.18663E-05   -0.28221E-07  1700   0.789E-04    0.102E-04
RMM:  19    -0.413425182731E+03   -0.93527E-06   -0.13431E-07  1243   0.636E-04
  147 T=   116. E= -.41285777E+03 F= -.41342518E+03 E0= -.41340470E+03  EK= 0.56741E+00 SP= 0.00E+00 SK= 0.00E+00
       N       E                     dE             d eps       ncg     rms          rms(c)
RMM:   1    -0.413694459521E+03   -0.26928E+00   -0.13564E+01  4296   0.671E+00    0.115E+00
RMM:   2    -0.413658000991E+03    0.36459E-01   -0.38801E-01  5364   0.746E-01    0.125E+00
RMM:   3    -0.413625382936E+03    0.32618E-01   -0.95130E-02  5377   0.352E-01    0.101E+00
RMM:   4    -0.413609115027E+03    0.16268E-01   -0.62229E-02  5284   0.289E-01    0.529E-01
RMM:   5    -0.413607385259E+03    0.17298E-02   -0.33501E-02  4923   0.236E-01    0.246E-01
RMM:   6    -0.413605228218E+03    0.21570E-02   -0.15357E-02  5025   0.154E-01    0.133E-01
RMM:   7    -0.413604443692E+03    0.78453E-03   -0.11831E-03  4417   0.573E-02    0.525E-02
RMM:   8    -0.413604427803E+03    0.15889E-04   -0.50480E-04  5438   0.269E-02    0.250E-02
RMM:   9    -0.413604435555E+03   -0.77518E-05   -0.17437E-04  5536   0.158E-02    0.172E-02
RMM:  10    -0.413604430765E+03    0.47896E-05   -0.29265E-05  4870   0.685E-03    0.887E-03
RMM:  11    -0.413604434304E+03   -0.35387E-05   -0.28671E-05  5205   0.614E-03    0.586E-03
RMM:  12    -0.413604436629E+03   -0.23247E-05   -0.31188E-06  2777   0.276E-03    0.286E-03
RMM:  13    -0.413604437611E+03   -0.98244E-06   -0.11817E-06  2525   0.182E-03
  148 T=   146. E= -.41288512E+03 F= -.41360444E+03 E0= -.41358395E+03  EK= 0.71932E+00 SP= 0.00E+00 SK= 0.00E+00
       N       E                     dE             d eps       ncg     rms          rms(c)
RMM:   1    -0.413839807905E+03   -0.23537E+00   -0.18517E+01  4303   0.821E+00    0.170E+00
RMM:   2    -0.413880669619E+03   -0.40862E-01   -0.68883E-01  5388   0.102E+00    0.201E+00
RMM:   3    -0.413764217105E+03    0.11645E+00   -0.20489E-01  5301   0.514E-01    0.148E+00
RMM:   4    -0.413730465480E+03    0.33752E-01   -0.13260E-01  5282   0.418E-01    0.786E-01
RMM:   5    -0.413729448871E+03    0.10166E-02   -0.72201E-02  5063   0.334E-01    0.413E-01
RMM:   6    -0.413722856187E+03    0.65927E-02   -0.35784E-02  4998   0.233E-01    0.194E-01
RMM:   7    -0.413721438832E+03    0.14174E-02   -0.25791E-03  4456   0.850E-02    0.779E-02
RMM:   8    -0.413721385496E+03    0.53336E-04   -0.66524E-04  5175   0.336E-02    0.417E-02
RMM:   9    -0.413721403899E+03   -0.18404E-04   -0.36132E-04  5306   0.235E-02    0.218E-02
RMM:  10    -0.413721403219E+03    0.67991E-06   -0.69568E-05  5385   0.102E-02    0.124E-02
RMM:  11    -0.413721410640E+03   -0.74210E-05   -0.46576E-05  5425   0.805E-03    0.730E-03
RMM:  12    -0.413721418227E+03   -0.75869E-05   -0.98468E-06  3771   0.438E-03    0.456E-03
RMM:  13    -0.413721420748E+03   -0.25210E-05   -0.30825E-06  2759   0.263E-03    0.236E-03
RMM:  14    -0.413721421994E+03   -0.12455E-05   -0.20535E-06  2662   0.208E-03    0.100E-03
RMM:  15    -0.413721421730E+03    0.26426E-06   -0.13559E-06  2524   0.160E-03
  149 T=   169. E= -.41289202E+03 F= -.41372142E+03 E0= -.41370076E+03  EK= 0.82940E+00 SP= 0.00E+00 SK= 0.00E+00
       N       E                     dE             d eps       ncg     rms          rms(c)
RMM:   1    -0.413708538020E+03    0.12884E-01   -0.17565E+01  4301   0.812E+00    0.131E+00
RMM:   2    -0.413771820109E+03   -0.63282E-01   -0.65495E-01  5394   0.968E-01    0.179E+00
RMM:   3    -0.413647130542E+03    0.12469E+00   -0.16628E-01  5357   0.468E-01    0.116E+00
RMM:   4    -0.413624525798E+03    0.22605E-01   -0.78378E-02  5374   0.326E-01    0.657E-01
RMM:   5    -0.413625843783E+03   -0.13180E-02   -0.45925E-02  5109   0.262E-01    0.405E-01
RMM:   6    -0.413622141846E+03    0.37019E-02   -0.31977E-02  5039   0.214E-01    0.214E-01
RMM:   7    -0.413620477552E+03    0.16643E-02   -0.32707E-03  4513   0.898E-02    0.859E-02
RMM:   8    -0.413620449412E+03    0.28139E-04   -0.11608E-03  5667   0.396E-02    0.506E-02
RMM:   9    -0.413620436189E+03    0.13223E-04   -0.41141E-04  4760   0.254E-02    0.196E-02
RMM:  10    -0.413620439699E+03   -0.35100E-05   -0.82853E-05  5530   0.113E-02    0.117E-02
RMM:  11    -0.413620444137E+03   -0.44383E-05   -0.31734E-05  5082   0.694E-03    0.736E-03
RMM:  12    -0.413620451217E+03   -0.70793E-05   -0.92960E-06  3568   0.423E-03    0.463E-03
RMM:  13    -0.413620453208E+03   -0.19909E-05   -0.32425E-06  2790   0.260E-03    0.194E-03
RMM:  14    -0.413620453756E+03   -0.54859E-06   -0.20909E-06  2664   0.201E-03
  150 T=   151. E= -.41287635E+03 F= -.41362045E+03 E0= -.41359951E+03  EK= 0.74411E+00 SP= 0.00E+00 SK= 0.00E+00
