       N       E                     dE             d eps       ncg     rms          rms(c)
RMM:   1     0.220129025371E+04    0.22013E+04   -0.52443E+04  2132   0.654E+02
RMM:   2     0.705846006800E+03   -0.14954E+04   -0.16261E+04  2132   0.177E+02
RMM:   3     0.137859530603E+03   -0.56799E+03   -0.65692E+03  2132   0.117E+02
RMM:   4    -0.159275362558E+03   -0.29713E+03   -0.27855E+03  2132   0.936E+01
RMM:   5    -0.287572159248E+03   -0.12830E+03   -0.11456E+03  2132   0.595E+01
RMM:   6    -0.349859607486E+03   -0.62287E+02   -0.55140E+02  2132   0.423E+01
RMM:   7    -0.382792885846E+03   -0.32933E+02   -0.30457E+02  2132   0.293E+01
RMM:   8    -0.404255841975E+03   -0.21463E+02   -0.18420E+02  2132   0.233E+01
RMM:   9    -0.436002432853E+03   -0.31747E+02   -0.30719E+02  6095   0.173E+01
RMM:  10    -0.441271633104E+03   -0.52692E+01   -0.62814E+01  6395   0.538E+00
RMM:  11    -0.442514330506E+03   -0.12427E+01   -0.11303E+01  6219   0.173E+00
RMM:  12    -0.442893201721E+03   -0.37887E+00   -0.27101E+00  6372   0.600E-01    0.134E+02
RMM:  13    -0.425592043454E+03    0.17301E+02   -0.80963E+01  4681   0.119E+01    0.712E+01
RMM:  14    -0.499271291987E+03   -0.73679E+02   -0.53792E+02  5411   0.232E+01    0.307E+01
RMM:  15    -0.416733645114E+03    0.82538E+02   -0.20049E+02  5091   0.164E+01    0.757E+00
RMM:  16    -0.414021494166E+03    0.27122E+01   -0.39903E+01  6096   0.615E+00    0.429E+00
RMM:  17    -0.413211179571E+03    0.81031E+00   -0.25872E+00  5415   0.191E+00    0.243E+00
RMM:  18    -0.413180766564E+03    0.30413E-01   -0.72884E-01  5988   0.877E-01    0.171E+00
RMM:  19    -0.413172001587E+03    0.87650E-02   -0.26095E-01  5674   0.562E-01    0.901E-01
RMM:  20    -0.413191644017E+03   -0.19642E-01   -0.31060E-01  5574   0.578E-01    0.658E-01
RMM:  21    -0.413168188284E+03    0.23456E-01   -0.35336E-02  4974   0.251E-01    0.301E-01
RMM:  22    -0.413164684148E+03    0.35041E-02   -0.23113E-02  5890   0.148E-01    0.136E-01
RMM:  23    -0.413163924139E+03    0.76001E-03   -0.56930E-03  6053   0.678E-02    0.855E-02
RMM:  24    -0.413162925846E+03    0.99829E-03   -0.16018E-03  5319   0.418E-02    0.542E-02
RMM:  25    -0.413162416169E+03    0.50968E-03   -0.81849E-04  5029   0.297E-02    0.426E-02
RMM:  26    -0.413162546561E+03   -0.13039E-03   -0.10916E-03  5777   0.344E-02    0.341E-02
RMM:  27    -0.413162968252E+03   -0.42169E-03   -0.18784E-04  4601   0.199E-02    0.205E-02
RMM:  28    -0.413163428942E+03   -0.46069E-03   -0.15162E-04  5039   0.179E-02    0.105E-02
RMM:  29    -0.413163825470E+03   -0.39653E-03   -0.11775E-04  4750   0.159E-02    0.440E-03
RMM:  30    -0.413164066136E+03   -0.24067E-03   -0.78191E-05  4424   0.106E-02    0.451E-03
RMM:  31    -0.413164206763E+03   -0.14063E-03   -0.53110E-05  3227   0.710E-03    0.382E-03
RMM:  32    -0.413164238543E+03   -0.31780E-04   -0.22054E-05  2990   0.331E-03    0.205E-03
RMM:  33    -0.413164252483E+03   -0.13940E-04   -0.88769E-06  2816   0.230E-03    0.712E-04
RMM:  34    -0.413164256386E+03   -0.39028E-05   -0.50145E-06  2649   0.169E-03    0.584E-04
RMM:  35    -0.413164257586E+03   -0.12004E-05   -0.23091E-06  2447   0.135E-03    0.797E-04
RMM:  36    -0.413164257896E+03   -0.31013E-06   -0.38018E-06  1931   0.978E-04
    1 T=    61. E= -.41286642E+03 F= -.41316426E+03 E0= -.41314176E+03  EK= 0.29784E+00 SP= 0.00E+00 SK= 0.00E+00
       N       E                     dE             d eps       ncg     rms          rms(c)
RMM:   1    -0.413154348265E+03    0.99093E-02   -0.11151E+01  3969   0.698E-01    0.886E-01
RMM:   2    -0.413165311308E+03   -0.10963E-01   -0.13773E-01  3874   0.100E-01    0.640E-01
RMM:   3    -0.413163882056E+03    0.14293E-02   -0.63703E-03  4759   0.358E-02    0.157E-01
RMM:   4    -0.413184185730E+03   -0.20304E-01   -0.20995E-02  5217   0.121E-01    0.596E-01
RMM:   5    -0.413163555234E+03    0.20630E-01   -0.10180E-02  4851   0.998E-02    0.298E-02
RMM:   6    -0.413163690930E+03   -0.13570E-03   -0.16297E-03  5835   0.392E-02    0.160E-02
RMM:   7    -0.413163705897E+03   -0.14967E-04   -0.20311E-04  5787   0.119E-02    0.121E-02
RMM:   8    -0.413163711978E+03   -0.60815E-05   -0.25988E-05  4158   0.475E-03    0.705E-03
RMM:   9    -0.413163718151E+03   -0.61732E-05   -0.49315E-06  2863   0.264E-03    0.463E-03
RMM:  10    -0.413163725502E+03   -0.73505E-05   -0.17621E-06  2551   0.188E-03    0.254E-03
RMM:  11    -0.413163732790E+03   -0.72878E-05   -0.13449E-06  2532   0.164E-03    0.122E-03
RMM:  12    -0.413163737309E+03   -0.45193E-05   -0.75230E-07  2399   0.124E-03    0.421E-04
RMM:  13    -0.413163738834E+03   -0.15251E-05   -0.37698E-07  1857   0.876E-04    0.248E-04
RMM:  14    -0.413163740725E+03   -0.18906E-05   -0.27433E-07  1476   0.756E-04    0.148E-04
RMM:  15    -0.413163742959E+03   -0.22346E-05   -0.24076E-07  1361   0.722E-04    0.981E-05
RMM:  16    -0.413163743462E+03   -0.50267E-06   -0.14792E-07  1099   0.635E-04
    2 T=    61. E= -.41286595E+03 F= -.41316374E+03 E0= -.41314124E+03  EK= 0.29779E+00 SP= 0.00E+00 SK= 0.00E+00
       N       E                     dE             d eps       ncg     rms          rms(c)
RMM:   1    -0.413155592913E+03    0.81500E-02   -0.11188E+01  4192   0.703E-01    0.911E-01
RMM:   2    -0.413165516791E+03   -0.99239E-02   -0.13492E-01  3923   0.964E-02    0.633E-01
RMM:   3    -0.413164724960E+03    0.79183E-03   -0.68434E-03  4852   0.389E-02    0.169E-01
RMM:   4    -0.413194040175E+03   -0.29315E-01   -0.29644E-02  5184   0.144E-01    0.713E-01
RMM:   5    -0.413164305172E+03    0.29735E-01   -0.14359E-02  4829   0.119E-01    0.373E-02
RMM:   6    -0.413164490046E+03   -0.18487E-03   -0.23414E-03  5796   0.470E-02    0.190E-02
RMM:   7    -0.413164502454E+03   -0.12408E-04   -0.28090E-04  5907   0.139E-02    0.139E-02
RMM:   8    -0.413164503045E+03   -0.59053E-06   -0.36060E-05  4474   0.537E-03    0.847E-03
RMM:   9    -0.413164502205E+03    0.84023E-06   -0.59933E-06  3022   0.279E-03
    3 T=    61. E= -.41286643E+03 F= -.41316450E+03 E0= -.41314201E+03  EK= 0.29807E+00 SP= 0.00E+00 SK= 0.00E+00
       N       E                     dE             d eps       ncg     rms          rms(c)
RMM:   1    -0.413155049134E+03    0.94539E-02   -0.11100E+01  4226   0.704E-01    0.894E-01
RMM:   2    -0.413165655495E+03   -0.10606E-01   -0.13382E-01  4191   0.995E-02    0.627E-01
RMM:   3    -0.413168177273E+03   -0.25218E-02   -0.95205E-03  5178   0.684E-02    0.308E-01
RMM:   4    -0.413192077875E+03   -0.23901E-01   -0.39368E-02  5132   0.168E-01    0.696E-01
RMM:   5    -0.413164133537E+03    0.27944E-01   -0.11556E-02  4732   0.116E-01    0.534E-02
RMM:   6    -0.413164170472E+03   -0.36934E-04   -0.19615E-03  5549   0.445E-02    0.169E-02
RMM:   7    -0.413164192872E+03   -0.22400E-04   -0.28596E-04  6040   0.148E-02    0.121E-02
RMM:   8    -0.413164195807E+03   -0.29357E-05   -0.37062E-05  4778   0.565E-03    0.724E-03
RMM:   9    -0.413164197561E+03   -0.17538E-05   -0.73904E-06  3197   0.367E-03    0.361E-03
RMM:  10    -0.413164199186E+03   -0.16245E-05   -0.17222E-06  2551   0.211E-03    0.220E-03
RMM:  11    -0.413164201213E+03   -0.20278E-05   -0.10430E-06  2540   0.160E-03    0.109E-03
RMM:  12    -0.413164202250E+03   -0.10362E-05   -0.49035E-07  2270   0.110E-03    0.465E-04
RMM:  13    -0.413164203437E+03   -0.11878E-05   -0.37491E-07  1716   0.875E-04    0.215E-04
RMM:  14    -0.413164203967E+03   -0.52934E-06   -0.20475E-07  1367   0.731E-04
    4 T=    61. E= -.41286619E+03 F= -.41316420E+03 E0= -.41314172E+03  EK= 0.29802E+00 SP= 0.00E+00 SK= 0.00E+00
       N       E                     dE             d eps       ncg     rms          rms(c)
RMM:   1    -0.413154909933E+03    0.92935E-02   -0.11138E+01  4236   0.710E-01    0.884E-01
RMM:   2    -0.413165829263E+03   -0.10919E-01   -0.13778E-01  4052   0.973E-02    0.639E-01
RMM:   3    -0.413164667421E+03    0.11618E-02   -0.64114E-03  4924   0.366E-02    0.164E-01
RMM:   4    -0.413195181551E+03   -0.30514E-01   -0.31087E-02  5165   0.148E-01    0.728E-01
RMM:   5    -0.413164112541E+03    0.31069E-01   -0.15005E-02  4815   0.122E-01    0.363E-02
RMM:   6    -0.413164305748E+03   -0.19321E-03   -0.24176E-03  5786   0.477E-02    0.172E-02
RMM:   7    -0.413164324189E+03   -0.18441E-04   -0.28397E-04  5875   0.139E-02    0.133E-02
RMM:   8    -0.413164329185E+03   -0.49967E-05   -0.36033E-05  4443   0.534E-03    0.816E-03
RMM:   9    -0.413164333325E+03   -0.41401E-05   -0.60118E-06  2988   0.281E-03    0.550E-03
RMM:  10    -0.413164339501E+03   -0.61753E-05   -0.20309E-06  2554   0.207E-03    0.286E-03
RMM:  11    -0.413164345261E+03   -0.57605E-05   -0.14730E-06  2547   0.178E-03    0.140E-03
RMM:  12    -0.413164348841E+03   -0.35793E-05   -0.74540E-07  2437   0.134E-03    0.479E-04
RMM:  13    -0.413164350092E+03   -0.12511E-05   -0.32491E-07  1994   0.926E-04    0.293E-04
RMM:  14    -0.413164351508E+03   -0.14166E-05   -0.20993E-07  1536   0.774E-04    0.171E-04
RMM:  15    -0.413164353313E+03   -0.18050E-05   -0.21806E-07  1547   0.753E-04    0.135E-04
RMM:  16    -0.413164353596E+03   -0.28253E-06   -0.90187E-08  1062   0.622E-04
    5 T=    61. E= -.41286626E+03 F= -.41316435E+03 E0= -.41314188E+03  EK= 0.29810E+00 SP= 0.00E+00 SK= 0.00E+00
       N       E                     dE             d eps       ncg     rms          rms(c)
RMM:   1    -0.413155874697E+03    0.84786E-02   -0.11189E+01  4248   0.715E-01    0.906E-01
RMM:   2    -0.413166163060E+03   -0.10288E-01   -0.13483E-01  4001   0.969E-02    0.635E-01
RMM:   3    -0.413165164064E+03    0.99900E-03   -0.66315E-03  4834   0.374E-02    0.167E-01
RMM:   4    -0.413192946324E+03   -0.27782E-01   -0.28059E-02  5162   0.140E-01    0.695E-01
RMM:   5    -0.413164750522E+03    0.28196E-01   -0.13757E-02  4818   0.116E-01    0.357E-02
RMM:   6    -0.413164926099E+03   -0.17558E-03   -0.21959E-03  5779   0.453E-02    0.185E-02
RMM:   7    -0.413164938255E+03   -0.12156E-04   -0.26210E-04  5850   0.134E-02    0.135E-02
RMM:   8    -0.413164939366E+03   -0.11111E-05   -0.33486E-05  4414   0.525E-03    0.822E-03
RMM:   9    -0.413164939054E+03    0.31201E-06   -0.58477E-06  2967   0.280E-03
    6 T=    61. E= -.41286657E+03 F= -.41316494E+03 E0= -.41314248E+03  EK= 0.29837E+00 SP= 0.00E+00 SK= 0.00E+00
       N       E                     dE             d eps       ncg     rms          rms(c)
RMM:   1    -0.413155528210E+03    0.94112E-02   -0.11130E+01  4267   0.722E-01    0.902E-01
RMM:   2    -0.413165414258E+03   -0.98860E-02   -0.13428E-01  4230   0.998E-02    0.628E-01
RMM:   3    -0.413168209174E+03   -0.27949E-02   -0.95736E-03  5157   0.666E-02    0.302E-01
RMM:   4    -0.413192830978E+03   -0.24622E-01   -0.39459E-02  5126   0.168E-01    0.702E-01
RMM:   5    -0.413164425443E+03    0.28406E-01   -0.11896E-02  4740   0.117E-01    0.531E-02
RMM:   6    -0.413164470818E+03   -0.45375E-04   -0.20054E-03  5574   0.447E-02    0.171E-02
RMM:   7    -0.413164490659E+03   -0.19841E-04   -0.28567E-04  6043   0.148E-02    0.122E-02
RMM:   8    -0.413164492089E+03   -0.14305E-05   -0.37441E-05  4771   0.565E-03    0.725E-03
RMM:   9    -0.413164490672E+03    0.14168E-05   -0.70866E-06  3073   0.362E-03    0.356E-03
RMM:  10    -0.413164490726E+03   -0.53758E-07   -0.17691E-06  2547   0.211E-03
    7 T=    61. E= -.41286606E+03 F= -.41316449E+03 E0= -.41314204E+03  EK= 0.29844E+00 SP= 0.00E+00 SK= 0.00E+00
       N       E                     dE             d eps       ncg     rms          rms(c)
RMM:   1    -0.413156037828E+03    0.84528E-02   -0.11134E+01  4278   0.736E-01    0.883E-01
RMM:   2    -0.413166615086E+03   -0.10577E-01   -0.13704E-01  4057   0.957E-02    0.636E-01
RMM:   3    -0.413165722968E+03    0.89212E-03   -0.65563E-03  4993   0.402E-02    0.177E-01
RMM:   4    -0.413205149223E+03   -0.39426E-01   -0.41016E-02  5150   0.168E-01    0.824E-01
RMM:   5    -0.413164998521E+03    0.40151E-01   -0.19350E-02  4806   0.138E-01    0.430E-02
RMM:   6    -0.413165220165E+03   -0.22164E-03   -0.31109E-03  5763   0.541E-02    0.174E-02
RMM:   7    -0.413165246939E+03   -0.26774E-04   -0.37488E-04  5945   0.155E-02    0.139E-02
RMM:   8    -0.413165251398E+03   -0.44589E-05   -0.43289E-05  4475   0.565E-03    0.835E-03
RMM:   9    -0.413165254689E+03   -0.32914E-05   -0.72483E-06  3035   0.289E-03    0.556E-03
RMM:  10    -0.413165259621E+03   -0.49318E-05   -0.24246E-06  2569   0.219E-03    0.281E-03
RMM:  11    -0.413165263767E+03   -0.41463E-05   -0.14493E-06  2542   0.176E-03    0.135E-03
RMM:  12    -0.413165266335E+03   -0.25671E-05   -0.79525E-07  2448   0.136E-03    0.433E-04
RMM:  13    -0.413165267560E+03   -0.12252E-05   -0.38095E-07  2018   0.963E-04    0.277E-04
RMM:  14    -0.413165268692E+03   -0.11320E-05   -0.27488E-07  1626   0.812E-04    0.184E-04
RMM:  15    -0.413165269530E+03   -0.83880E-06   -0.21622E-07  1404   0.738E-04
    8 T=    61. E= -.41286644E+03 F= -.41316527E+03 E0= -.41314284E+03  EK= 0.29883E+00 SP= 0.00E+00 SK= 0.00E+00
       N       E                     dE             d eps       ncg     rms          rms(c)
RMM:   1    -0.413156088961E+03    0.91797E-02   -0.11197E+01  4283   0.728E-01    0.901E-01
RMM:   2    -0.413166532414E+03   -0.10443E-01   -0.13629E-01  4162   0.101E-01    0.638E-01
RMM:   3    -0.413165581477E+03    0.95094E-03   -0.65921E-03  4834   0.387E-02    0.166E-01
RMM:   4    -0.413194368886E+03   -0.28787E-01   -0.29250E-02  5160   0.142E-01    0.708E-01
RMM:   5    -0.413165063192E+03    0.29306E-01   -0.14321E-02  4809   0.118E-01    0.356E-02
RMM:   6    -0.413165246090E+03   -0.18290E-03   -0.22946E-03  5785   0.461E-02    0.181E-02
RMM:   7    -0.413165259113E+03   -0.13023E-04   -0.27203E-04  5851   0.137E-02    0.135E-02
RMM:   8    -0.413165259993E+03   -0.87958E-06   -0.34348E-05  4434   0.532E-03    0.836E-03
RMM:   9    -0.413165259679E+03    0.31426E-06   -0.59597E-06  2971   0.284E-03
    9 T=    61. E= -.41286616E+03 F= -.41316526E+03 E0= -.41314285E+03  EK= 0.29910E+00 SP= 0.00E+00 SK= 0.00E+00
       N       E                     dE             d eps       ncg     rms          rms(c)
RMM:   1    -0.413156675528E+03    0.85845E-02   -0.11187E+01  4296   0.733E-01    0.909E-01
RMM:   2    -0.413166322008E+03   -0.96465E-02   -0.13436E-01  4277   0.975E-02    0.629E-01
RMM:   3    -0.413169514772E+03   -0.31928E-02   -0.10050E-02  5148   0.697E-02    0.315E-01
RMM:   4    -0.413191695531E+03   -0.22181E-01   -0.38034E-02  5106   0.165E-01    0.677E-01
RMM:   5    -0.413165414428E+03    0.26281E-01   -0.10822E-02  4725   0.112E-01    0.523E-02
RMM:   6    -0.413165446351E+03   -0.31923E-04   -0.18407E-03  5560   0.427E-02    0.177E-02
RMM:   7    -0.413165463537E+03   -0.17186E-04   -0.26477E-04  6023   0.144E-02    0.123E-02
RMM:   8    -0.413165463686E+03   -0.14911E-06   -0.35061E-05  4745   0.559E-03    0.724E-03
RMM:   9    -0.413165459986E+03    0.37004E-05   -0.72724E-06  3124   0.368E-03    0.359E-03
RMM:  10    -0.413165458845E+03    0.11404E-05   -0.16963E-06  2549   0.208E-03    0.212E-03
RMM:  11    -0.413165457476E+03    0.13693E-05   -0.10384E-06  2534   0.159E-03    0.106E-03
RMM:  12    -0.413165456402E+03    0.10744E-05   -0.46827E-07  2218   0.109E-03    0.468E-04
RMM:  13    -0.413165455137E+03    0.12649E-05   -0.35173E-07  1715   0.873E-04    0.222E-04
RMM:  14    -0.413165454346E+03    0.79075E-06   -0.19745E-07  1378   0.732E-04
   10 T=    61. E= -.41286603E+03 F= -.41316545E+03 E0= -.41314307E+03  EK= 0.29942E+00 SP= 0.00E+00 SK= 0.00E+00
       N       E                     dE             d eps       ncg     rms          rms(c)
RMM:   1    -0.413156696682E+03    0.87585E-02   -0.11137E+01  4292   0.734E-01    0.885E-01
RMM:   2    -0.413167664848E+03   -0.10968E-01   -0.13617E-01  4184   0.960E-02    0.634E-01
RMM:   3    -0.413166577295E+03    0.10876E-02   -0.63499E-03  4913   0.403E-02    0.170E-01
RMM:   4    -0.413199908574E+03   -0.33331E-01   -0.34162E-02  5148   0.153E-01    0.760E-01
RMM:   5    -0.413165938540E+03    0.33970E-01   -0.16634E-02  4809   0.127E-01    0.378E-02
RMM:   6    -0.413166138265E+03   -0.19972E-03   -0.25870E-03  5765   0.495E-02    0.182E-02
RMM:   7    -0.413166154443E+03   -0.16178E-04   -0.31026E-04  5886   0.145E-02    0.138E-02
RMM:   8    -0.413166156555E+03   -0.21114E-05   -0.38886E-05  4500   0.554E-03    0.857E-03
RMM:   9    -0.413166157128E+03   -0.57316E-06   -0.66918E-06  3031   0.291E-03
   11 T=    61. E= -.41286632E+03 F= -.41316616E+03 E0= -.41314380E+03  EK= 0.29983E+00 SP= 0.00E+00 SK= 0.00E+00
       N       E                     dE             d eps       ncg     rms          rms(c)
RMM:   1    -0.413156709593E+03    0.94470E-02   -0.11214E+01  4297   0.744E-01    0.896E-01
RMM:   2    -0.413167343065E+03   -0.10633E-01   -0.13790E-01  4284   0.998E-02    0.641E-01
RMM:   3    -0.413170128873E+03   -0.27858E-02   -0.96916E-03  5148   0.695E-02    0.312E-01
RMM:   4    -0.413196706975E+03   -0.26578E-01   -0.43135E-02  5107   0.175E-01    0.728E-01
RMM:   5    -0.413165935936E+03    0.30771E-01   -0.12811E-02  4726   0.121E-01    0.534E-02
RMM:   6    -0.413165994852E+03   -0.58916E-04   -0.21754E-03  5585   0.461E-02    0.157E-02
RMM:   7    -0.413166019337E+03   -0.24485E-04   -0.29666E-04  6041   0.151E-02    0.119E-02
RMM:   8    -0.413166022619E+03   -0.32820E-05   -0.38669E-05  4770   0.568E-03    0.712E-03
RMM:   9    -0.413166024938E+03   -0.23184E-05   -0.75043E-06  3138   0.367E-03    0.372E-03
RMM:  10    -0.413166026588E+03   -0.16499E-05   -0.19564E-06  2552   0.215E-03    0.223E-03
RMM:  11    -0.413166028202E+03   -0.16149E-05   -0.11832E-06  2543   0.163E-03    0.111E-03
RMM:  12    -0.413166028898E+03   -0.69605E-06   -0.52817E-07  2278   0.112E-03
   12 T=    61. E= -.41286598E+03 F= -.41316603E+03 E0= -.41314370E+03  EK= 0.30005E+00 SP= 0.00E+00 SK= 0.00E+00
       N       E                     dE             d eps       ncg     rms          rms(c)
RMM:   1    -0.413157786219E+03    0.82420E-02   -0.11237E+01  4300   0.747E-01    0.914E-01
RMM:   2    -0.413167661457E+03   -0.98752E-02   -0.13469E-01  4211   0.946E-02    0.632E-01
RMM:   3    -0.413167163527E+03    0.49793E-03   -0.69516E-03  4963   0.397E-02    0.179E-01
RMM:   4    -0.413203242735E+03   -0.36079E-01   -0.37209E-02  5149   0.160E-01    0.790E-01
RMM:   5    -0.413166537570E+03    0.36705E-01   -0.17879E-02  4801   0.132E-01    0.412E-02
RMM:   6    -0.413166750242E+03   -0.21267E-03   -0.28780E-03  5773   0.516E-02    0.203E-02
RMM:   7    -0.413166762537E+03   -0.12294E-04   -0.34062E-04  5906   0.152E-02    0.151E-02
RMM:   8    -0.413166760455E+03    0.20818E-05   -0.43681E-05  4657   0.584E-03    0.948E-03
RMM:   9    -0.413166755680E+03    0.47746E-05   -0.73183E-06  3093   0.297E-03    0.630E-03
RMM:  10    -0.413166751602E+03    0.40779E-05   -0.22163E-06  2557   0.217E-03    0.324E-03
RMM:  11    -0.413166748240E+03    0.33627E-05   -0.16226E-06  2541   0.190E-03    0.155E-03
RMM:  12    -0.413166745599E+03    0.26401E-05   -0.80274E-07  2452   0.144E-03    0.499E-04
RMM:  13    -0.413166744791E+03    0.80799E-06   -0.34379E-07  2120   0.982E-04
   13 T=    61. E= -.41286616E+03 F= -.41316674E+03 E0= -.41314444E+03  EK= 0.30058E+00 SP= 0.00E+00 SK= 0.00E+00
       N       E                     dE             d eps       ncg     rms          rms(c)
RMM:   1    -0.413157779868E+03    0.89657E-02   -0.11154E+01  4294   0.747E-01    0.889E-01
RMM:   2    -0.413168460005E+03   -0.10680E-01   -0.13656E-01  4226   0.959E-02    0.632E-01
RMM:   3    -0.413167566217E+03    0.89379E-03   -0.64007E-03  4865   0.375E-02    0.168E-01
RMM:   4    -0.413197036095E+03   -0.29470E-01   -0.30090E-02  5143   0.144E-01    0.716E-01
RMM:   5    -0.413167043740E+03    0.29992E-01   -0.14703E-02  4804   0.119E-01    0.355E-02
RMM:   6    -0.413167225420E+03   -0.18168E-03   -0.23404E-03  5798   0.463E-02    0.181E-02
RMM:   7    -0.413167236913E+03   -0.11493E-04   -0.26936E-04  5855   0.138E-02    0.135E-02
RMM:   8    -0.413167236733E+03    0.17932E-06   -0.35940E-05  4490   0.540E-03    0.851E-03
RMM:   9    -0.413167234793E+03    0.19402E-05   -0.61934E-06  3007   0.288E-03    0.578E-03
RMM:  10    -0.413167234078E+03    0.71539E-06   -0.19425E-06  2548   0.207E-03
   14 T=    61. E= -.41286616E+03 F= -.41316723E+03 E0= -.41314497E+03  EK= 0.30107E+00 SP= 0.00E+00 SK= 0.00E+00
       N       E                     dE             d eps       ncg     rms          rms(c)
RMM:   1    -0.413157840128E+03    0.93947E-02   -0.11243E+01  4305   0.756E-01    0.892E-01
RMM:   2    -0.413169145428E+03   -0.11305E-01   -0.13893E-01  4284   0.989E-02    0.643E-01
RMM:   3    -0.413170836619E+03   -0.16912E-02   -0.90253E-03  5123   0.650E-02    0.291E-01
RMM:   4    -0.413202654635E+03   -0.31818E-01   -0.46511E-02  5108   0.181E-01    0.777E-01
RMM:   5    -0.413167325031E+03    0.35330E-01   -0.15196E-02  4733   0.129E-01    0.511E-02
RMM:   6    -0.413167423639E+03   -0.98608E-04   -0.24583E-03  5622   0.492E-02    0.150E-02
RMM:   7    -0.413167449705E+03   -0.26066E-04   -0.32161E-04  6011   0.151E-02    0.119E-02
RMM:   8    -0.413167453049E+03   -0.33436E-05   -0.40298E-05  4739   0.572E-03    0.697E-03
RMM:   9    -0.413167454404E+03   -0.13546E-05   -0.65538E-06  2927   0.324E-03    0.337E-03
RMM:  10    -0.413167455904E+03   -0.15007E-05   -0.21557E-06  2552   0.208E-03    0.197E-03
RMM:  11    -0.413167457030E+03   -0.11260E-05   -0.10630E-06  2533   0.148E-03    0.933E-04
RMM:  12    -0.413167457632E+03   -0.60192E-06   -0.52263E-07  1995   0.106E-03
   15 T=    61. E= -.41286602E+03 F= -.41316746E+03 E0= -.41314522E+03  EK= 0.30144E+00 SP= 0.00E+00 SK= 0.00E+00
       N       E                     dE             d eps       ncg     rms          rms(c)
RMM:   1    -0.413160210680E+03    0.72463E-02   -0.11293E+01  4304   0.776E-01    0.916E-01
RMM:   2    -0.413169358647E+03   -0.91480E-02   -0.13635E-01  4245   0.101E-01    0.635E-01
RMM:   3    -0.413168698591E+03    0.66006E-03   -0.69000E-03  4930   0.393E-02    0.177E-01
RMM:   4    -0.413202822078E+03   -0.34123E-01   -0.35083E-02  5149   0.156E-01    0.769E-01
RMM:   5    -0.413168101177E+03    0.34721E-01   -0.16962E-02  4802   0.128E-01    0.395E-02
RMM:   6    -0.413168301803E+03   -0.20063E-03   -0.27341E-03  5797   0.501E-02    0.199E-02
RMM:   7    -0.413168311127E+03   -0.93245E-05   -0.31579E-04  5892   0.148E-02    0.147E-02
RMM:   8    -0.413168307862E+03    0.32649E-05   -0.41652E-05  4646   0.579E-03    0.942E-03
RMM:   9    -0.413168302107E+03    0.57559E-05   -0.70676E-06  3088   0.300E-03    0.633E-03
RMM:  10    -0.413168297093E+03    0.50133E-05   -0.21144E-06  2551   0.216E-03    0.330E-03
RMM:  11    -0.413168292865E+03    0.42286E-05   -0.16393E-06  2543   0.192E-03    0.159E-03
RMM:  12    -0.413168289694E+03    0.31703E-05   -0.79835E-07  2454   0.145E-03    0.518E-04
RMM:  13    -0.413168288738E+03    0.95674E-06   -0.33540E-07  2132   0.979E-04
   16 T=    61. E= -.41286622E+03 F= -.41316829E+03 E0= -.41314609E+03  EK= 0.30207E+00 SP= 0.00E+00 SK= 0.00E+00
       N       E                     dE             d eps       ncg     rms          rms(c)
RMM:   1    -0.413159544378E+03    0.87453E-02   -0.11201E+01  4296   0.759E-01    0.896E-01
RMM:   2    -0.413170056020E+03   -0.10512E-01   -0.13670E-01  4251   0.984E-02    0.631E-01
RMM:   3    -0.413169102327E+03    0.95369E-03   -0.65180E-03  4894   0.406E-02    0.175E-01
RMM:   4    -0.413203108195E+03   -0.34006E-01   -0.34911E-02  5144   0.155E-01    0.767E-01
RMM:   5    -0.413168573792E+03    0.34534E-01   -0.16990E-02  4804   0.128E-01    0.385E-02
RMM:   6    -0.413168769565E+03   -0.19577E-03   -0.26803E-03  5782   0.500E-02    0.192E-02
RMM:   7    -0.413168780284E+03   -0.10719E-04   -0.31077E-04  5897   0.146E-02    0.143E-02
RMM:   8    -0.413168778442E+03    0.18428E-05   -0.40723E-05  4575   0.567E-03    0.907E-03
RMM:   9    -0.413168774199E+03    0.42425E-05   -0.69474E-06  3068   0.295E-03    0.613E-03
RMM:  10    -0.413168770681E+03    0.35178E-05   -0.21107E-06  2549   0.214E-03    0.318E-03
RMM:  11    -0.413168767785E+03    0.28962E-05   -0.15834E-06  2535   0.189E-03    0.156E-03
RMM:  12    -0.413168765507E+03    0.22782E-05   -0.78268E-07  2445   0.143E-03    0.514E-04
RMM:  13    -0.413168764771E+03    0.73622E-06   -0.33335E-07  2106   0.971E-04
   17 T=    62. E= -.41286616E+03 F= -.41316876E+03 E0= -.41314661E+03  EK= 0.30260E+00 SP= 0.00E+00 SK= 0.00E+00
       N       E                     dE             d eps       ncg     rms          rms(c)
RMM:   1    -0.413159713935E+03    0.90516E-02   -0.11278E+01  4300   0.768E-01    0.890E-01
RMM:   2    -0.413171095431E+03   -0.11381E-01   -0.13934E-01  4260   0.101E-01    0.644E-01
RMM:   3    -0.413169770945E+03    0.13245E-02   -0.64197E-03  4905   0.398E-02    0.172E-01
RMM:   4    -0.413205180522E+03   -0.35410E-01   -0.36651E-02  5143   0.159E-01    0.783E-01
RMM:   5    -0.413169091891E+03    0.36089E-01   -0.17663E-02  4799   0.131E-01    0.388E-02
RMM:   6    -0.413169297065E+03   -0.20517E-03   -0.28088E-03  5782   0.511E-02    0.184E-02
RMM:   7    -0.413169312147E+03   -0.15082E-04   -0.32470E-04  5904   0.149E-02    0.141E-02
RMM:   8    -0.413169312807E+03   -0.66013E-06   -0.42181E-05  4618   0.575E-03    0.901E-03
RMM:   9    -0.413169311426E+03    0.13810E-05   -0.71158E-06  3075   0.298E-03    0.607E-03
RMM:  10    -0.413169311603E+03   -0.17606E-06   -0.22889E-06  2564   0.219E-03
   18 T=    62. E= -.41286608E+03 F= -.41316931E+03 E0= -.41314719E+03  EK= 0.30323E+00 SP= 0.00E+00 SK= 0.00E+00
       N       E                     dE             d eps       ncg     rms          rms(c)
RMM:   1    -0.413161437799E+03    0.78736E-02   -0.11336E+01  4305   0.771E-01    0.915E-01
RMM:   2    -0.413171558528E+03   -0.10121E-01   -0.13782E-01  4302   0.101E-01    0.639E-01
RMM:   3    -0.413174435705E+03   -0.28772E-02   -0.98218E-03  5124   0.685E-02    0.312E-01
RMM:   4    -0.413199374893E+03   -0.24939E-01   -0.41100E-02  5090   0.171E-01    0.708E-01
RMM:   5    -0.413170340073E+03    0.29035E-01   -0.12105E-02  4714   0.117E-01    0.495E-02
RMM:   6    -0.413170396564E+03   -0.56491E-04   -0.19967E-03  5598   0.442E-02    0.168E-02
RMM:   7    -0.413170410718E+03   -0.14154E-04   -0.26424E-04  6001   0.141E-02    0.121E-02
RMM:   8    -0.413170408577E+03    0.21407E-05   -0.34818E-05  4659   0.549E-03    0.697E-03
RMM:   9    -0.413170401100E+03    0.74771E-05   -0.61473E-06  2861   0.329E-03    0.326E-03
RMM:  10    -0.413170397818E+03    0.32816E-05   -0.17808E-06  2538   0.198E-03    0.185E-03
RMM:  11    -0.413170394006E+03    0.38125E-05   -0.88075E-07  2514   0.144E-03    0.935E-04
RMM:  12    -0.413170391593E+03    0.24127E-05   -0.43917E-07  1986   0.103E-03    0.474E-04
RMM:  13    -0.413170388867E+03    0.27262E-05   -0.31900E-07  1795   0.893E-04    0.226E-04
RMM:  14    -0.413170387381E+03    0.14857E-05   -0.17830E-07  1382   0.724E-04    0.141E-04
RMM:  15    -0.413170384451E+03    0.29300E-05   -0.20269E-07  1631   0.748E-04    0.110E-04
RMM:  16    -0.413170382785E+03    0.16667E-05   -0.11369E-07  1194   0.631E-04    0.948E-05
RMM:  17    -0.413170380744E+03    0.20408E-05   -0.10069E-07  1243   0.625E-04    0.501E-05
RMM:  18    -0.413170378947E+03    0.17970E-05   -0.68972E-08  1023   0.573E-04    0.293E-05
RMM:  19    -0.413170378529E+03    0.41780E-06   -0.32746E-08   798   0.531E-04
   19 T=    62. E= -.41286631E+03 F= -.41317038E+03 E0= -.41314830E+03  EK= 0.30407E+00 SP= 0.00E+00 SK= 0.00E+00
       N       E                     dE             d eps       ncg     rms          rms(c)
RMM:   1    -0.413163364631E+03    0.70143E-02   -0.11300E+01  4299   0.799E-01    0.905E-01
RMM:   2    -0.413172150547E+03   -0.87859E-02   -0.13771E-01  4250   0.101E-01    0.632E-01
RMM:   3    -0.413171475856E+03    0.67469E-03   -0.66989E-03  4955   0.413E-02    0.186E-01
RMM:   4    -0.413210826560E+03   -0.39351E-01   -0.41254E-02  5148   0.168E-01    0.824E-01
RMM:   5    -0.413170748371E+03    0.40078E-01   -0.19648E-02  4794   0.138E-01    0.425E-02
RMM:   6    -0.413170955460E+03   -0.20709E-03   -0.31078E-03  5760   0.541E-02    0.201E-02
RMM:   7    -0.413170968861E+03   -0.13401E-04   -0.36682E-04  5883   0.158E-02    0.151E-02
RMM:   8    -0.413170966021E+03    0.28410E-05   -0.47257E-05  4738   0.603E-03    0.952E-03
RMM:   9    -0.413170960153E+03    0.58672E-05   -0.78223E-06  3133   0.305E-03    0.633E-03
RMM:  10    -0.413170954796E+03    0.53571E-05   -0.22684E-06  2548   0.222E-03    0.323E-03
RMM:  11    -0.413170950696E+03    0.40997E-05   -0.15451E-06  2525   0.190E-03    0.157E-03
RMM:  12    -0.413170947703E+03    0.29936E-05   -0.76891E-07  2454   0.145E-03    0.508E-04
RMM:  13    -0.413170946780E+03    0.92298E-06   -0.33775E-07  2123   0.992E-04
   20 T=    62. E= -.41286615E+03 F= -.41317095E+03 E0= -.41314891E+03  EK= 0.30480E+00 SP= 0.00E+00 SK= 0.00E+00
       N       E                     dE             d eps       ncg     rms          rms(c)
RMM:   1    -0.413162327646E+03    0.86201E-02   -0.11327E+01  4296   0.785E-01    0.891E-01
RMM:   2    -0.413173348865E+03   -0.11021E-01   -0.14096E-01  4269   0.103E-01    0.644E-01
RMM:   3    -0.413172207163E+03    0.11417E-02   -0.64826E-03  4915   0.404E-02    0.174E-01
RMM:   4    -0.413208188709E+03   -0.35982E-01   -0.37270E-02  5145   0.160E-01    0.788E-01
RMM:   5    -0.413171515108E+03    0.36674E-01   -0.18028E-02  4800   0.132E-01    0.388E-02
RMM:   6    -0.413171714493E+03   -0.19938E-03   -0.28669E-03  5799   0.519E-02    0.186E-02
RMM:   7    -0.413171730259E+03   -0.15766E-04   -0.33037E-04  5909   0.151E-02    0.142E-02
RMM:   8    -0.413171730049E+03    0.20993E-06   -0.44271E-05  4683   0.587E-03    0.924E-03
RMM:   9    -0.413171727176E+03    0.28738E-05   -0.73271E-06  3107   0.305E-03    0.625E-03
RMM:  10    -0.413171725687E+03    0.14887E-05   -0.22996E-06  2561   0.224E-03    0.326E-03
RMM:  11    -0.413171724574E+03    0.11132E-05   -0.17542E-06  2558   0.196E-03    0.160E-03
RMM:  12    -0.413171723510E+03    0.10639E-05   -0.80822E-07  2450   0.145E-03    0.535E-04
RMM:  13    -0.413171723125E+03    0.38520E-06   -0.33829E-07  2112   0.975E-04
   21 T=    62. E= -.41286603E+03 F= -.41317172E+03 E0= -.41314973E+03  EK= 0.30570E+00 SP= 0.00E+00 SK= 0.00E+00
       N       E                     dE             d eps       ncg     rms          rms(c)
RMM:   1    -0.413163450279E+03    0.82732E-02   -0.11406E+01  4300   0.785E-01    0.912E-01
RMM:   2    -0.413174200513E+03   -0.10750E-01   -0.13983E-01  4272   0.100E-01    0.643E-01
RMM:   3    -0.413173323731E+03    0.87678E-03   -0.66915E-03  4877   0.405E-02    0.177E-01
RMM:   4    -0.413207875640E+03   -0.34552E-01   -0.35500E-02  5145   0.156E-01    0.772E-01
RMM:   5    -0.413172777813E+03    0.35098E-01   -0.17257E-02  4795   0.129E-01    0.390E-02
RMM:   6    -0.413172971718E+03   -0.19390E-03   -0.27946E-03  5780   0.510E-02    0.195E-02
RMM:   7    -0.413172983269E+03   -0.11550E-04   -0.32128E-04  5885   0.149E-02    0.145E-02
RMM:   8    -0.413172980414E+03    0.28543E-05   -0.42715E-05  4692   0.584E-03    0.936E-03
RMM:   9    -0.413172974517E+03    0.58976E-05   -0.74378E-06  3126   0.305E-03    0.630E-03
RMM:  10    -0.413172969433E+03    0.50840E-05   -0.20805E-06  2545   0.217E-03    0.331E-03
RMM:  11    -0.413172964964E+03    0.44690E-05   -0.16077E-06  2530   0.194E-03    0.164E-03
RMM:  12    -0.413172961673E+03    0.32911E-05   -0.76387E-07  2454   0.144E-03    0.534E-04
RMM:  13    -0.413172960627E+03    0.10454E-05   -0.32498E-07  2120   0.972E-04    0.331E-04
RMM:  14    -0.413172959204E+03    0.14236E-05   -0.17520E-07  1568   0.760E-04    0.179E-04
RMM:  15    -0.413172956326E+03    0.28778E-05   -0.16712E-07  1571   0.745E-04    0.158E-04
RMM:  16    -0.413172955791E+03    0.53482E-06   -0.65844E-08  1010   0.606E-04
   22 T=    62. E= -.41286632E+03 F= -.41317296E+03 E0= -.41315101E+03  EK= 0.30663E+00 SP= 0.00E+00 SK= 0.00E+00
       N       E                     dE             d eps       ncg     rms          rms(c)
RMM:   1    -0.413164548105E+03    0.84082E-02   -0.11395E+01  4298   0.791E-01    0.915E-01
RMM:   2    -0.413174804161E+03   -0.10256E-01   -0.13833E-01  4278   0.107E-01    0.636E-01
RMM:   3    -0.413174091912E+03    0.71225E-03   -0.68471E-03  4880   0.437E-02    0.182E-01
RMM:   4    -0.413210556792E+03   -0.36465E-01   -0.37615E-02  5146   0.161E-01    0.793E-01
RMM:   5    -0.413173438463E+03    0.37118E-01   -0.18124E-02  4792   0.133E-01    0.408E-02
RMM:   6    -0.413173642477E+03   -0.20401E-03   -0.29969E-03  5782   0.526E-02    0.206E-02
RMM:   7    -0.413173653097E+03   -0.10620E-04   -0.33961E-04  5895   0.154E-02    0.152E-02
RMM:   8    -0.413173648640E+03    0.44567E-05   -0.44729E-05  4727   0.600E-03    0.980E-03
RMM:   9    -0.413173640865E+03    0.77758E-05   -0.78284E-06  3153   0.314E-03    0.659E-03
RMM:  10    -0.413173633573E+03    0.72917E-05   -0.21615E-06  2546   0.225E-03    0.346E-03
RMM:  11    -0.413173627049E+03    0.65237E-05   -0.16544E-06  2527   0.199E-03    0.171E-03
RMM:  12    -0.413173622391E+03    0.46581E-05   -0.78766E-07  2457   0.149E-03    0.550E-04
RMM:  13    -0.413173620927E+03    0.14639E-05   -0.34057E-07  2139   0.997E-04    0.346E-04
RMM:  14    -0.413173619073E+03    0.18548E-05   -0.18229E-07  1633   0.774E-04    0.186E-04
RMM:  15    -0.413173615234E+03    0.38390E-05   -0.16636E-07  1597   0.751E-04    0.163E-04
RMM:  16    -0.413173614659E+03    0.57446E-06   -0.67373E-08  1019   0.607E-04
   23 T=    63. E= -.41286613E+03 F= -.41317361E+03 E0= -.41315172E+03  EK= 0.30748E+00 SP= 0.00E+00 SK= 0.00E+00
       N       E                     dE             d eps       ncg     rms          rms(c)
RMM:   1    -0.413165533114E+03    0.80821E-02   -0.11390E+01  4296   0.794E-01    0.894E-01
RMM:   2    -0.413176906062E+03   -0.11373E-01   -0.14163E-01  4280   0.104E-01    0.643E-01
RMM:   3    -0.413175499094E+03    0.14070E-02   -0.63759E-03  4813   0.413E-02    0.171E-01
RMM:   4    -0.413205023684E+03   -0.29525E-01   -0.30105E-02  5153   0.144E-01    0.715E-01
RMM:   5    -0.413175033027E+03    0.29991E-01   -0.14857E-02  4805   0.120E-01    0.349E-02
RMM:   6    -0.413175198222E+03   -0.16520E-03   -0.23663E-03  5793   0.467E-02    0.180E-02
RMM:   7    -0.413175209185E+03   -0.10963E-04   -0.25811E-04  5831   0.137E-02    0.130E-02
RMM:   8    -0.413175208008E+03    0.11775E-05   -0.37775E-05  4633   0.555E-03    0.887E-03
RMM:   9    -0.413175203334E+03    0.46731E-05   -0.68207E-06  3105   0.303E-03    0.598E-03
RMM:  10    -0.413175200464E+03    0.28709E-05   -0.19092E-06  2547   0.211E-03    0.325E-03
RMM:  11    -0.413175198056E+03    0.24080E-05   -0.15998E-06  2535   0.191E-03    0.160E-03
RMM:  12    -0.413175196189E+03    0.18669E-05   -0.72450E-07  2431   0.140E-03    0.534E-04
RMM:  13    -0.413175195643E+03    0.54557E-06   -0.29579E-07  2042   0.931E-04
   24 T=    63. E= -.41286648E+03 F= -.41317520E+03 E0= -.41315335E+03  EK= 0.30872E+00 SP= 0.00E+00 SK= 0.00E+00
       N       E                     dE             d eps       ncg     rms          rms(c)
RMM:   1    -0.413166687920E+03    0.85083E-02   -0.11499E+01  4293   0.802E-01    0.909E-01
RMM:   2    -0.413177874782E+03   -0.11187E-01   -0.14152E-01  4275   0.107E-01    0.648E-01
RMM:   3    -0.413176486820E+03    0.13880E-02   -0.65110E-03  4785   0.428E-02    0.173E-01
RMM:   4    -0.413206247239E+03   -0.29760E-01   -0.30162E-02  5148   0.145E-01    0.718E-01
RMM:   5    -0.413176039334E+03    0.30208E-01   -0.14884E-02  4803   0.120E-01    0.353E-02
RMM:   6    -0.413176202209E+03   -0.16287E-03   -0.23849E-03  5809   0.467E-02    0.185E-02
RMM:   7    -0.413176211589E+03   -0.93809E-05   -0.25246E-04  5813   0.136E-02    0.130E-02
RMM:   8    -0.413176209272E+03    0.23178E-05   -0.37881E-05  4655   0.559E-03    0.904E-03
RMM:   9    -0.413176203087E+03    0.61842E-05   -0.71707E-06  3171   0.312E-03    0.606E-03
RMM:  10    -0.413176198597E+03    0.44903E-05   -0.19108E-06  2544   0.216E-03    0.329E-03
RMM:  11    -0.413176194356E+03    0.42407E-05   -0.16529E-06  2535   0.196E-03    0.161E-03
RMM:  12    -0.413176191395E+03    0.29616E-05   -0.71902E-07  2440   0.141E-03    0.531E-04
RMM:  13    -0.413176190537E+03    0.85831E-06   -0.29197E-07  2050   0.929E-04
   25 T=    63. E= -.41286638E+03 F= -.41317619E+03 E0= -.41315439E+03  EK= 0.30981E+00 SP= 0.00E+00 SK= 0.00E+00
       N       E                     dE             d eps       ncg     rms          rms(c)
RMM:   1    -0.413168089514E+03    0.81019E-02   -0.11525E+01  4295   0.810E-01    0.924E-01
RMM:   2    -0.413178262109E+03   -0.10173E-01   -0.14060E-01  4275   0.110E-01    0.640E-01
RMM:   3    -0.413177488871E+03    0.77324E-03   -0.67906E-03  4689   0.420E-02    0.173E-01
RMM:   4    -0.413200622482E+03   -0.23134E-01   -0.23309E-02  5147   0.128E-01    0.635E-01
RMM:   5    -0.413177153828E+03    0.23469E-01   -0.11688E-02  4808   0.106E-01    0.328E-02
RMM:   6    -0.413177273322E+03   -0.11949E-03   -0.18366E-03  5812   0.407E-02    0.182E-02
RMM:   7    -0.413177276538E+03   -0.32151E-05   -0.18361E-04  5633   0.119E-02    0.114E-02
RMM:   8    -0.413177271252E+03    0.52853E-05   -0.28002E-05  4330   0.492E-03    0.807E-03
RMM:   9    -0.413177263361E+03    0.78917E-05   -0.65107E-06  3136   0.301E-03    0.548E-03
RMM:  10    -0.413177256557E+03    0.68037E-05   -0.15444E-06  2524   0.205E-03    0.314E-03
RMM:  11    -0.413177247812E+03    0.87450E-05   -0.15453E-06  2531   0.193E-03    0.149E-03
RMM:  12    -0.413177242061E+03    0.57508E-05   -0.61970E-07  2415   0.136E-03    0.506E-04
RMM:  13    -0.413177240659E+03    0.14018E-05   -0.24501E-07  1958   0.883E-04    0.327E-04
RMM:  14    -0.413177237566E+03    0.30929E-05   -0.14661E-07  1535   0.741E-04    0.161E-04
RMM:  15    -0.413177233363E+03    0.42034E-05   -0.12826E-07  1545   0.707E-04    0.205E-04
RMM:  16    -0.413177232544E+03    0.81864E-06   -0.47179E-08   912   0.571E-04
   26 T=    63. E= -.41286616E+03 F= -.41317723E+03 E0= -.41315548E+03  EK= 0.31107E+00 SP= 0.00E+00 SK= 0.00E+00
       N       E                     dE             d eps       ncg     rms          rms(c)
RMM:   1    -0.413169338100E+03    0.78953E-02   -0.11495E+01  4291   0.812E-01    0.900E-01
RMM:   2    -0.413180481810E+03   -0.11144E-01   -0.14220E-01  4271   0.104E-01    0.643E-01
RMM:   3    -0.413179428133E+03    0.10537E-02   -0.64266E-03  4666   0.414E-02    0.170E-01
RMM:   4    -0.413200136383E+03   -0.20708E-01   -0.20865E-02  5157   0.121E-01    0.601E-01
RMM:   5    -0.413179159256E+03    0.20977E-01   -0.10467E-02  4811   0.997E-02    0.300E-02
RMM:   6    -0.413179268158E+03   -0.10890E-03   -0.16587E-03  5835   0.382E-02    0.167E-02
RMM:   7    -0.413179273158E+03   -0.49999E-05   -0.16271E-04  5557   0.112E-02    0.104E-02
RMM:   8    -0.413179269920E+03    0.32381E-05   -0.23981E-05  4146   0.460E-03    0.731E-03
RMM:   9    -0.413179264795E+03    0.51250E-05   -0.61719E-06  3092   0.294E-03    0.507E-03
RMM:  10    -0.413179261500E+03    0.32953E-05   -0.14616E-06  2524   0.200E-03    0.297E-03
RMM:  11    -0.413179257170E+03    0.43295E-05   -0.14516E-06  2533   0.185E-03    0.145E-03
RMM:  12    -0.413179254137E+03    0.30333E-05   -0.58867E-07  2405   0.131E-03    0.514E-04
RMM:  13    -0.413179253366E+03    0.77120E-06   -0.22123E-07  1888   0.850E-04
   27 T=    64. E= -.41286650E+03 F= -.41317925E+03 E0= -.41315756E+03  EK= 0.31276E+00 SP= 0.00E+00 SK= 0.00E+00
       N       E                     dE             d eps       ncg     rms          rms(c)
RMM:   1    -0.413170695869E+03    0.85583E-02   -0.11632E+01  4292   0.834E-01    0.909E-01
RMM:   2    -0.413181645672E+03   -0.10950E-01   -0.14568E-01  4270   0.108E-01    0.654E-01
RMM:   3    -0.413180408786E+03    0.12369E-02   -0.65448E-03  4530   0.423E-02    0.166E-01
RMM:   4    -0.413193728215E+03   -0.13319E-01   -0.13706E-02  5153   0.998E-02    0.487E-01
RMM:   5    -0.413180121092E+03    0.13607E-01   -0.67183E-03  4818   0.799E-02    0.251E-02
RMM:   6    -0.413180177644E+03   -0.56552E-04   -0.10560E-03  5847   0.303E-02    0.148E-02
RMM:   7    -0.413180181123E+03   -0.34784E-05   -0.10463E-04  5384   0.933E-03    0.922E-03
RMM:   8    -0.413180175835E+03    0.52882E-05   -0.17315E-05  4011   0.421E-03    0.611E-03
RMM:   9    -0.413180172983E+03    0.28512E-05   -0.44563E-06  2893   0.277E-03    0.423E-03
RMM:  10    -0.413180169453E+03    0.35302E-05   -0.10036E-06  2507   0.175E-03    0.248E-03
RMM:  11    -0.413180165354E+03    0.40996E-05   -0.10114E-06  2496   0.159E-03    0.120E-03
RMM:  12    -0.413180162212E+03    0.31412E-05   -0.50533E-07  2328   0.117E-03    0.397E-04
RMM:  13    -0.413180161486E+03    0.72664E-06   -0.18116E-07  1595   0.770E-04
   28 T=    64. E= -.41286596E+03 F= -.41318016E+03 E0= -.41315851E+03  EK= 0.31420E+00 SP= 0.00E+00 SK= 0.00E+00
       N       E                     dE             d eps       ncg     rms          rms(c)
RMM:   1    -0.413173251495E+03    0.69107E-02   -0.11705E+01  4290   0.841E-01    0.933E-01
RMM:   2    -0.413183460943E+03   -0.10209E-01   -0.14353E-01  4273   0.113E-01    0.647E-01
RMM:   3    -0.413182439232E+03    0.10217E-02   -0.68846E-03  4350   0.407E-02    0.170E-01
RMM:   4    -0.413186673457E+03   -0.42342E-02   -0.47326E-03  5161   0.585E-02    0.272E-01
RMM:   5    -0.413182477428E+03    0.41960E-02   -0.20461E-03  4825   0.445E-02    0.221E-02
RMM:   6    -0.413182480925E+03   -0.34971E-05   -0.35638E-04  5779   0.182E-02    0.156E-02
RMM:   7    -0.413182472702E+03    0.82223E-05   -0.62014E-05  5132   0.793E-03    0.755E-03
RMM:   8    -0.413182463260E+03    0.94423E-05   -0.67300E-06  2987   0.324E-03    0.341E-03
RMM:   9    -0.413182458331E+03    0.49297E-05   -0.12527E-06  2539   0.180E-03    0.234E-03
RMM:  10    -0.413182451420E+03    0.69106E-05   -0.67191E-07  2435   0.133E-03    0.128E-03
RMM:  11    -0.413182445117E+03    0.63026E-05   -0.42675E-07  2179   0.106E-03    0.473E-04
RMM:  12    -0.413182440915E+03    0.42021E-05   -0.21606E-07  1639   0.812E-04    0.209E-04
RMM:  13    -0.413182437621E+03    0.32942E-05   -0.12975E-07  1280   0.698E-04    0.112E-04
RMM:  14    -0.413182433252E+03    0.43686E-05   -0.11384E-07  1421   0.694E-04    0.101E-04
RMM:  15    -0.413182429644E+03    0.36081E-05   -0.87627E-08  1299   0.634E-04    0.983E-05
RMM:  16    -0.413182426970E+03    0.26742E-05   -0.62599E-08  1119   0.578E-04    0.389E-05
RMM:  17    -0.413182425345E+03    0.16255E-05   -0.39730E-08   903   0.540E-04    0.269E-05
RMM:  18    -0.413182424808E+03    0.53713E-06   -0.20999E-08   745   0.512E-04
   29 T=    64. E= -.41286640E+03 F= -.41318242E+03 E0= -.41316083E+03  EK= 0.31603E+00 SP= 0.00E+00 SK= 0.00E+00
       N       E                     dE             d eps       ncg     rms          rms(c)
RMM:   1    -0.413174387449E+03    0.80379E-02   -0.11660E+01  4289   0.843E-01    0.910E-01
RMM:   2    -0.413185443103E+03   -0.11056E-01   -0.14586E-01  4271   0.109E-01    0.646E-01
RMM:   3    -0.413184229360E+03    0.12137E-02   -0.65518E-03  4443   0.434E-02    0.170E-01
RMM:   4    -0.413192366482E+03   -0.81371E-02   -0.86504E-03  5146   0.809E-02    0.382E-01
RMM:   5    -0.413184073964E+03    0.82925E-02   -0.41252E-03  4823   0.624E-02    0.227E-02
RMM:   6    -0.413184093522E+03   -0.19558E-04   -0.62932E-04  5837   0.237E-02    0.151E-02
RMM:   7    -0.413184091625E+03    0.18965E-05   -0.82994E-05  5366   0.884E-03    0.934E-03
RMM:   8    -0.413184083493E+03    0.81323E-05   -0.11203E-05  3514   0.394E-03    0.439E-03
RMM:   9    -0.413184079168E+03    0.43253E-05   -0.23793E-06  2639   0.225E-03    0.294E-03
RMM:  10    -0.413184074868E+03    0.43000E-05   -0.74112E-07  2466   0.143E-03    0.175E-03
RMM:  11    -0.413184069898E+03    0.49696E-05   -0.56168E-07  2393   0.121E-03    0.748E-04
RMM:  12    -0.413184066394E+03    0.35040E-05   -0.29608E-07  1920   0.910E-04    0.273E-04
RMM:  13    -0.413184064914E+03    0.14800E-05   -0.13775E-07  1259   0.702E-04    0.159E-04
RMM:  14    -0.413184062498E+03    0.24163E-05   -0.10487E-07  1223   0.672E-04    0.917E-05
RMM:  15    -0.413184059735E+03    0.27628E-05   -0.86981E-08  1206   0.650E-04    0.865E-05
RMM:  16    -0.413184058910E+03    0.82470E-06   -0.44303E-08   900   0.582E-04
   30 T=    65. E= -.41286637E+03 F= -.41318406E+03 E0= -.41316251E+03  EK= 0.31769E+00 SP= 0.00E+00 SK= 0.00E+00
       N       E                     dE             d eps       ncg     rms          rms(c)
RMM:   1    -0.413178125731E+03    0.59340E-02   -0.11808E+01  4290   0.892E-01    0.911E-01
RMM:   2    -0.413188033547E+03   -0.99078E-02   -0.15113E-01  4271   0.121E-01    0.660E-01
RMM:   3    -0.413185879712E+03    0.21538E-02   -0.63812E-03  4377   0.405E-02    0.168E-01
RMM:   4    -0.413189965681E+03   -0.40860E-02   -0.47922E-03  5139   0.591E-02    0.269E-01
RMM:   5    -0.413185869150E+03    0.40965E-02   -0.20305E-03  4825   0.440E-02    0.195E-02
RMM:   6    -0.413185872182E+03   -0.30316E-05   -0.32483E-04  5775   0.176E-02    0.141E-02
RMM:   7    -0.413185869642E+03    0.25400E-05   -0.53910E-05  5046   0.744E-03    0.696E-03
RMM:   8    -0.413185864217E+03    0.54248E-05   -0.73078E-06  3088   0.334E-03    0.325E-03
RMM:   9    -0.413185862299E+03    0.19178E-05   -0.12198E-06  2529   0.181E-03    0.212E-03
RMM:  10    -0.413185859337E+03    0.29616E-05   -0.60528E-07  2330   0.121E-03    0.121E-03
RMM:  11    -0.413185856418E+03    0.29195E-05   -0.41728E-07  2086   0.100E-03    0.452E-04
RMM:  12    -0.413185854274E+03    0.21435E-05   -0.22429E-07  1588   0.795E-04    0.198E-04
RMM:  13    -0.413185852816E+03    0.14586E-05   -0.12939E-07  1208   0.679E-04    0.115E-04
RMM:  14    -0.413185851049E+03    0.17672E-05   -0.97674E-08  1153   0.655E-04    0.622E-05
RMM:  15    -0.413185848956E+03    0.20927E-05   -0.90031E-08  1230   0.648E-04    0.680E-05
RMM:  16    -0.413185848016E+03    0.94009E-06   -0.44221E-08   899   0.572E-04
   31 T=    65. E= -.41286640E+03 F= -.41318585E+03 E0= -.41316435E+03  EK= 0.31945E+00 SP= 0.00E+00 SK= 0.00E+00
       N       E                     dE             d eps       ncg     rms          rms(c)
RMM:   1    -0.413187538465E+03   -0.16895E-02   -0.11977E+01  4293   0.931E-01    0.938E-01
RMM:   2    -0.413189821185E+03   -0.22827E-02   -0.15265E-01  4269   0.120E-01    0.655E-01
RMM:   3    -0.413188644448E+03    0.11767E-02   -0.69123E-03  4285   0.488E-02    0.176E-01
RMM:   4    -0.413191392447E+03   -0.27480E-02   -0.34716E-03  5109   0.528E-02    0.220E-01
RMM:   5    -0.413188674768E+03    0.27177E-02   -0.12943E-03  4805   0.359E-02    0.216E-02
RMM:   6    -0.413188669317E+03    0.54505E-05   -0.24382E-04  5723   0.156E-02    0.158E-02
RMM:   7    -0.413188657313E+03    0.12004E-04   -0.47981E-05  4859   0.720E-03    0.599E-03
RMM:   8    -0.413188648750E+03    0.85635E-05   -0.57784E-06  2980   0.312E-03    0.308E-03
RMM:   9    -0.413188645157E+03    0.35931E-05   -0.85331E-07  2488   0.167E-03    0.196E-03
RMM:  10    -0.413188637908E+03    0.72486E-05   -0.55383E-07  2345   0.119E-03    0.101E-03
RMM:  11    -0.413188632869E+03    0.50387E-05   -0.29666E-07  1836   0.897E-04    0.410E-04
RMM:  12    -0.413188628130E+03    0.47398E-05   -0.18576E-07  1580   0.775E-04    0.172E-04
RMM:  13    -0.413188624680E+03    0.34496E-05   -0.11252E-07  1252   0.675E-04    0.996E-05
RMM:  14    -0.413188621495E+03    0.31852E-05   -0.81218E-08  1177   0.634E-04    0.677E-05
RMM:  15    -0.413188616438E+03    0.50567E-05   -0.89688E-08  1355   0.657E-04    0.623E-05
RMM:  16    -0.413188614863E+03    0.15754E-05   -0.41939E-08   917   0.557E-04    0.441E-05
RMM:  17    -0.413188613146E+03    0.17164E-05   -0.35351E-08   925   0.551E-04    0.226E-05
RMM:  18    -0.413188612664E+03    0.48200E-06   -0.18684E-08   704   0.506E-04
   32 T=    65. E= -.41286692E+03 F= -.41318861E+03 E0= -.41316716E+03  EK= 0.32170E+00 SP= 0.00E+00 SK= 0.00E+00
       N       E                     dE             d eps       ncg     rms          rms(c)
RMM:   1    -0.413184738745E+03    0.38744E-02   -0.11905E+01  4293   0.932E-01    0.924E-01
RMM:   2    -0.413192077056E+03   -0.73383E-02   -0.15337E-01  4277   0.131E-01    0.651E-01
RMM:   3    -0.413190535598E+03    0.15415E-02   -0.64710E-03  4208   0.392E-02    0.177E-01
RMM:   4    -0.413191358150E+03   -0.82255E-03   -0.18334E-03  5068   0.360E-02    0.124E-01
RMM:   5    -0.413190497257E+03    0.86089E-03   -0.41674E-04  4764   0.209E-02    0.202E-02
RMM:   6    -0.413190487399E+03    0.98584E-05   -0.10913E-04  5479   0.110E-02    0.149E-02
RMM:   7    -0.413190473897E+03    0.13501E-04   -0.30178E-05  4340   0.600E-03    0.429E-03
RMM:   8    -0.413190467504E+03    0.63931E-05   -0.36937E-06  2758   0.273E-03    0.267E-03
RMM:   9    -0.413190464985E+03    0.25191E-05   -0.60933E-07  2435   0.150E-03    0.166E-03
RMM:  10    -0.413190458246E+03    0.67396E-05   -0.44269E-07  2142   0.105E-03    0.759E-04
RMM:  11    -0.413190452755E+03    0.54907E-05   -0.23815E-07  1617   0.802E-04    0.290E-04
RMM:  12    -0.413190449341E+03    0.34143E-05   -0.13553E-07  1450   0.702E-04    0.170E-04
RMM:  13    -0.413190444740E+03    0.46003E-05   -0.98362E-08  1225   0.651E-04    0.885E-05
RMM:  14    -0.413190441517E+03    0.32230E-05   -0.60794E-08  1035   0.596E-04    0.705E-05
RMM:  15    -0.413190438986E+03    0.25316E-05   -0.43274E-08   934   0.561E-04    0.521E-05
RMM:  16    -0.413190435135E+03    0.38513E-05   -0.51137E-08  1076   0.589E-04    0.486E-05
RMM:  17    -0.413190434887E+03    0.24710E-06   -0.15606E-08   635   0.503E-04
   33 T=    66. E= -.41286663E+03 F= -.41319043E+03 E0= -.41316904E+03  EK= 0.32380E+00 SP= 0.00E+00 SK= 0.00E+00
       N       E                     dE             d eps       ncg     rms          rms(c)
RMM:   1    -0.413185883944E+03    0.45512E-02   -0.12018E+01  4290   0.926E-01    0.915E-01
RMM:   2    -0.413194646114E+03   -0.87622E-02   -0.15663E-01  4268   0.128E-01    0.664E-01
RMM:   3    -0.413193004977E+03    0.16411E-02   -0.64306E-03  4367   0.452E-02    0.175E-01
RMM:   4    -0.413197716360E+03   -0.47114E-02   -0.53915E-03  5134   0.654E-02    0.290E-01
RMM:   5    -0.413193001574E+03    0.47148E-02   -0.22733E-03  4798   0.474E-02    0.214E-02
RMM:   6    -0.413192990695E+03    0.10879E-04   -0.37262E-04  5732   0.197E-02    0.147E-02
RMM:   7    -0.413192989141E+03    0.15538E-05   -0.60483E-05  5086   0.799E-03    0.739E-03
RMM:   8    -0.413192983550E+03    0.55912E-05   -0.91846E-06  3339   0.369E-03    0.351E-03
RMM:   9    -0.413192981287E+03    0.22635E-05   -0.15084E-06  2554   0.197E-03    0.215E-03
RMM:  10    -0.413192978006E+03    0.32805E-05   -0.61993E-07  2360   0.126E-03    0.122E-03
RMM:  11    -0.413192974397E+03    0.36093E-05   -0.44371E-07  2172   0.104E-03    0.496E-04
RMM:  12    -0.413192971658E+03    0.27385E-05   -0.24903E-07  1662   0.822E-04    0.207E-04
RMM:  13    -0.413192970056E+03    0.16021E-05   -0.12943E-07  1156   0.679E-04    0.123E-04
RMM:  14    -0.413192968449E+03    0.16070E-05   -0.94271E-08  1087   0.646E-04    0.661E-05
RMM:  15    -0.413192966013E+03    0.24364E-05   -0.87194E-08  1161   0.648E-04    0.577E-05
RMM:  16    -0.413192965431E+03    0.58207E-06   -0.42290E-08   844   0.576E-04
   34 T=    66. E= -.41286678E+03 F= -.41319297E+03 E0= -.41317161E+03  EK= 0.32618E+00 SP= 0.00E+00 SK= 0.00E+00
       N       E                     dE             d eps       ncg     rms          rms(c)
RMM:   1    -0.413186161324E+03    0.68047E-02   -0.12117E+01  4299   0.934E-01    0.941E-01
RMM:   2    -0.413196974672E+03   -0.10813E-01   -0.15723E-01  4262   0.134E-01    0.664E-01
RMM:   3    -0.413195694802E+03    0.12799E-02   -0.67189E-03  4486   0.447E-02    0.182E-01
RMM:   4    -0.413204455799E+03   -0.87610E-02   -0.93221E-03  5159   0.827E-02    0.398E-01
RMM:   5    -0.413195497975E+03    0.89578E-02   -0.45350E-03  4815   0.657E-02    0.255E-02
RMM:   6    -0.413195488504E+03    0.94709E-05   -0.72634E-04  5789   0.261E-02    0.163E-02
RMM:   7    -0.413195485821E+03    0.26824E-05   -0.10269E-04  5404   0.938E-03    0.951E-03
RMM:   8    -0.413195477177E+03    0.86446E-05   -0.14184E-05  3731   0.416E-03    0.461E-03
RMM:   9    -0.413195471948E+03    0.52291E-05   -0.26295E-06  2676   0.231E-03    0.278E-03
RMM:  10    -0.413195465907E+03    0.60404E-05   -0.78746E-07  2481   0.145E-03    0.162E-03
RMM:  11    -0.413195458972E+03    0.69350E-05   -0.55304E-07  2383   0.119E-03    0.724E-04
RMM:  12    -0.413195453304E+03    0.56685E-05   -0.32319E-07  2035   0.937E-04    0.273E-04
RMM:  13    -0.413195451070E+03    0.22334E-05   -0.14565E-07  1301   0.711E-04    0.170E-04
RMM:  14    -0.413195447763E+03    0.33074E-05   -0.10298E-07  1147   0.665E-04    0.972E-05
RMM:  15    -0.413195443399E+03    0.43642E-05   -0.88293E-08  1205   0.661E-04    0.768E-05
RMM:  16    -0.413195442078E+03    0.13203E-05   -0.51237E-08   953   0.601E-04    0.578E-05
RMM:  17    -0.413195437977E+03    0.41017E-05   -0.63627E-08  1248   0.633E-04    0.488E-05
RMM:  18    -0.413195436807E+03    0.11696E-05   -0.28664E-08   824   0.543E-04    0.254E-05
RMM:  19    -0.413195436555E+03    0.25223E-06   -0.17042E-08   695   0.522E-04
   35 T=    67. E= -.41286673E+03 F= -.41319544E+03 E0= -.41317413E+03  EK= 0.32871E+00 SP= 0.00E+00 SK= 0.00E+00
       N       E                     dE             d eps       ncg     rms          rms(c)
RMM:   1    -0.413189049712E+03    0.63871E-02   -0.12154E+01  4298   0.962E-01    0.941E-01
RMM:   2    -0.413198966936E+03   -0.99172E-02   -0.15621E-01  4258   0.121E-01    0.657E-01
RMM:   3    -0.413197971032E+03    0.99590E-03   -0.70209E-03  4820   0.459E-02    0.196E-01
RMM:   4    -0.413230887431E+03   -0.32916E-01   -0.33272E-02  5154   0.153E-01    0.756E-01
RMM:   5    -0.413197568137E+03    0.33319E-01   -0.16761E-02  4800   0.126E-01    0.390E-02
RMM:   6    -0.413197638528E+03   -0.70391E-04   -0.26537E-03  5860   0.479E-02    0.202E-02
RMM:   7    -0.413197650342E+03   -0.11814E-04   -0.26866E-04  5747   0.140E-02    0.133E-02
RMM:   8    -0.413197643222E+03    0.71198E-05   -0.35949E-05  4565   0.555E-03    0.885E-03
RMM:   9    -0.413197637907E+03    0.53153E-05   -0.11567E-05  3774   0.379E-03    0.602E-03
RMM:  10    -0.413197628901E+03    0.90061E-05   -0.23768E-06  2574   0.252E-03    0.300E-03
RMM:  11    -0.413197621805E+03    0.70964E-05   -0.16127E-06  2517   0.198E-03    0.168E-03
RMM:  12    -0.413197613636E+03    0.81683E-05   -0.82034E-07  2459   0.160E-03    0.631E-04
RMM:  13    -0.413197611146E+03    0.24900E-05   -0.32285E-07  2213   0.103E-03    0.453E-04
RMM:  14    -0.413197609682E+03    0.14639E-05   -0.13646E-07  1483   0.730E-04    0.278E-04
RMM:  15    -0.413197602656E+03    0.70263E-05   -0.16879E-07  2002   0.798E-04    0.418E-04
RMM:  16    -0.413197602018E+03    0.63794E-06   -0.44919E-08   935   0.558E-04
   36 T=    67. E= -.41286651E+03 F= -.41319760E+03 E0= -.41317634E+03  EK= 0.33109E+00 SP= 0.00E+00 SK= 0.00E+00
       N       E                     dE             d eps       ncg     rms          rms(c)
RMM:   1    -0.413190980725E+03    0.66219E-02   -0.12216E+01  4299   0.986E-01    0.924E-01
RMM:   2    -0.413202498889E+03   -0.11518E-01   -0.16294E-01  4258   0.135E-01    0.669E-01
RMM:   3    -0.413201207396E+03    0.12915E-02   -0.68128E-03  4830   0.527E-02    0.204E-01
RMM:   4    -0.413244431698E+03   -0.43224E-01   -0.44270E-02  5153   0.176E-01    0.863E-01
RMM:   5    -0.413200501334E+03    0.43930E-01   -0.22190E-02  4798   0.145E-01    0.422E-02
RMM:   6    -0.413200614761E+03   -0.11343E-03   -0.33631E-03  5857   0.544E-02    0.208E-02
RMM:   7    -0.413200630782E+03   -0.16022E-04   -0.33316E-04  5751   0.154E-02    0.137E-02
RMM:   8    -0.413200626810E+03    0.39723E-05   -0.38397E-05  4142   0.528E-03    0.867E-03
RMM:   9    -0.413200619301E+03    0.75095E-05   -0.90443E-06  3259   0.345E-03    0.450E-03
RMM:  10    -0.413200616824E+03    0.24769E-05   -0.28973E-06  2627   0.239E-03    0.287E-03
RMM:  11    -0.413200611239E+03    0.55849E-05   -0.13027E-06  2495   0.191E-03    0.155E-03
RMM:  12    -0.413200606526E+03    0.47131E-05   -0.69475E-07  2442   0.141E-03    0.534E-04
RMM:  13    -0.413200604792E+03    0.17335E-05   -0.30790E-07  2144   0.971E-04    0.330E-04
RMM:  14    -0.413200603111E+03    0.16813E-05   -0.15149E-07  1502   0.741E-04    0.196E-04
RMM:  15    -0.413200599091E+03    0.40193E-05   -0.12800E-07  1470   0.718E-04    0.148E-04
RMM:  16    -0.413200598205E+03    0.88690E-06   -0.56879E-08  1010   0.606E-04
   37 T=    68. E= -.41286669E+03 F= -.41320060E+03 E0= -.41317938E+03  EK= 0.33391E+00 SP= 0.00E+00 SK= 0.00E+00
       N       E                     dE             d eps       ncg     rms          rms(c)
RMM:   1    -0.413195557695E+03    0.50414E-02   -0.12398E+01  4307   0.103E+00    0.945E-01
RMM:   2    -0.413205457371E+03   -0.98997E-02   -0.16263E-01  4258   0.130E-01    0.674E-01
RMM:   3    -0.413203773767E+03    0.16836E-02   -0.69875E-03  4756   0.510E-02    0.199E-01
RMM:   4    -0.413237843385E+03   -0.34070E-01   -0.34347E-02  5151   0.155E-01    0.768E-01
RMM:   5    -0.413203315562E+03    0.34528E-01   -0.17547E-02  4807   0.128E-01    0.382E-02
RMM:   6    -0.413203384191E+03   -0.68629E-04   -0.26337E-03  5849   0.482E-02    0.199E-02
RMM:   7    -0.413203397002E+03   -0.12811E-04   -0.26964E-04  5790   0.141E-02    0.135E-02
RMM:   8    -0.413203390963E+03    0.60393E-05   -0.38375E-05  4685   0.569E-03    0.887E-03
RMM:   9    -0.413203386680E+03    0.42822E-05   -0.11349E-05  3732   0.371E-03    0.580E-03
RMM:  10    -0.413203379137E+03    0.75433E-05   -0.23507E-06  2565   0.242E-03    0.289E-03
RMM:  11    -0.413203373352E+03    0.57850E-05   -0.15051E-06  2512   0.191E-03    0.159E-03
RMM:  12    -0.413203366912E+03    0.64399E-05   -0.76582E-07  2450   0.152E-03    0.594E-04
RMM:  13    -0.413203364732E+03    0.21804E-05   -0.31466E-07  2181   0.101E-03    0.415E-04
RMM:  14    -0.413203363347E+03    0.13853E-05   -0.14021E-07  1484   0.731E-04    0.252E-04
RMM:  15    -0.413203357456E+03    0.58901E-05   -0.15395E-07  1822   0.769E-04    0.316E-04
RMM:  16    -0.413203356708E+03    0.74841E-06   -0.48064E-08   936   0.572E-04
   38 T=    69. E= -.41286687E+03 F= -.41320336E+03 E0= -.41318218E+03  EK= 0.33648E+00 SP= 0.00E+00 SK= 0.00E+00
       N       E                     dE             d eps       ncg     rms          rms(c)
RMM:   1    -0.413200130136E+03    0.32273E-02   -0.12472E+01  4303   0.107E+00    0.958E-01
RMM:   2    -0.413206994983E+03   -0.68648E-02   -0.16524E-01  4264   0.126E-01    0.667E-01
RMM:   3    -0.413206201051E+03    0.79393E-03   -0.75066E-03  4958   0.537E-02    0.225E-01
RMM:   4    -0.413256203372E+03   -0.50002E-01   -0.52872E-02  5138   0.191E-01    0.928E-01
RMM:   5    -0.413205155729E+03    0.51048E-01   -0.25414E-02  4789   0.156E-01    0.478E-02
RMM:   6    -0.413205309740E+03   -0.15401E-03   -0.39888E-03  5838   0.588E-02    0.230E-02
RMM:   7    -0.413205327906E+03   -0.18166E-04   -0.40055E-04  5818   0.169E-02    0.154E-02
RMM:   8    -0.413205324385E+03    0.35210E-05   -0.55197E-05  4810   0.634E-03    0.108E-02
RMM:   9    -0.413205314532E+03    0.98528E-05   -0.14820E-05  4013   0.411E-03    0.669E-03
RMM:  10    -0.413205305135E+03    0.93967E-05   -0.37737E-06  2677   0.287E-03    0.325E-03
RMM:  11    -0.413205297950E+03    0.71848E-05   -0.17156E-06  2512   0.210E-03    0.191E-03
RMM:  12    -0.413205289025E+03    0.89256E-05   -0.89729E-07  2471   0.165E-03    0.667E-04
RMM:  13    -0.413205284917E+03    0.41076E-05   -0.37608E-07  2293   0.110E-03    0.426E-04
RMM:  14    -0.413205282207E+03    0.27106E-05   -0.17370E-07  1724   0.787E-04    0.270E-04
RMM:  15    -0.413205274153E+03    0.80533E-05   -0.15131E-07  1791   0.766E-04    0.275E-04
RMM:  16    -0.413205273224E+03    0.92970E-06   -0.56493E-08  1011   0.577E-04
   39 T=    69. E= -.41286653E+03 F= -.41320527E+03 E0= -.41318414E+03  EK= 0.33874E+00 SP= 0.00E+00 SK= 0.00E+00
       N       E                     dE             d eps       ncg     rms          rms(c)
RMM:   1    -0.413205192074E+03    0.82080E-04   -0.12508E+01  4308   0.113E+00    0.935E-01
RMM:   2    -0.413210494418E+03   -0.53023E-02   -0.16699E-01  4261   0.133E-01    0.673E-01
RMM:   3    -0.413209530435E+03    0.96398E-03   -0.72722E-03  4985   0.539E-02    0.233E-01
RMM:   4    -0.413263406388E+03   -0.53876E-01   -0.58245E-02  5131   0.200E-01    0.962E-01
RMM:   5    -0.413208249874E+03    0.55157E-01   -0.27113E-02  4785   0.162E-01    0.500E-02
RMM:   6    -0.413208439174E+03   -0.18930E-03   -0.44380E-03  5830   0.610E-02    0.226E-02
RMM:   7    -0.413208462356E+03   -0.23182E-04   -0.44461E-04  5872   0.176E-02    0.158E-02
RMM:   8    -0.413208462126E+03    0.23000E-06   -0.65086E-05  5002   0.688E-03    0.115E-02
RMM:   9    -0.413208453322E+03    0.88035E-05   -0.14633E-05  4000   0.415E-03    0.675E-03
RMM:  10    -0.413208446330E+03    0.69922E-05   -0.39674E-06  2677   0.289E-03    0.327E-03
RMM:  11    -0.413208441377E+03    0.49527E-05   -0.17528E-06  2517   0.210E-03    0.192E-03
RMM:  12    -0.413208435579E+03    0.57980E-05   -0.89713E-07  2469   0.164E-03    0.692E-04
RMM:  13    -0.413208432813E+03    0.27664E-05   -0.38553E-07  2280   0.111E-03    0.426E-04
RMM:  14    -0.413208430608E+03    0.22048E-05   -0.19099E-07  1780   0.803E-04    0.258E-04
RMM:  15    -0.413208425006E+03    0.56018E-05   -0.15691E-07  1658   0.755E-04    0.234E-04
RMM:  16    -0.413208424517E+03    0.48917E-06   -0.61835E-08  1030   0.595E-04
   40 T=    69. E= -.41286711E+03 F= -.41320842E+03 E0= -.41318733E+03  EK= 0.34132E+00 SP= 0.00E+00 SK= 0.00E+00
       N       E                     dE             d eps       ncg     rms          rms(c)
RMM:   1    -0.413206916900E+03    0.15081E-02   -0.12666E+01  4306   0.119E+00    0.947E-01
RMM:   2    -0.413211785727E+03   -0.48688E-02   -0.17428E-01  4268   0.139E-01    0.683E-01
RMM:   3    -0.413211370660E+03    0.41507E-03   -0.77214E-03  5034   0.566E-02    0.256E-01
RMM:   4    -0.413267510735E+03   -0.56140E-01   -0.63095E-02  5126   0.208E-01    0.985E-01
RMM:   5    -0.413209639775E+03    0.57871E-01   -0.28056E-02  4773   0.166E-01    0.531E-02
RMM:   6    -0.413209835120E+03   -0.19534E-03   -0.46124E-03  5822   0.624E-02    0.225E-02
RMM:   7    -0.413209860311E+03   -0.25192E-04   -0.47776E-04  5924   0.183E-02    0.166E-02
RMM:   8    -0.413209860354E+03   -0.42546E-07   -0.72790E-05  5150   0.734E-03    0.119E-02
RMM:   9    -0.413209850968E+03    0.93861E-05   -0.13346E-05  3817   0.415E-03    0.627E-03
RMM:  10    -0.413209844107E+03    0.68605E-05   -0.41800E-06  2690   0.292E-03    0.304E-03
RMM:  11    -0.413209839293E+03    0.48137E-05   -0.16755E-06  2519   0.205E-03    0.168E-03
RMM:  12    -0.413209834069E+03    0.52244E-05   -0.81153E-07  2458   0.155E-03    0.654E-04
RMM:  13    -0.413209831391E+03    0.26785E-05   -0.36203E-07  2221   0.106E-03    0.397E-04
RMM:  14    -0.413209828508E+03    0.28825E-05   -0.19642E-07  1713   0.804E-04    0.241E-04
RMM:  15    -0.413209824066E+03    0.44422E-05   -0.14055E-07  1471   0.724E-04    0.165E-04
RMM:  16    -0.413209822984E+03    0.10822E-05   -0.69859E-08  1058   0.614E-04    0.802E-05
RMM:  17    -0.413209820964E+03    0.20199E-05   -0.55201E-08  1040   0.608E-04    0.504E-05
RMM:  18    -0.413209817390E+03    0.35742E-05   -0.61740E-08  1209   0.632E-04    0.507E-05
RMM:  19    -0.413209816860E+03    0.53016E-06   -0.26031E-08   829   0.561E-04
   41 T=    70. E= -.41286661E+03 F= -.41320982E+03 E0= -.41318875E+03  EK= 0.34320E+00 SP= 0.00E+00 SK= 0.00E+00
       N       E                     dE             d eps       ncg     rms          rms(c)
RMM:   1    -0.413215588737E+03   -0.57713E-02   -0.12792E+01  4308   0.127E+00    0.971E-01
RMM:   2    -0.413213585953E+03    0.20028E-02   -0.17717E-01  4287   0.146E-01    0.676E-01
RMM:   3    -0.413216106063E+03   -0.25201E-02   -0.10090E-02  5121   0.727E-02    0.331E-01
RMM:   4    -0.413250653388E+03   -0.34547E-01   -0.50421E-02  5091   0.188E-01    0.816E-01
RMM:   5    -0.413212311026E+03    0.38342E-01   -0.17291E-02  4729   0.136E-01    0.509E-02
RMM:   6    -0.413212366567E+03   -0.55541E-04   -0.28408E-03  5754   0.503E-02    0.207E-02
RMM:   7    -0.413212379150E+03   -0.12582E-04   -0.34038E-04  5885   0.159E-02    0.157E-02
RMM:   8    -0.413212375667E+03    0.34828E-05   -0.57062E-05  5052   0.682E-03    0.983E-03
RMM:   9    -0.413212362878E+03    0.12789E-04   -0.10737E-05  3498   0.416E-03    0.426E-03
RMM:  10    -0.413212355019E+03    0.78589E-05   -0.28971E-06  2601   0.243E-03    0.225E-03
RMM:  11    -0.413212347832E+03    0.71869E-05   -0.10658E-06  2504   0.164E-03    0.107E-03
RMM:  12    -0.413212341936E+03    0.58965E-05   -0.44467E-07  2346   0.116E-03    0.507E-04
RMM:  13    -0.413212337123E+03    0.48126E-05   -0.24657E-07  1649   0.848E-04    0.246E-04
RMM:  14    -0.413212333308E+03    0.38149E-05   -0.15481E-07  1325   0.733E-04    0.143E-04
RMM:  15    -0.413212327192E+03    0.61160E-05   -0.13239E-07  1403   0.719E-04    0.861E-05
RMM:  16    -0.413212324345E+03    0.28469E-05   -0.87184E-08  1216   0.647E-04    0.586E-05
RMM:  17    -0.413212320204E+03    0.41411E-05   -0.77494E-08  1331   0.640E-04    0.491E-05
RMM:  18    -0.413212318005E+03    0.21994E-05   -0.48889E-08  1038   0.570E-04    0.343E-05
RMM:  19    -0.413212317429E+03    0.57630E-06   -0.28312E-08   808   0.530E-04
   42 T=    70. E= -.41286711E+03 F= -.41321232E+03 E0= -.41319129E+03  EK= 0.34521E+00 SP= 0.00E+00 SK= 0.00E+00
       N       E                     dE             d eps       ncg     rms          rms(c)
RMM:   1    -0.413217048012E+03   -0.47300E-02   -0.12750E+01  4311   0.134E+00    0.947E-01
RMM:   2    -0.413215317256E+03    0.17308E-02   -0.17411E-01  4297   0.153E-01    0.676E-01
RMM:   3    -0.413219185330E+03   -0.38681E-02   -0.11013E-02  5105   0.819E-02    0.366E-01
RMM:   4    -0.413247448427E+03   -0.28263E-01   -0.47748E-02  5061   0.185E-01    0.764E-01
RMM:   5    -0.413214152499E+03    0.33296E-01   -0.14509E-02  4705   0.128E-01    0.491E-02
RMM:   6    -0.413214177034E+03   -0.24536E-04   -0.24337E-03  5734   0.468E-02    0.197E-02
RMM:   7    -0.413214185064E+03   -0.80301E-05   -0.28369E-04  5879   0.150E-02    0.151E-02
RMM:   8    -0.413214181630E+03    0.34338E-05   -0.49211E-05  4979   0.652E-03    0.911E-03
RMM:   9    -0.413214170536E+03    0.11094E-04   -0.10359E-05  3461   0.420E-03    0.402E-03
RMM:  10    -0.413214164712E+03    0.58243E-05   -0.25161E-06  2580   0.234E-03    0.219E-03
RMM:  11    -0.413214159339E+03    0.53729E-05   -0.10961E-06  2507   0.162E-03    0.106E-03
RMM:  12    -0.413214155109E+03    0.42303E-05   -0.45911E-07  2330   0.114E-03    0.502E-04
RMM:  13    -0.413214151170E+03    0.39384E-05   -0.27419E-07  1609   0.854E-04    0.247E-04
RMM:  14    -0.413214148630E+03    0.25402E-05   -0.17234E-07  1322   0.737E-04    0.142E-04
RMM:  15    -0.413214144253E+03    0.43768E-05   -0.14414E-07  1317   0.711E-04    0.724E-05
RMM:  16    -0.413214141693E+03    0.25601E-05   -0.97393E-08  1167   0.654E-04    0.526E-05
RMM:  17    -0.413214138928E+03    0.27653E-05   -0.78120E-08  1196   0.636E-04    0.417E-05
RMM:  18    -0.413214136540E+03    0.23873E-05   -0.60209E-08  1124   0.597E-04    0.422E-05
RMM:  19    -0.413214135877E+03    0.66366E-06   -0.33693E-08   820   0.537E-04
   43 T=    71. E= -.41286719E+03 F= -.41321414E+03 E0= -.41319314E+03  EK= 0.34695E+00 SP= 0.00E+00 SK= 0.00E+00
       N       E                     dE             d eps       ncg     rms          rms(c)
RMM:   1    -0.413240912279E+03   -0.26776E-01   -0.13103E+01  4312   0.150E+00    0.947E-01
RMM:   2    -0.413216341337E+03    0.24571E-01   -0.20180E-01  4300   0.175E-01    0.693E-01
RMM:   3    -0.413221524577E+03   -0.51832E-02   -0.12101E-02  5097   0.911E-02    0.417E-01
RMM:   4    -0.413247073138E+03   -0.25549E-01   -0.49171E-02  5058   0.188E-01    0.755E-01
RMM:   5    -0.413214944627E+03    0.32129E-01   -0.14000E-02  4689   0.129E-01    0.522E-02
RMM:   6    -0.413214947290E+03   -0.26622E-05   -0.23557E-03  5692   0.463E-02    0.203E-02
RMM:   7    -0.413214955781E+03   -0.84912E-05   -0.28545E-04  5911   0.152E-02    0.157E-02
RMM:   8    -0.413214952216E+03    0.35652E-05   -0.47841E-05  4978   0.649E-03    0.934E-03
RMM:   9    -0.413214942160E+03    0.10056E-04   -0.12016E-05  3630   0.459E-03    0.434E-03
RMM:  10    -0.413214937463E+03    0.46965E-05   -0.27313E-06  2600   0.244E-03    0.250E-03
RMM:  11    -0.413214933313E+03    0.41503E-05   -0.14090E-06  2539   0.180E-03    0.118E-03
RMM:  12    -0.413214930324E+03    0.29892E-05   -0.54412E-07  2436   0.125E-03    0.593E-04
RMM:  13    -0.413214926983E+03    0.33405E-05   -0.34771E-07  1716   0.931E-04    0.329E-04
RMM:  14    -0.413214924846E+03    0.21374E-05   -0.20792E-07  1377   0.781E-04    0.180E-04
RMM:  15    -0.413214922386E+03    0.24601E-05   -0.15270E-07  1273   0.721E-04    0.966E-05
RMM:  16    -0.413214919266E+03    0.31201E-05   -0.13039E-07  1350   0.702E-04    0.574E-05
RMM:  17    -0.413214917893E+03    0.13730E-05   -0.77594E-08  1061   0.619E-04    0.487E-05
RMM:  18    -0.413214915640E+03    0.22529E-05   -0.67470E-08  1085   0.608E-04    0.323E-05
RMM:  19    -0.413214914757E+03    0.88263E-06   -0.42028E-08   883   0.562E-04
   44 T=    71. E= -.41286680E+03 F= -.41321491E+03 E0= -.41319394E+03  EK= 0.34811E+00 SP= 0.00E+00 SK= 0.00E+00
       N       E                     dE             d eps       ncg     rms          rms(c)
RMM:   1    -0.413233530987E+03   -0.18615E-01   -0.13075E+01  4307   0.155E+00    0.977E-01
RMM:   2    -0.413217045434E+03    0.16486E-01   -0.18433E-01  4343   0.180E-01    0.683E-01
RMM:   3    -0.413229312177E+03   -0.12267E-01   -0.18501E-02  5147   0.116E-01    0.527E-01
RMM:   4    -0.413232413639E+03   -0.31015E-02   -0.37911E-02  5015   0.169E-01    0.548E-01
RMM:   5    -0.413216614405E+03    0.15799E-01   -0.60623E-03  4568   0.954E-02    0.438E-02
RMM:   6    -0.413216570740E+03    0.43665E-04   -0.10855E-03  5367   0.322E-02    0.187E-02
RMM:   7    -0.413216568826E+03    0.19135E-05   -0.12701E-04  5681   0.109E-02    0.140E-02
RMM:   8    -0.413216562593E+03    0.62337E-05   -0.37726E-05  4999   0.617E-03    0.808E-03
RMM:   9    -0.413216546870E+03    0.15722E-04   -0.98468E-06  3495   0.435E-03    0.369E-03
RMM:  10    -0.413216541924E+03    0.49464E-05   -0.15052E-06  2537   0.201E-03    0.182E-03
RMM:  11    -0.413216535322E+03    0.66021E-05   -0.95384E-07  2498   0.150E-03    0.100E-03
RMM:  12    -0.413216529440E+03    0.58815E-05   -0.40367E-07  2328   0.109E-03    0.464E-04
RMM:  13    -0.413216524945E+03    0.44950E-05   -0.21108E-07  1459   0.775E-04    0.218E-04
RMM:  14    -0.413216521754E+03    0.31914E-05   -0.13006E-07  1201   0.676E-04    0.136E-04
RMM:  15    -0.413216515051E+03    0.67028E-05   -0.13097E-07  1370   0.702E-04    0.924E-05
RMM:  16    -0.413216512611E+03    0.24403E-05   -0.69175E-08  1025   0.605E-04    0.760E-05
RMM:  17    -0.413216509755E+03    0.28563E-05   -0.53624E-08   998   0.586E-04    0.459E-05
RMM:  18    -0.413216506961E+03    0.27933E-05   -0.47347E-08  1047   0.576E-04    0.350E-05
RMM:  19    -0.413216506465E+03    0.49638E-06   -0.22048E-08   721   0.516E-04
   45 T=    71. E= -.41286716E+03 F= -.41321651E+03 E0= -.41319556E+03  EK= 0.34935E+00 SP= 0.00E+00 SK= 0.00E+00
       N       E                     dE             d eps       ncg     rms          rms(c)
RMM:   1    -0.413235068579E+03   -0.18562E-01   -0.13001E+01  4307   0.165E+00    0.958E-01
RMM:   2    -0.413217014486E+03    0.18054E-01   -0.18406E-01  4357   0.190E-01    0.680E-01
RMM:   3    -0.413231657559E+03   -0.14643E-01   -0.20452E-02  5135   0.125E-01    0.567E-01
RMM:   4    -0.413230160767E+03    0.14968E-02   -0.37276E-02  4996   0.169E-01    0.514E-01
RMM:   5    -0.413216578249E+03    0.13583E-01   -0.52937E-03  4550   0.923E-02    0.441E-02
RMM:   6    -0.413216514055E+03    0.64193E-04   -0.84695E-04  5157   0.297E-02    0.183E-02
RMM:   7    -0.413216512135E+03    0.19202E-05   -0.10521E-04  5652   0.977E-03    0.122E-02
RMM:   8    -0.413216509065E+03    0.30699E-05   -0.43072E-05  5167   0.655E-03    0.854E-03
RMM:   9    -0.413216494465E+03    0.14600E-04   -0.15099E-05  4155   0.492E-03    0.405E-03
RMM:  10    -0.413216490533E+03    0.39320E-05   -0.18636E-06  2544   0.214E-03    0.198E-03
RMM:  11    -0.413216484977E+03    0.55559E-05   -0.12417E-06  2476   0.176E-03    0.114E-03
RMM:  12    -0.413216479990E+03    0.49872E-05   -0.46336E-07  2364   0.124E-03    0.607E-04
RMM:  13    -0.413216476059E+03    0.39310E-05   -0.21123E-07  1568   0.815E-04    0.282E-04
RMM:  14    -0.413216472420E+03    0.36391E-05   -0.12002E-07  1152   0.685E-04    0.143E-04
RMM:  15    -0.413216466386E+03    0.60334E-05   -0.12765E-07  1378   0.699E-04    0.144E-04
RMM:  16    -0.413216464636E+03    0.17498E-05   -0.53233E-08   848   0.561E-04    0.111E-04
RMM:  17    -0.413216460820E+03    0.38168E-05   -0.58957E-08   999   0.581E-04    0.562E-05
RMM:  18    -0.413216458572E+03    0.22473E-05   -0.38846E-08   887   0.552E-04    0.503E-05
RMM:  19    -0.413216457799E+03    0.77355E-06   -0.21767E-08   712   0.518E-04
   46 T=    71. E= -.41286694E+03 F= -.41321646E+03 E0= -.41319553E+03  EK= 0.34952E+00 SP= 0.00E+00 SK= 0.00E+00
       N       E                     dE             d eps       ncg     rms          rms(c)
RMM:   1    -0.413258149724E+03   -0.41691E-01   -0.13277E+01  4310   0.180E+00    0.944E-01
RMM:   2    -0.413216742781E+03    0.41407E-01   -0.21908E-01  4369   0.211E-01    0.697E-01
RMM:   3    -0.413230541297E+03   -0.13799E-01   -0.19723E-02  5138   0.125E-01    0.585E-01
RMM:   4    -0.413231245817E+03   -0.70452E-03   -0.39695E-02  5004   0.175E-01    0.558E-01
RMM:   5    -0.413215616935E+03    0.15629E-01   -0.66798E-03  4549   0.101E-01    0.492E-02
RMM:   6    -0.413215544592E+03    0.72343E-04   -0.10514E-03  5222   0.331E-02    0.201E-02
RMM:   7    -0.413215543478E+03    0.11142E-05   -0.13903E-04  5800   0.112E-02    0.146E-02
RMM:   8    -0.413215539062E+03    0.44160E-05   -0.42745E-05  5117   0.642E-03    0.910E-03
RMM:   9    -0.413215525687E+03    0.13375E-04   -0.14021E-05  3990   0.498E-03    0.449E-03
RMM:  10    -0.413215522129E+03    0.35570E-05   -0.21168E-06  2568   0.219E-03    0.224E-03
RMM:  11    -0.413215518444E+03    0.36850E-05   -0.14986E-06  2525   0.188E-03    0.130E-03
RMM:  12    -0.413215515395E+03    0.30495E-05   -0.50306E-07  2425   0.130E-03    0.688E-04
RMM:  13    -0.413215512332E+03    0.30627E-05   -0.26073E-07  1706   0.869E-04    0.310E-04
RMM:  14    -0.413215509992E+03    0.23397E-05   -0.15715E-07  1268   0.715E-04    0.171E-04
RMM:  15    -0.413215506824E+03    0.31683E-05   -0.13183E-07  1241   0.690E-04    0.836E-05
RMM:  16    -0.413215504857E+03    0.19674E-05   -0.85402E-08  1087   0.622E-04    0.776E-05
RMM:  17    -0.413215503375E+03    0.14815E-05   -0.54652E-08   914   0.571E-04    0.404E-05
RMM:  18    -0.413215501643E+03    0.17327E-05   -0.47233E-08   912   0.563E-04    0.264E-05
RMM:  19    -0.413215501107E+03    0.53560E-06   -0.25474E-08   705   0.527E-04
   47 T=    71. E= -.41286695E+03 F= -.41321550E+03 E0= -.41319459E+03  EK= 0.34856E+00 SP= 0.00E+00 SK= 0.00E+00
       N       E                     dE             d eps       ncg     rms          rms(c)
RMM:   1    -0.413263979223E+03   -0.48478E-01   -0.13316E+01  4305   0.194E+00    0.971E-01
RMM:   2    -0.413213973379E+03    0.50006E-01   -0.20831E-01  4454   0.210E-01    0.690E-01
RMM:   3    -0.413237866263E+03   -0.23893E-01   -0.29043E-02  5155   0.153E-01    0.707E-01
RMM:   4    -0.413221995690E+03    0.15871E-01   -0.37624E-02  4961   0.174E-01    0.436E-01
RMM:   5    -0.413213465512E+03    0.85302E-02   -0.45874E-03  4554   0.902E-02    0.543E-02
RMM:   6    -0.413213303384E+03    0.16213E-03   -0.45219E-04  4703   0.279E-02    0.224E-02
RMM:   7    -0.413213304556E+03   -0.11716E-05   -0.13020E-04  5899   0.113E-02    0.156E-02
RMM:   8    -0.413213292449E+03    0.12107E-04   -0.32978E-05  4912   0.621E-03    0.996E-03
RMM:   9    -0.413213277540E+03    0.14909E-04   -0.11247E-05  3551   0.444E-03    0.492E-03
RMM:  10    -0.413213271502E+03    0.60380E-05   -0.24131E-06  2591   0.252E-03    0.233E-03
RMM:  11    -0.413213265963E+03    0.55396E-05   -0.16797E-06  2514   0.203E-03    0.151E-03
RMM:  12    -0.413213260678E+03    0.52844E-05   -0.63810E-07  2433   0.142E-03    0.757E-04
RMM:  13    -0.413213256147E+03    0.45315E-05   -0.30694E-07  1979   0.933E-04    0.391E-04
RMM:  14    -0.413213251745E+03    0.44018E-05   -0.18095E-07  1473   0.735E-04    0.201E-04
RMM:  15    -0.413213246427E+03    0.53182E-05   -0.14723E-07  1415   0.698E-04    0.138E-04
RMM:  16    -0.413213243670E+03    0.27562E-05   -0.84507E-08  1100   0.601E-04    0.113E-04
RMM:  17    -0.413213240865E+03    0.28058E-05   -0.63303E-08  1036   0.578E-04    0.508E-05
RMM:  18    -0.413213238663E+03    0.22016E-05   -0.48122E-08   997   0.567E-04    0.396E-05
RMM:  19    -0.413213237824E+03    0.83926E-06   -0.25796E-08   786   0.528E-04
   48 T=    70. E= -.41286704E+03 F= -.41321324E+03 E0= -.41319234E+03  EK= 0.34620E+00 SP= 0.00E+00 SK= 0.00E+00
       N       E                     dE             d eps       ncg     rms          rms(c)
RMM:   1    -0.413259821763E+03   -0.46583E-01   -0.13110E+01  4305   0.206E+00    0.960E-01
RMM:   2    -0.413209016936E+03    0.50805E-01   -0.20455E-01  4492   0.223E-01    0.678E-01
RMM:   3    -0.413239046124E+03   -0.30029E-01   -0.34674E-02  5166   0.167E-01    0.780E-01
RMM:   4    -0.413214384868E+03    0.24661E-01   -0.37428E-02  4927   0.177E-01    0.385E-01
RMM:   5    -0.413208693856E+03    0.56910E-02   -0.48990E-03  4805   0.922E-02    0.675E-02
RMM:   6    -0.413208415644E+03    0.27821E-03   -0.52249E-04  4676   0.317E-02    0.267E-02
RMM:   7    -0.413208410804E+03    0.48396E-05   -0.12927E-04  5715   0.121E-02    0.174E-02
RMM:   8    -0.413208397740E+03    0.13064E-04   -0.23617E-05  4474   0.541E-03    0.104E-02
RMM:   9    -0.413208381824E+03    0.15916E-04   -0.12118E-05  3460   0.441E-03    0.438E-03
RMM:  10    -0.413208374708E+03    0.71164E-05   -0.30166E-06  2660   0.272E-03    0.248E-03
RMM:  11    -0.413208367413E+03    0.72946E-05   -0.17387E-06  2546   0.211E-03    0.154E-03
RMM:  12    -0.413208362639E+03    0.47747E-05   -0.59398E-07  2437   0.139E-03    0.720E-04
RMM:  13    -0.413208358066E+03    0.45722E-05   -0.31921E-07  2023   0.940E-04    0.407E-04
RMM:  14    -0.413208353213E+03    0.48530E-05   -0.21250E-07  1625   0.781E-04    0.239E-04
RMM:  15    -0.413208348158E+03    0.50556E-05   -0.15924E-07  1403   0.711E-04    0.134E-04
RMM:  16    -0.413208346133E+03    0.20248E-05   -0.87658E-08  1143   0.622E-04    0.866E-05
RMM:  17    -0.413208342731E+03    0.34016E-05   -0.81881E-08  1248   0.627E-04    0.485E-05
RMM:  18    -0.413208341412E+03    0.13190E-05   -0.42962E-08   962   0.569E-04    0.364E-05
RMM:  19    -0.413208340526E+03    0.88595E-06   -0.27600E-08   849   0.549E-04
   49 T=    70. E= -.41286686E+03 F= -.41320834E+03 E0= -.41318746E+03  EK= 0.34148E+00 SP= 0.00E+00 SK= 0.00E+00
       N       E                     dE             d eps       ncg     rms          rms(c)
RMM:   1    -0.413246940313E+03   -0.38599E-01   -0.12819E+01  4305   0.212E+00    0.925E-01
RMM:   2    -0.413203035485E+03    0.43905E-01   -0.23009E-01  4504   0.238E-01    0.687E-01
RMM:   3    -0.413228824697E+03   -0.25789E-01   -0.30611E-02  5157   0.161E-01    0.755E-01
[...]
RMM:  14    -0.413161076864E+03   -0.28243E-05   -0.36931E-07  1581   0.834E-04    0.199E-04
RMM:  15    -0.413161079839E+03   -0.29754E-05   -0.42093E-07  1867   0.872E-04    0.197E-04
RMM:  16    -0.413161081664E+03   -0.18252E-05   -0.22043E-07  1400   0.694E-04    0.107E-04
RMM:  17    -0.413161082755E+03   -0.10905E-05   -0.12403E-07  1113   0.601E-04    0.529E-05
RMM:  18    -0.413161083351E+03   -0.59613E-06   -0.65841E-08   914   0.544E-04
  139 T=    60. E= -.41286635E+03 F= -.41316108E+03 E0= -.41314037E+03  EK= 0.29473E+00 SP= 0.00E+00 SK= 0.00E+00
       N       E                     dE             d eps       ncg     rms          rms(c)
RMM:   1    -0.413170901260E+03   -0.98185E-02   -0.53430E+00  4267   0.641E-01    0.840E-01
RMM:   2    -0.413167838104E+03    0.30632E-02   -0.68592E-02  4311   0.767E-02    0.610E-01
RMM:   3    -0.413165227935E+03    0.26102E-02   -0.49452E-02  5032   0.782E-02    0.313E-01
RMM:   4    -0.413178796113E+03   -0.13568E-01   -0.22924E-02  5076   0.130E-01    0.557E-01
RMM:   5    -0.413161802744E+03    0.16993E-01   -0.92640E-03  4728   0.947E-02    0.426E-02
RMM:   6    -0.413161815470E+03   -0.12726E-04   -0.13293E-03  5538   0.362E-02    0.238E-02
RMM:   7    -0.413161865154E+03   -0.49684E-04   -0.21491E-04  5738   0.133E-02    0.160E-02
RMM:   8    -0.413161882006E+03   -0.16851E-04   -0.42031E-05  5053   0.728E-03    0.667E-03
RMM:   9    -0.413161891864E+03   -0.98586E-05   -0.63133E-06  2980   0.315E-03    0.354E-03
RMM:  10    -0.413161902354E+03   -0.10490E-04   -0.18014E-06  2556   0.188E-03    0.229E-03
RMM:  11    -0.413161913891E+03   -0.11537E-04   -0.15226E-06  2487   0.152E-03    0.101E-03
RMM:  12    -0.413161923004E+03   -0.91129E-05   -0.10143E-06  2260   0.123E-03    0.466E-04
RMM:  13    -0.413161927265E+03   -0.42606E-05   -0.42646E-07  1783   0.894E-04    0.333E-04
RMM:  14    -0.413161931860E+03   -0.45951E-05   -0.40458E-07  1657   0.854E-04    0.193E-04
RMM:  15    -0.413161936406E+03   -0.45467E-05   -0.42282E-07  1794   0.859E-04    0.198E-04
RMM:  16    -0.413161938917E+03   -0.25108E-05   -0.22766E-07  1437   0.706E-04    0.996E-05
RMM:  17    -0.413161940072E+03   -0.11546E-05   -0.11074E-07  1081   0.583E-04    0.511E-05
RMM:  18    -0.413161940695E+03   -0.62324E-06   -0.66322E-08   944   0.541E-04
  140 T=    60. E= -.41286644E+03 F= -.41316194E+03 E0= -.41314124E+03  EK= 0.29550E+00 SP= 0.00E+00 SK= 0.00E+00
       N       E                     dE             d eps       ncg     rms          rms(c)
RMM:   1    -0.413171360537E+03   -0.94205E-02   -0.52898E+00  4265   0.638E-01    0.851E-01
RMM:   2    -0.413167759169E+03    0.36014E-02   -0.68178E-02  4309   0.766E-02    0.611E-01
RMM:   3    -0.413164345981E+03    0.34132E-02   -0.46424E-02  5025   0.710E-02    0.271E-01
RMM:   4    -0.413179758912E+03   -0.15413E-01   -0.22551E-02  5101   0.128E-01    0.566E-01
RMM:   5    -0.413161784773E+03    0.17974E-01   -0.93319E-03  4754   0.963E-02    0.426E-02
RMM:   6    -0.413161800678E+03   -0.15905E-04   -0.14172E-03  5602   0.369E-02    0.246E-02
RMM:   7    -0.413161844275E+03   -0.43597E-04   -0.22287E-04  5772   0.133E-02    0.165E-02
RMM:   8    -0.413161857726E+03   -0.13451E-04   -0.40728E-05  5054   0.698E-03    0.700E-03
RMM:   9    -0.413161863859E+03   -0.61323E-05   -0.65032E-06  3014   0.313E-03    0.347E-03
RMM:  10    -0.413161871398E+03   -0.75394E-05   -0.18914E-06  2550   0.192E-03    0.225E-03
RMM:  11    -0.413161878821E+03   -0.74233E-05   -0.14051E-06  2480   0.151E-03    0.104E-03
RMM:  12    -0.413161885114E+03   -0.62929E-05   -0.10237E-06  2331   0.124E-03    0.521E-04
RMM:  13    -0.413161888006E+03   -0.28921E-05   -0.40066E-07  1796   0.892E-04    0.354E-04
RMM:  14    -0.413161891142E+03   -0.31358E-05   -0.36674E-07  1544   0.828E-04    0.188E-04
RMM:  15    -0.413161894440E+03   -0.32978E-05   -0.42963E-07  1826   0.866E-04    0.207E-04
RMM:  16    -0.413161896371E+03   -0.19306E-05   -0.22051E-07  1414   0.703E-04    0.117E-04
RMM:  17    -0.413161897384E+03   -0.10138E-05   -0.11359E-07  1109   0.596E-04    0.565E-05
RMM:  18    -0.413161898114E+03   -0.72982E-06   -0.67202E-08   933   0.552E-04
  141 T=    60. E= -.41286648E+03 F= -.41316190E+03 E0= -.41314121E+03  EK= 0.29541E+00 SP= 0.00E+00 SK= 0.00E+00
       N       E                     dE             d eps       ncg     rms          rms(c)
RMM:   1    -0.413170104972E+03   -0.82076E-02   -0.53267E+00  4264   0.644E-01    0.844E-01
RMM:   2    -0.413166714459E+03    0.33905E-02   -0.68398E-02  4310   0.769E-02    0.605E-01
RMM:   3    -0.413162754652E+03    0.39598E-02   -0.43603E-02  4955   0.654E-02    0.237E-01
RMM:   4    -0.413177951988E+03   -0.15197E-01   -0.19993E-02  5110   0.120E-01    0.548E-01
RMM:   5    -0.413160882165E+03    0.17070E-01   -0.86767E-03  4777   0.931E-02    0.416E-02
RMM:   6    -0.413160902696E+03   -0.20531E-04   -0.13890E-03  5649   0.364E-02    0.255E-02
RMM:   7    -0.413160944298E+03   -0.41601E-04   -0.22171E-04  5718   0.136E-02    0.164E-02
RMM:   8    -0.413160954260E+03   -0.99623E-05   -0.38148E-05  4944   0.681E-03    0.689E-03
RMM:   9    -0.413160959025E+03   -0.47647E-05   -0.64076E-06  3031   0.305E-03    0.352E-03
RMM:  10    -0.413160966147E+03   -0.71228E-05   -0.18727E-06  2543   0.192E-03    0.225E-03
RMM:  11    -0.413160972418E+03   -0.62708E-05   -0.12912E-06  2483   0.148E-03    0.104E-03
RMM:  12    -0.413160978066E+03   -0.56479E-05   -0.10659E-06  2368   0.125E-03    0.569E-04
RMM:  13    -0.413160980726E+03   -0.26596E-05   -0.42780E-07  1810   0.902E-04    0.364E-04
RMM:  14    -0.413160983146E+03   -0.24202E-05   -0.32763E-07  1462   0.806E-04    0.192E-04
RMM:  15    -0.413160986241E+03   -0.30950E-05   -0.48655E-07  1909   0.889E-04    0.241E-04
RMM:  16    -0.413160987717E+03   -0.14764E-05   -0.20173E-07  1304   0.676E-04    0.148E-04
RMM:  17    -0.413160988619E+03   -0.90209E-06   -0.11369E-07  1096   0.598E-04
  142 T=    60. E= -.41286626E+03 F= -.41316099E+03 E0= -.41314031E+03  EK= 0.29473E+00 SP= 0.00E+00 SK= 0.00E+00
       N       E                     dE             d eps       ncg     rms          rms(c)
RMM:   1    -0.413170111419E+03   -0.91237E-02   -0.55316E+00  4264   0.659E-01    0.828E-01
RMM:   2    -0.413167652501E+03    0.24589E-02   -0.69213E-02  4307   0.784E-02    0.606E-01
RMM:   3    -0.413163511259E+03    0.41412E-02   -0.43803E-02  4847   0.627E-02    0.243E-01
RMM:   4    -0.413173045295E+03   -0.95340E-02   -0.13272E-02  5112   0.982E-02    0.443E-01
RMM:   5    -0.413161942158E+03    0.11103E-01   -0.55926E-03  4795   0.754E-02    0.380E-02
RMM:   6    -0.413161966568E+03   -0.24410E-04   -0.98723E-04  5625   0.313E-02    0.254E-02
RMM:   7    -0.413162000041E+03   -0.33473E-04   -0.19478E-04  5554   0.127E-02    0.152E-02
RMM:   8    -0.413162012956E+03   -0.12915E-04   -0.30675E-05  4752   0.614E-03    0.634E-03
RMM:   9    -0.413162020313E+03   -0.73575E-05   -0.46997E-06  2850   0.266E-03    0.346E-03
RMM:  10    -0.413162033087E+03   -0.12774E-04   -0.17813E-06  2530   0.187E-03    0.209E-03
RMM:  11    -0.413162043416E+03   -0.10329E-04   -0.11704E-06  2460   0.141E-03    0.920E-04
RMM:  12    -0.413162052018E+03   -0.86022E-05   -0.88807E-07  2309   0.118E-03    0.515E-04
RMM:  13    -0.413162057425E+03   -0.54071E-05   -0.48916E-07  1855   0.915E-04    0.311E-04
RMM:  14    -0.413162061055E+03   -0.36298E-05   -0.31016E-07  1464   0.786E-04    0.195E-04
RMM:  15    -0.413162065473E+03   -0.44176E-05   -0.41327E-07  1782   0.845E-04    0.202E-04
RMM:  16    -0.413162067774E+03   -0.23012E-05   -0.20658E-07  1365   0.690E-04    0.128E-04
RMM:  17    -0.413162068460E+03   -0.68556E-06   -0.82413E-08   981   0.563E-04
  143 T=    60. E= -.41286657E+03 F= -.41316207E+03 E0= -.41314140E+03  EK= 0.29550E+00 SP= 0.00E+00 SK= 0.00E+00
       N       E                     dE             d eps       ncg     rms          rms(c)
RMM:   1    -0.413169437672E+03   -0.73699E-02   -0.57860E+00  4264   0.673E-01    0.834E-01
RMM:   2    -0.413167541296E+03    0.18964E-02   -0.71266E-02  4303   0.804E-02    0.607E-01
RMM:   3    -0.413163015629E+03    0.45257E-02   -0.38423E-02  4685   0.591E-02    0.197E-01
RMM:   4    -0.413166036618E+03   -0.30210E-02   -0.54944E-03  5109   0.631E-02    0.269E-01
RMM:   5    -0.413162019453E+03    0.40172E-02   -0.20811E-03  4818   0.462E-02    0.362E-02
RMM:   6    -0.413162043092E+03   -0.23639E-04   -0.50953E-04  5458   0.232E-02    0.266E-02
RMM:   7    -0.413162063271E+03   -0.20179E-04   -0.14475E-04  5176   0.116E-02    0.146E-02
RMM:   8    -0.413162069187E+03   -0.59163E-05   -0.22033E-05  4545   0.535E-03    0.601E-03
RMM:   9    -0.413162074977E+03   -0.57895E-05   -0.38229E-06  2645   0.228E-03    0.288E-03
RMM:  10    -0.413162086532E+03   -0.11555E-04   -0.15950E-06  2520   0.171E-03    0.158E-03
RMM:  11    -0.413162095145E+03   -0.86129E-05   -0.10008E-06  2351   0.128E-03    0.690E-04
RMM:  12    -0.413162101540E+03   -0.63954E-05   -0.67013E-07  2112   0.105E-03    0.396E-04
RMM:  13    -0.413162106564E+03   -0.50233E-05   -0.50579E-07  1826   0.907E-04    0.252E-04
RMM:  14    -0.413162110329E+03   -0.37650E-05   -0.38014E-07  1561   0.808E-04    0.189E-04
RMM:  15    -0.413162113347E+03   -0.30186E-05   -0.31161E-07  1589   0.771E-04    0.134E-04
RMM:  16    -0.413162115173E+03   -0.18254E-05   -0.18546E-07  1295   0.663E-04    0.937E-05
RMM:  17    -0.413162115581E+03   -0.40808E-06   -0.67842E-08   933   0.540E-04
  144 T=    60. E= -.41286650E+03 F= -.41316212E+03 E0= -.41314146E+03  EK= 0.29561E+00 SP= 0.00E+00 SK= 0.00E+00
       N       E                     dE             d eps       ncg     rms          rms(c)
RMM:   1    -0.413167586062E+03   -0.54709E-02   -0.60775E+00  4264   0.690E-01    0.834E-01
RMM:   2    -0.413166386554E+03    0.11995E-02   -0.73872E-02  4299   0.820E-02    0.601E-01
RMM:   3    -0.413161768899E+03    0.46177E-02   -0.31636E-02  4499   0.556E-02    0.140E-01
RMM:   4    -0.413161347784E+03    0.42112E-03   -0.92566E-04  4940   0.245E-02    0.509E-02
RMM:   5    -0.413161359534E+03   -0.11750E-04   -0.20578E-04  4987   0.136E-02    0.505E-02
RMM:   6    -0.413161317392E+03    0.42142E-04   -0.26930E-04  5178   0.163E-02    0.289E-02
RMM:   7    -0.413161319758E+03   -0.23665E-05   -0.13568E-04  4796   0.112E-02    0.163E-02
RMM:   8    -0.413161319319E+03    0.43930E-06   -0.15205E-05  3934   0.440E-03    0.681E-03
RMM:   9    -0.413161326439E+03   -0.71205E-05   -0.10475E-05  2530   0.254E-03    0.295E-03
RMM:  10    -0.413161334596E+03   -0.81565E-05   -0.18079E-06  2489   0.165E-03    0.186E-03
RMM:  11    -0.413161340051E+03   -0.54552E-05   -0.12323E-06  2329   0.119E-03    0.562E-04
RMM:  12    -0.413161343746E+03   -0.36945E-05   -0.48968E-07  1567   0.844E-04    0.338E-04
RMM:  13    -0.413161348168E+03   -0.44220E-05   -0.83407E-07  2021   0.974E-04    0.330E-04
RMM:  14    -0.413161348782E+03   -0.61460E-06   -0.11490E-07   987   0.553E-04
  145 T=    60. E= -.41286649E+03 F= -.41316135E+03 E0= -.41314070E+03  EK= 0.29486E+00 SP= 0.00E+00 SK= 0.00E+00
       N       E                     dE             d eps       ncg     rms          rms(c)
RMM:   1    -0.413166560494E+03   -0.52123E-02   -0.64535E+00  4264   0.712E-01    0.816E-01
RMM:   2    -0.413166927341E+03   -0.36685E-03   -0.76144E-02  4307   0.833E-02    0.597E-01
RMM:   3    -0.413162526481E+03    0.44009E-02   -0.28827E-02  4565   0.566E-02    0.139E-01
RMM:   4    -0.413164653246E+03   -0.21268E-02   -0.33114E-03  5129   0.512E-02    0.219E-01
RMM:   5    -0.413162029405E+03    0.26238E-02   -0.13575E-03  4825   0.371E-02    0.388E-02
RMM:   6    -0.413162056875E+03   -0.27470E-04   -0.47140E-04  5413   0.221E-02    0.291E-02
RMM:   7    -0.413162074143E+03   -0.17268E-04   -0.16380E-04  5029   0.120E-02    0.154E-02
RMM:   8    -0.413162077517E+03   -0.33743E-05   -0.21649E-05  4570   0.514E-03    0.635E-03
RMM:   9    -0.413162083944E+03   -0.64267E-05   -0.47190E-06  2637   0.240E-03    0.265E-03
RMM:  10    -0.413162095903E+03   -0.11959E-04   -0.15638E-06  2513   0.174E-03    0.138E-03
RMM:  11    -0.413162106339E+03   -0.10436E-04   -0.11161E-06  2452   0.138E-03    0.757E-04
RMM:  12    -0.413162113210E+03   -0.68706E-05   -0.66818E-07  2134   0.107E-03    0.345E-04
RMM:  13    -0.413162117775E+03   -0.45649E-05   -0.41872E-07  1797   0.875E-04    0.282E-04
RMM:  14    -0.413162122067E+03   -0.42920E-05   -0.39773E-07  1603   0.812E-04    0.194E-04
RMM:  15    -0.413162124999E+03   -0.29318E-05   -0.27810E-07  1536   0.750E-04    0.882E-05
RMM:  16    -0.413162126506E+03   -0.15075E-05   -0.13985E-07  1211   0.633E-04    0.595E-05
RMM:  17    -0.413162127278E+03   -0.77236E-06   -0.75576E-08   992   0.559E-04
  146 T=    60. E= -.41286670E+03 F= -.41316213E+03 E0= -.41314148E+03  EK= 0.29542E+00 SP= 0.00E+00 SK= 0.00E+00
       N       E                     dE             d eps       ncg     rms          rms(c)
RMM:   1    -0.413165318641E+03   -0.31921E-02   -0.69310E+00  4264   0.736E-01    0.822E-01
RMM:   2    -0.413166706056E+03   -0.13874E-02   -0.80042E-02  4312   0.840E-02    0.601E-01
RMM:   3    -0.413162671129E+03    0.40349E-02   -0.24652E-02  4802   0.538E-02    0.122E-01
RMM:   4    -0.413172673065E+03   -0.10002E-01   -0.11103E-02  5138   0.898E-02    0.430E-01
RMM:   5    -0.413162183583E+03    0.10489E-01   -0.51969E-03  4827   0.710E-02    0.442E-02
RMM:   6    -0.413162208102E+03   -0.24520E-04   -0.10617E-03  5604   0.317E-02    0.308E-02
RMM:   7    -0.413162235597E+03   -0.27494E-04   -0.24004E-04  5484   0.140E-02    0.160E-02
RMM:   8    -0.413162243003E+03   -0.74066E-05   -0.30822E-05  4939   0.609E-03    0.690E-03
RMM:   9    -0.413162248813E+03   -0.58093E-05   -0.46697E-06  2880   0.266E-03    0.382E-03
RMM:  10    -0.413162260571E+03   -0.11758E-04   -0.17842E-06  2523   0.195E-03    0.213E-03
RMM:  11    -0.413162269733E+03   -0.91627E-05   -0.11129E-06  2489   0.149E-03    0.112E-03
RMM:  12    -0.413162277538E+03   -0.78041E-05   -0.88346E-07  2390   0.126E-03    0.564E-04
RMM:  13    -0.413162281690E+03   -0.41526E-05   -0.44856E-07  1990   0.959E-04    0.311E-04
RMM:  14    -0.413162284287E+03   -0.25970E-05   -0.24851E-07  1499   0.780E-04    0.229E-04
RMM:  15    -0.413162287651E+03   -0.33642E-05   -0.28994E-07  1523   0.782E-04    0.145E-04
RMM:  16    -0.413162289965E+03   -0.23141E-05   -0.20819E-07  1444   0.723E-04    0.930E-05
RMM:  17    -0.413162290476E+03   -0.51027E-06   -0.75312E-08  1014   0.576E-04
  147 T=    60. E= -.41286642E+03 F= -.41316229E+03 E0= -.41314165E+03  EK= 0.29587E+00 SP= 0.00E+00 SK= 0.00E+00
       N       E                     dE             d eps       ncg     rms          rms(c)
RMM:   1    -0.413163587849E+03   -0.12979E-02   -0.73738E+00  4264   0.757E-01    0.833E-01
RMM:   2    -0.413165630671E+03   -0.20428E-02   -0.83556E-02  4318   0.846E-02    0.593E-01
RMM:   3    -0.413162270449E+03    0.33602E-02   -0.19048E-02  4965   0.490E-02    0.985E-02
RMM:   4    -0.413179652311E+03   -0.17382E-01   -0.18784E-02  5141   0.115E-01    0.556E-01
RMM:   5    -0.413161843414E+03    0.17809E-01   -0.87784E-03  4826   0.915E-02    0.502E-02
RMM:   6    -0.413161875908E+03   -0.32493E-04   -0.16123E-03  5656   0.386E-02    0.327E-02
RMM:   7    -0.413161893436E+03   -0.17528E-04   -0.30177E-04  5708   0.153E-02    0.169E-02
RMM:   8    -0.413161896748E+03   -0.33124E-05   -0.38681E-05  5161   0.680E-03    0.746E-03
RMM:   9    -0.413161899479E+03   -0.27308E-05   -0.61335E-06  3073   0.295E-03    0.429E-03
RMM:  10    -0.413161905717E+03   -0.62375E-05   -0.20123E-06  2537   0.210E-03    0.251E-03
RMM:  11    -0.413161910239E+03   -0.45222E-05   -0.11532E-06  2501   0.158E-03    0.133E-03
RMM:  12    -0.413161914656E+03   -0.44168E-05   -0.10548E-06  2474   0.138E-03    0.697E-04
RMM:  13    -0.413161916595E+03   -0.19392E-05   -0.47578E-07  2116   0.102E-03    0.366E-04
RMM:  14    -0.413161917766E+03   -0.11709E-05   -0.25265E-07  1646   0.811E-04    0.253E-04
RMM:  15    -0.413161919554E+03   -0.17882E-05   -0.29045E-07  1609   0.794E-04    0.174E-04
RMM:  16    -0.413161920851E+03   -0.12970E-05   -0.23542E-07  1501   0.735E-04    0.133E-04
RMM:  17    -0.413161921229E+03   -0.37754E-06   -0.86650E-08  1028   0.583E-04
  148 T=    60. E= -.41286661E+03 F= -.41316192E+03 E0= -.41314128E+03  EK= 0.29531E+00 SP= 0.00E+00 SK= 0.00E+00
       N       E                     dE             d eps       ncg     rms          rms(c)
RMM:   1    -0.413161670953E+03    0.24990E-03   -0.77863E+00  4264   0.777E-01    0.816E-01
RMM:   2    -0.413165114280E+03   -0.34433E-02   -0.87379E-02  4318   0.867E-02    0.587E-01
RMM:   3    -0.413162517710E+03    0.25966E-02   -0.16246E-02  5003   0.503E-02    0.115E-01
RMM:   4    -0.413186646956E+03   -0.24129E-01   -0.26816E-02  5128   0.137E-01    0.652E-01
RMM:   5    -0.413161876172E+03    0.24771E-01   -0.12014E-02  4819   0.107E-01    0.542E-02
RMM:   6    -0.413161910992E+03   -0.34820E-04   -0.20616E-03  5664   0.437E-02    0.316E-02
RMM:   7    -0.413161939797E+03   -0.28804E-04   -0.34503E-04  5882   0.158E-02    0.169E-02
RMM:   8    -0.413161947299E+03   -0.75028E-05   -0.45897E-05  5259   0.732E-03    0.746E-03
RMM:   9    -0.413161951543E+03   -0.42434E-05   -0.75723E-06  3211   0.317E-03    0.423E-03
RMM:  10    -0.413161959910E+03   -0.83676E-05   -0.22846E-06  2563   0.218E-03    0.267E-03
RMM:  11    -0.413161966452E+03   -0.65419E-05   -0.11846E-06  2510   0.162E-03    0.142E-03
RMM:  12    -0.413161973073E+03   -0.66203E-05   -0.10457E-06  2493   0.140E-03    0.724E-04
RMM:  13    -0.413161975792E+03   -0.27198E-05   -0.44251E-07  2095   0.101E-03    0.393E-04
RMM:  14    -0.413161977682E+03   -0.18894E-05   -0.25580E-07  1614   0.816E-04    0.240E-04
RMM:  15    -0.413161979786E+03   -0.21046E-05   -0.23544E-07  1584   0.774E-04    0.160E-04
RMM:  16    -0.413161981677E+03   -0.18902E-05   -0.21111E-07  1439   0.724E-04    0.125E-04
RMM:  17    -0.413161982133E+03   -0.45623E-06   -0.81905E-08  1062   0.595E-04
  149 T=    60. E= -.41286665E+03 F= -.41316198E+03 E0= -.41314135E+03  EK= 0.29533E+00 SP= 0.00E+00 SK= 0.00E+00
       N       E                     dE             d eps       ncg     rms          rms(c)
RMM:   1    -0.413160362748E+03    0.16189E-02   -0.82900E+00  4264   0.799E-01    0.817E-01
RMM:   2    -0.413165219999E+03   -0.48573E-02   -0.93101E-02  4316   0.896E-02    0.592E-01
RMM:   3    -0.413163159169E+03    0.20608E-02   -0.14210E-02  5061   0.509E-02    0.134E-01
RMM:   4    -0.413191844631E+03   -0.28685E-01   -0.32873E-02  5130   0.151E-01    0.710E-01
RMM:   5    -0.413162265793E+03    0.29579E-01   -0.14163E-02  4809   0.117E-01    0.572E-02
RMM:   6    -0.413162305363E+03   -0.39570E-04   -0.23840E-03  5660   0.470E-02    0.301E-02
RMM:   7    -0.413162352400E+03   -0.47037E-04   -0.36934E-04  5980   0.161E-02    0.164E-02
RMM:   8    -0.413162365824E+03   -0.13424E-04   -0.53640E-05  5356   0.776E-03    0.749E-03
RMM:   9    -0.413162371534E+03   -0.57095E-05   -0.86485E-06  3338   0.337E-03    0.404E-03
RMM:  10    -0.413162381408E+03   -0.98742E-05   -0.25117E-06  2575   0.225E-03    0.271E-03
RMM:  11    -0.413162390180E+03   -0.87714E-05   -0.13392E-06  2516   0.172E-03    0.148E-03
RMM:  12    -0.413162398142E+03   -0.79627E-05   -0.99530E-07  2501   0.141E-03    0.695E-04
RMM:  13    -0.413162401590E+03   -0.34478E-05   -0.43669E-07  2086   0.101E-03    0.400E-04
RMM:  14    -0.413162404594E+03   -0.30043E-05   -0.29321E-07  1648   0.834E-04    0.238E-04
RMM:  15    -0.413162406854E+03   -0.22593E-05   -0.21246E-07  1493   0.754E-04    0.140E-04
RMM:  16    -0.413162409222E+03   -0.23683E-05   -0.21701E-07  1456   0.735E-04    0.111E-04
RMM:  17    -0.413162409954E+03   -0.73217E-06   -0.91401E-08  1091   0.615E-04
  150 T=    60. E= -.41286657E+03 F= -.41316241E+03 E0= -.41314178E+03  EK= 0.29584E+00 SP= 0.00E+00 SK= 0.00E+00
