       N       E                     dE             d eps       ncg     rms          rms(c)
RMM:   1     0.220193663674E+04    0.22019E+04   -0.52442E+04  2132   0.654E+02
RMM:   2     0.705671676649E+03   -0.14963E+04   -0.16265E+04  2132   0.177E+02
RMM:   3     0.137821900935E+03   -0.56785E+03   -0.65682E+03  2132   0.117E+02
RMM:   4    -0.159303142875E+03   -0.29713E+03   -0.27862E+03  2132   0.936E+01
RMM:   5    -0.287482339603E+03   -0.12818E+03   -0.11454E+03  2132   0.595E+01
RMM:   6    -0.349801499012E+03   -0.62319E+02   -0.55149E+02  2132   0.423E+01
RMM:   7    -0.382653807606E+03   -0.32852E+02   -0.30411E+02  2132   0.293E+01
RMM:   8    -0.404207678556E+03   -0.21554E+02   -0.18452E+02  2132   0.233E+01
RMM:   9    -0.436029302004E+03   -0.31822E+02   -0.30637E+02  6106   0.173E+01
RMM:  10    -0.441318453435E+03   -0.52892E+01   -0.63071E+01  6398   0.539E+00
RMM:  11    -0.442529170792E+03   -0.12107E+01   -0.11060E+01  6208   0.172E+00
RMM:  12    -0.442896262983E+03   -0.36709E+00   -0.27096E+00  6367   0.599E-01    0.134E+02
RMM:  13    -0.425568129929E+03    0.17328E+02   -0.80854E+01  4670   0.119E+01    0.712E+01
RMM:  14    -0.498861517958E+03   -0.73293E+02   -0.53545E+02  5414   0.232E+01    0.306E+01
RMM:  15    -0.416431219475E+03    0.82430E+02   -0.19977E+02  5101   0.163E+01    0.733E+00
RMM:  16    -0.414032117303E+03    0.23991E+01   -0.39737E+01  6084   0.612E+00    0.430E+00
RMM:  17    -0.413212533130E+03    0.81958E+00   -0.25740E+00  5411   0.189E+00    0.244E+00
RMM:  18    -0.413173917610E+03    0.38616E-01   -0.78458E-01  5990   0.904E-01    0.167E+00
RMM:  19    -0.413172712276E+03    0.12053E-02   -0.25032E-01  5693   0.544E-01    0.894E-01
RMM:  20    -0.413195254626E+03   -0.22542E-01   -0.31762E-01  5573   0.580E-01    0.680E-01
RMM:  21    -0.413170293677E+03    0.24961E-01   -0.35696E-02  4970   0.249E-01    0.320E-01
RMM:  22    -0.413165889779E+03    0.44039E-02   -0.27585E-02  5834   0.161E-01    0.134E-01
RMM:  23    -0.413164978243E+03    0.91154E-03   -0.60409E-03  6061   0.691E-02    0.840E-02
RMM:  24    -0.413163708128E+03    0.12701E-02   -0.17624E-03  5270   0.424E-02    0.545E-02
RMM:  25    -0.413162958626E+03    0.74950E-03   -0.88521E-04  5002   0.294E-02    0.406E-02
RMM:  26    -0.413163037785E+03   -0.79158E-04   -0.11081E-03  5772   0.339E-02    0.347E-02
RMM:  27    -0.413163437532E+03   -0.39975E-03   -0.21217E-04  4575   0.204E-02    0.192E-02
RMM:  28    -0.413163886067E+03   -0.44854E-03   -0.16733E-04  5078   0.181E-02    0.950E-03
RMM:  29    -0.413164266321E+03   -0.38025E-03   -0.11892E-04  4634   0.156E-02    0.478E-03
RMM:  30    -0.413164505582E+03   -0.23926E-03   -0.86366E-05  4301   0.109E-02    0.413E-03
RMM:  31    -0.413164642743E+03   -0.13716E-03   -0.61793E-05  3322   0.764E-03    0.361E-03
RMM:  32    -0.413164665026E+03   -0.22283E-04   -0.22950E-05  2997   0.320E-03    0.209E-03
RMM:  33    -0.413164674057E+03   -0.90306E-05   -0.93484E-06  2796   0.224E-03    0.810E-04
RMM:  34    -0.413164674479E+03   -0.42266E-06   -0.49240E-06  2621   0.157E-03
    1 T=    61. E= -.41286682E+03 F= -.41316467E+03 E0= -.41314218E+03  EK= 0.29786E+00 SP= 0.00E+00 SK= 0.00E+00
       N       E                     dE             d eps       ncg     rms          rms(c)
RMM:   1    -0.413169561419E+03   -0.48874E-02   -0.73599E+00  4007   0.545E-01    0.895E-01
RMM:   2    -0.413170351915E+03   -0.79050E-03   -0.92335E-02  3918   0.795E-02    0.659E-01
RMM:   3    -0.413165559092E+03    0.47928E-02   -0.33723E-02  4914   0.629E-02    0.187E-01
RMM:   4    -0.413188070855E+03   -0.22512E-01   -0.26826E-02  5189   0.137E-01    0.639E-01
RMM:   5    -0.413164167655E+03    0.23903E-01   -0.11527E-02  4833   0.108E-01    0.488E-02
RMM:   6    -0.413164342481E+03   -0.17483E-03   -0.21671E-03  5730   0.455E-02    0.345E-02
RMM:   7    -0.413164340539E+03    0.19420E-05   -0.41523E-04  5699   0.185E-02    0.212E-02
RMM:   8    -0.413164337015E+03    0.35240E-05   -0.46255E-05  5099   0.757E-03    0.848E-03
RMM:   9    -0.413164340076E+03   -0.30613E-05   -0.99950E-06  3391   0.328E-03    0.613E-03
RMM:  10    -0.413164345453E+03   -0.53764E-05   -0.21579E-06  2586   0.218E-03    0.356E-03
RMM:  11    -0.413164349639E+03   -0.41869E-05   -0.12584E-06  2515   0.163E-03    0.186E-03
RMM:  12    -0.413164355668E+03   -0.60283E-05   -0.13848E-06  2524   0.164E-03    0.825E-04
RMM:  13    -0.413164358259E+03   -0.25912E-05   -0.63891E-07  2305   0.117E-03    0.578E-04
RMM:  14    -0.413164358485E+03   -0.22558E-06   -0.34955E-07  1798   0.816E-04
    2 T=    61. E= -.41286651E+03 F= -.41316436E+03 E0= -.41314186E+03  EK= 0.29785E+00 SP= 0.00E+00 SK= 0.00E+00
       N       E                     dE             d eps       ncg     rms          rms(c)
RMM:   1    -0.413170553643E+03   -0.61954E-02   -0.73257E+00  4188   0.545E-01    0.910E-01
RMM:   2    -0.413170547164E+03    0.64789E-05   -0.92309E-02  3961   0.788E-02    0.657E-01
RMM:   3    -0.413166439800E+03    0.41074E-02   -0.31262E-02  5009   0.619E-02    0.183E-01
RMM:   4    -0.413194513943E+03   -0.28074E-01   -0.33531E-02  5149   0.154E-01    0.712E-01
RMM:   5    -0.413164760648E+03    0.29753E-01   -0.13793E-02  4800   0.119E-01    0.509E-02
RMM:   6    -0.413164962811E+03   -0.20216E-03   -0.25575E-03  5728   0.498E-02    0.366E-02
RMM:   7    -0.413164945209E+03    0.17602E-04   -0.45902E-04  5639   0.202E-02    0.233E-02
RMM:   8    -0.413164935294E+03    0.99147E-05   -0.59884E-05  5252   0.892E-03    0.103E-02
RMM:   9    -0.413164933597E+03    0.16976E-05   -0.12204E-05  3767   0.386E-03    0.713E-03
RMM:  10    -0.413164933817E+03   -0.21977E-06   -0.22302E-06  2587   0.237E-03
    3 T=    61. E= -.41286686E+03 F= -.41316493E+03 E0= -.41314244E+03  EK= 0.29807E+00 SP= 0.00E+00 SK= 0.00E+00
       N       E                     dE             d eps       ncg     rms          rms(c)
RMM:   1    -0.413169980806E+03   -0.50472E-02   -0.72721E+00  4220   0.550E-01    0.896E-01
RMM:   2    -0.413170184868E+03   -0.20406E-03   -0.91803E-02  4237   0.778E-02    0.651E-01
RMM:   3    -0.413173888977E+03   -0.37041E-02   -0.36545E-02  5177   0.101E-01    0.410E-01
RMM:   4    -0.413181329561E+03   -0.74406E-02   -0.34390E-02  5087   0.162E-01    0.539E-01
RMM:   5    -0.413164714356E+03    0.16615E-01   -0.62133E-03  4607   0.902E-02    0.542E-02
RMM:   6    -0.413164710888E+03    0.34681E-05   -0.12791E-03  5345   0.359E-02    0.317E-02
RMM:   7    -0.413164719071E+03   -0.81829E-05   -0.26275E-04  5780   0.155E-02    0.183E-02
RMM:   8    -0.413164714789E+03    0.42816E-05   -0.42616E-05  5034   0.784E-03    0.706E-03
RMM:   9    -0.413164714033E+03    0.75611E-06   -0.48420E-06  2926   0.296E-03
    4 T=    61. E= -.41286667E+03 F= -.41316471E+03 E0= -.41314223E+03  EK= 0.29804E+00 SP= 0.00E+00 SK= 0.00E+00
       N       E                     dE             d eps       ncg     rms          rms(c)
RMM:   1    -0.413169988278E+03   -0.52735E-02   -0.73482E+00  4238   0.557E-01    0.892E-01
RMM:   2    -0.413170630360E+03   -0.64208E-03   -0.92526E-02  4103   0.771E-02    0.658E-01
RMM:   3    -0.413170138892E+03    0.49147E-03   -0.36250E-02  5106   0.855E-02    0.324E-01
RMM:   4    -0.413189316012E+03   -0.19177E-01   -0.37115E-02  5104   0.165E-01    0.653E-01
RMM:   5    -0.413164759188E+03    0.24557E-01   -0.10420E-02  4702   0.109E-01    0.536E-02
RMM:   6    -0.413164866708E+03   -0.10752E-03   -0.19446E-03  5600   0.439E-02    0.321E-02
RMM:   7    -0.413164877672E+03   -0.10963E-04   -0.35181E-04  5824   0.168E-02    0.199E-02
RMM:   8    -0.413164877082E+03    0.58930E-06   -0.48009E-05  5086   0.806E-03    0.776E-03
RMM:   9    -0.413164878802E+03   -0.17198E-05   -0.72672E-06  3198   0.322E-03    0.456E-03
RMM:  10    -0.413164883532E+03   -0.47295E-05   -0.18068E-06  2554   0.212E-03    0.283E-03
RMM:  11    -0.413164887248E+03   -0.37166E-05   -0.98420E-07  2511   0.157E-03    0.143E-03
RMM:  12    -0.413164891904E+03   -0.46558E-05   -0.10150E-06  2507   0.145E-03    0.675E-04
RMM:  13    -0.413164894299E+03   -0.23946E-05   -0.53571E-07  2205   0.109E-03    0.395E-04
RMM:  14    -0.413164894852E+03   -0.55331E-06   -0.24040E-07  1646   0.801E-04
    5 T=    61. E= -.41286673E+03 F= -.41316489E+03 E0= -.41314242E+03  EK= 0.29816E+00 SP= 0.00E+00 SK= 0.00E+00
       N       E                     dE             d eps       ncg     rms          rms(c)
RMM:   1    -0.413170899854E+03   -0.60056E-02   -0.73309E+00  4246   0.558E-01    0.908E-01
RMM:   2    -0.413170904410E+03   -0.45556E-05   -0.92345E-02  4078   0.774E-02    0.658E-01
RMM:   3    -0.413167321109E+03    0.35833E-02   -0.32062E-02  5026   0.648E-02    0.205E-01
RMM:   4    -0.413195827743E+03   -0.28507E-01   -0.35642E-02  5129   0.159E-01    0.723E-01
RMM:   5    -0.413165199933E+03    0.30628E-01   -0.14040E-02  4772   0.121E-01    0.520E-02
RMM:   6    -0.413165394118E+03   -0.19419E-03   -0.25442E-03  5690   0.501E-02    0.359E-02
RMM:   7    -0.413165383181E+03    0.10937E-04   -0.45116E-04  5673   0.197E-02    0.229E-02
RMM:   8    -0.413165374850E+03    0.83309E-05   -0.59680E-05  5245   0.874E-03    0.987E-03
RMM:   9    -0.413165373040E+03    0.18104E-05   -0.11203E-05  3714   0.378E-03    0.660E-03
RMM:  10    -0.413165373370E+03   -0.33049E-06   -0.20930E-06  2574   0.231E-03
    6 T=    61. E= -.41286696E+03 F= -.41316537E+03 E0= -.41314291E+03  EK= 0.29841E+00 SP= 0.00E+00 SK= 0.00E+00
       N       E                     dE             d eps       ncg     rms          rms(c)
RMM:   1    -0.413170648077E+03   -0.52750E-02   -0.72851E+00  4258   0.568E-01    0.902E-01
RMM:   2    -0.413170598529E+03    0.49548E-04   -0.92027E-02  4242   0.789E-02    0.653E-01
RMM:   3    -0.413172714266E+03   -0.21157E-02   -0.35086E-02  5143   0.945E-02    0.374E-01
RMM:   4    -0.413184010098E+03   -0.11296E-01   -0.34968E-02  5079   0.162E-01    0.573E-01
RMM:   5    -0.413165084972E+03    0.18925E-01   -0.72736E-03  4648   0.950E-02    0.543E-02
RMM:   6    -0.413165113194E+03   -0.28222E-04   -0.14434E-03  5413   0.383E-02    0.324E-02
RMM:   7    -0.413165127402E+03   -0.14208E-04   -0.28587E-04  5823   0.158E-02    0.191E-02
RMM:   8    -0.413165120992E+03    0.64102E-05   -0.46143E-05  5037   0.821E-03    0.739E-03
RMM:   9    -0.413165118532E+03    0.24595E-05   -0.57308E-06  3008   0.311E-03    0.387E-03
RMM:  10    -0.413165118107E+03    0.42538E-06   -0.15035E-06  2526   0.199E-03
    7 T=    61. E= -.41286665E+03 F= -.41316512E+03 E0= -.41314267E+03  EK= 0.29847E+00 SP= 0.00E+00 SK= 0.00E+00
       N       E                     dE             d eps       ncg     rms          rms(c)
RMM:   1    -0.413170732735E+03   -0.56142E-02   -0.73309E+00  4267   0.569E-01    0.891E-01
RMM:   2    -0.413171614943E+03   -0.88221E-03   -0.92124E-02  4129   0.792E-02    0.656E-01
RMM:   3    -0.413168231290E+03    0.33837E-02   -0.34169E-02  5022   0.717E-02    0.238E-01
RMM:   4    -0.413195583411E+03   -0.27352E-01   -0.36331E-02  5117   0.161E-01    0.717E-01
RMM:   5    -0.413165525524E+03    0.30058E-01   -0.13670E-02  4760   0.120E-01    0.515E-02
RMM:   6    -0.413165725523E+03   -0.20000E-03   -0.24985E-03  5686   0.494E-02    0.347E-02
RMM:   7    -0.413165723041E+03    0.24812E-05   -0.43879E-04  5675   0.195E-02    0.224E-02
RMM:   8    -0.413165712992E+03    0.10049E-04   -0.58274E-05  5178   0.880E-03    0.963E-03
RMM:   9    -0.413165713193E+03   -0.20128E-06   -0.11243E-05  3638   0.390E-03    0.637E-03
RMM:  10    -0.413165715993E+03   -0.27995E-05   -0.21498E-06  2591   0.233E-03    0.378E-03
RMM:  11    -0.413165717916E+03   -0.19231E-05   -0.10531E-06  2516   0.164E-03    0.209E-03
RMM:  12    -0.413165720961E+03   -0.30448E-05   -0.15080E-06  2545   0.179E-03    0.992E-04
RMM:  13    -0.413165722284E+03   -0.13233E-05   -0.71058E-07  2405   0.130E-03    0.787E-04
RMM:  14    -0.413165722078E+03    0.20658E-06   -0.25887E-07  1894   0.859E-04
    8 T=    61. E= -.41286683E+03 F= -.41316572E+03 E0= -.41314329E+03  EK= 0.29890E+00 SP= 0.00E+00 SK= 0.00E+00
       N       E                     dE             d eps       ncg     rms          rms(c)
RMM:   1    -0.413171329861E+03   -0.56076E-02   -0.73482E+00  4279   0.574E-01    0.905E-01
RMM:   2    -0.413171716875E+03   -0.38701E-03   -0.92226E-02  4161   0.803E-02    0.660E-01
RMM:   3    -0.413167609957E+03    0.41069E-02   -0.32794E-02  4970   0.660E-02    0.201E-01
RMM:   4    -0.413195490249E+03   -0.27880E-01   -0.33828E-02  5119   0.155E-01    0.714E-01
RMM:   5    -0.413165690920E+03    0.29799E-01   -0.13884E-02  4786   0.119E-01    0.500E-02
RMM:   6    -0.413165886257E+03   -0.19534E-03   -0.24809E-03  5715   0.492E-02    0.358E-02
RMM:   7    -0.413165875628E+03    0.10630E-04   -0.43865E-04  5615   0.199E-02    0.227E-02
RMM:   8    -0.413165866847E+03    0.87810E-05   -0.58160E-05  5182   0.870E-03    0.101E-02
RMM:   9    -0.413165865148E+03    0.16984E-05   -0.11457E-05  3723   0.383E-03    0.696E-03
RMM:  10    -0.413165865891E+03   -0.74243E-06   -0.20735E-06  2574   0.233E-03
    9 T=    61. E= -.41286669E+03 F= -.41316587E+03 E0= -.41314346E+03  EK= 0.29917E+00 SP= 0.00E+00 SK= 0.00E+00
       N       E                     dE             d eps       ncg     rms          rms(c)
RMM:   1    -0.413171543291E+03   -0.56781E-02   -0.73066E+00  4289   0.575E-01    0.909E-01
RMM:   2    -0.413171578851E+03   -0.35560E-04   -0.92339E-02  4312   0.804E-02    0.655E-01
RMM:   3    -0.413174493640E+03   -0.29148E-02   -0.35897E-02  5127   0.995E-02    0.396E-01
RMM:   4    -0.413183390309E+03   -0.88967E-02   -0.34520E-02  5061   0.161E-01    0.550E-01
RMM:   5    -0.413165945654E+03    0.17445E-01   -0.64860E-03  4624   0.913E-02    0.541E-02
RMM:   6    -0.413165956047E+03   -0.10393E-04   -0.13751E-03  5374   0.366E-02    0.325E-02
RMM:   7    -0.413165957288E+03   -0.12419E-05   -0.27228E-04  5744   0.156E-02    0.188E-02
RMM:   8    -0.413165949454E+03    0.78342E-05   -0.43772E-05  5028   0.784E-03    0.722E-03
RMM:   9    -0.413165945934E+03    0.35199E-05   -0.50392E-06  2935   0.297E-03    0.380E-03
RMM:  10    -0.413165944256E+03    0.16782E-05   -0.14511E-06  2523   0.196E-03    0.228E-03
RMM:  11    -0.413165942322E+03    0.19342E-05   -0.94210E-07  2467   0.153E-03    0.113E-03
RMM:  12    -0.413165939848E+03    0.24735E-05   -0.72869E-07  2452   0.128E-03    0.504E-04
RMM:  13    -0.413165938309E+03    0.15391E-05   -0.34892E-07  1958   0.944E-04    0.316E-04
RMM:  14    -0.413165936696E+03    0.16131E-05   -0.22426E-07  1543   0.776E-04    0.192E-04
RMM:  15    -0.413165933755E+03    0.29413E-05   -0.30674E-07  1810   0.812E-04    0.275E-04
RMM:  16    -0.413165930815E+03    0.29398E-05   -0.23492E-07  1414   0.703E-04    0.169E-04
RMM:  17    -0.413165929571E+03    0.12440E-05   -0.10417E-07  1065   0.593E-04    0.819E-05
RMM:  18    -0.413165927848E+03    0.17237E-05   -0.94651E-08  1106   0.600E-04    0.623E-05
RMM:  19    -0.413165927667E+03    0.18013E-06   -0.33598E-08   778   0.528E-04
   10 T=    61. E= -.41286657E+03 F= -.41316593E+03 E0= -.41314354E+03  EK= 0.29936E+00 SP= 0.00E+00 SK= 0.00E+00
       N       E                     dE             d eps       ncg     rms          rms(c)
RMM:   1    -0.413171934565E+03   -0.60067E-02   -0.73091E+00  4290   0.584E-01    0.891E-01
RMM:   2    -0.413172454432E+03   -0.51987E-03   -0.92136E-02  4204   0.792E-02    0.655E-01
RMM:   3    -0.413168931067E+03    0.35234E-02   -0.33461E-02  5003   0.675E-02    0.223E-01
RMM:   4    -0.413196792916E+03   -0.27862E-01   -0.35851E-02  5113   0.159E-01    0.719E-01
RMM:   5    -0.413166543079E+03    0.30250E-01   -0.13975E-02  4763   0.120E-01    0.509E-02
RMM:   6    -0.413166730669E+03   -0.18759E-03   -0.24774E-03  5685   0.492E-02    0.353E-02
RMM:   7    -0.413166722309E+03    0.83596E-05   -0.43541E-04  5586   0.195E-02    0.224E-02
RMM:   8    -0.413166718403E+03    0.39058E-05   -0.58822E-05  5202   0.869E-03    0.967E-03
RMM:   9    -0.413166717220E+03    0.11831E-05   -0.11257E-05  3719   0.380E-03    0.648E-03
RMM:  10    -0.413166719091E+03   -0.18707E-05   -0.19852E-06  2555   0.226E-03    0.386E-03
RMM:  11    -0.413166720275E+03   -0.11839E-05   -0.93695E-07  2494   0.158E-03    0.218E-03
RMM:  12    -0.413166722116E+03   -0.18411E-05   -0.13473E-06  2520   0.175E-03    0.105E-03
RMM:  13    -0.413166722763E+03   -0.64753E-06   -0.61019E-07  2385   0.128E-03
   11 T=    61. E= -.41286694E+03 F= -.41316672E+03 E0= -.41314436E+03  EK= 0.29979E+00 SP= 0.00E+00 SK= 0.00E+00
       N       E                     dE             d eps       ncg     rms          rms(c)
RMM:   1    -0.413172152023E+03   -0.54299E-02   -0.73617E+00  4292   0.586E-01    0.902E-01
RMM:   2    -0.413172413996E+03   -0.26197E-03   -0.92686E-02  4228   0.786E-02    0.661E-01
RMM:   3    -0.413168509511E+03    0.39045E-02   -0.33712E-02  4982   0.649E-02    0.209E-01
RMM:   4    -0.413196168047E+03   -0.27659E-01   -0.34023E-02  5117   0.155E-01    0.712E-01
RMM:   5    -0.413166481558E+03    0.29686E-01   -0.13848E-02  4770   0.119E-01    0.496E-02
RMM:   6    -0.413166682131E+03   -0.20057E-03   -0.25097E-03  5734   0.490E-02    0.351E-02
RMM:   7    -0.413166673808E+03    0.83228E-05   -0.43069E-04  5632   0.198E-02    0.226E-02
RMM:   8    -0.413166667274E+03    0.65340E-05   -0.59178E-05  5093   0.882E-03    0.102E-02
RMM:   9    -0.413166665649E+03    0.16258E-05   -0.11696E-05  3717   0.389E-03    0.709E-03
RMM:  10    -0.413166666819E+03   -0.11704E-05   -0.20477E-06  2568   0.230E-03    0.417E-03
RMM:  11    -0.413166667688E+03   -0.86899E-06   -0.10856E-06  2499   0.169E-03
   12 T=    61. E= -.41286668E+03 F= -.41316667E+03 E0= -.41314434E+03  EK= 0.29999E+00 SP= 0.00E+00 SK= 0.00E+00
       N       E                     dE             d eps       ncg     rms          rms(c)
RMM:   1    -0.413173071816E+03   -0.64050E-02   -0.73256E+00  4293   0.589E-01    0.913E-01
RMM:   2    -0.413172704824E+03    0.36699E-03   -0.92653E-02  4255   0.781E-02    0.658E-01
RMM:   3    -0.413168590832E+03    0.41140E-02   -0.31060E-02  4970   0.582E-02    0.169E-01
RMM:   4    -0.413195593746E+03   -0.27003E-01   -0.31295E-02  5123   0.149E-01    0.697E-01
RMM:   5    -0.413167145082E+03    0.28449E-01   -0.13400E-02  4791   0.116E-01    0.494E-02
RMM:   6    -0.413167335359E+03   -0.19028E-03   -0.24405E-03  5756   0.484E-02    0.358E-02
RMM:   7    -0.413167315977E+03    0.19382E-04   -0.42585E-04  5627   0.200E-02    0.230E-02
RMM:   8    -0.413167300501E+03    0.15475E-04   -0.57318E-05  5046   0.876E-03    0.106E-02
RMM:   9    -0.413167295880E+03    0.46213E-05   -0.11771E-05  3721   0.390E-03    0.754E-03
RMM:  10    -0.413167292402E+03    0.34784E-05   -0.21879E-06  2575   0.242E-03    0.436E-03
RMM:  11    -0.413167289858E+03    0.25442E-05   -0.11924E-06  2505   0.178E-03    0.245E-03
RMM:  12    -0.413167285021E+03    0.48364E-05   -0.18014E-06  2585   0.198E-03    0.117E-03
RMM:  13    -0.413167281802E+03    0.32195E-05   -0.61986E-07  2406   0.134E-03    0.890E-04
RMM:  14    -0.413167281883E+03   -0.81505E-07   -0.24178E-07  1912   0.862E-04
   13 T=    61. E= -.41286683E+03 F= -.41316728E+03 E0= -.41314498E+03  EK= 0.30045E+00 SP= 0.00E+00 SK= 0.00E+00
       N       E                     dE             d eps       ncg     rms          rms(c)
RMM:   1    -0.413173168325E+03   -0.58865E-02   -0.72967E+00  4297   0.591E-01    0.893E-01
RMM:   2    -0.413173554685E+03   -0.38636E-03   -0.91944E-02  4253   0.780E-02    0.654E-01
RMM:   3    -0.413169793379E+03    0.37613E-02   -0.32717E-02  4990   0.642E-02    0.205E-01
RMM:   4    -0.413197684878E+03   -0.27891E-01   -0.34443E-02  5117   0.156E-01    0.715E-01
RMM:   5    -0.413167749554E+03    0.29935E-01   -0.13897E-02  4766   0.119E-01    0.502E-02
RMM:   6    -0.413167945687E+03   -0.19613E-03   -0.25038E-03  5707   0.493E-02    0.356E-02
RMM:   7    -0.413167935657E+03    0.10030E-04   -0.43522E-04  5594   0.200E-02    0.228E-02
RMM:   8    -0.413167927365E+03    0.82917E-05   -0.58982E-05  5154   0.878E-03    0.102E-02
RMM:   9    -0.413167924469E+03    0.28955E-05   -0.11535E-05  3723   0.386E-03    0.695E-03
RMM:  10    -0.413167923904E+03    0.56489E-06   -0.20599E-06  2564   0.231E-03
   14 T=    61. E= -.41286694E+03 F= -.41316792E+03 E0= -.41314566E+03  EK= 0.30098E+00 SP= 0.00E+00 SK= 0.00E+00
       N       E                     dE             d eps       ncg     rms          rms(c)
RMM:   1    -0.413173574763E+03   -0.56503E-02   -0.73848E+00  4305   0.604E-01    0.900E-01
RMM:   2    -0.413173937802E+03   -0.36304E-03   -0.92763E-02  4326   0.797E-02    0.663E-01
RMM:   3    -0.413178082857E+03   -0.41451E-02   -0.40055E-02  5131   0.106E-01    0.434E-01
RMM:   4    -0.413184668225E+03   -0.65854E-02   -0.35491E-02  5053   0.164E-01    0.544E-01
RMM:   5    -0.413167964777E+03    0.16703E-01   -0.65639E-03  4585   0.918E-02    0.525E-02
RMM:   6    -0.413167981025E+03   -0.16248E-04   -0.13002E-03  5356   0.352E-02    0.310E-02
RMM:   7    -0.413167981460E+03   -0.43408E-06   -0.25423E-04  5660   0.152E-02    0.177E-02
RMM:   8    -0.413167977749E+03    0.37102E-05   -0.39812E-05  4912   0.789E-03    0.660E-03
RMM:   9    -0.413167977076E+03    0.67317E-06   -0.47653E-06  2877   0.291E-03
   15 T=    61. E= -.41286655E+03 F= -.41316798E+03 E0= -.41314574E+03  EK= 0.30143E+00 SP= 0.00E+00 SK= 0.00E+00
       N       E                     dE             d eps       ncg     rms          rms(c)
RMM:   1    -0.413174871169E+03   -0.68934E-02   -0.73506E+00  4295   0.600E-01    0.915E-01
RMM:   2    -0.413174748276E+03    0.12289E-03   -0.92833E-02  4279   0.816E-02    0.660E-01
RMM:   3    -0.413174059666E+03    0.68861E-03   -0.33941E-02  5098   0.842E-02    0.308E-01
RMM:   4    -0.413193555299E+03   -0.19496E-01   -0.37219E-02  5082   0.164E-01    0.650E-01
RMM:   5    -0.413168936832E+03    0.24618E-01   -0.10087E-02  4689   0.107E-01    0.540E-02
RMM:   6    -0.413169032559E+03   -0.95727E-04   -0.20085E-03  5603   0.440E-02    0.341E-02
RMM:   7    -0.413169021711E+03    0.10849E-04   -0.36068E-04  5726   0.178E-02    0.211E-02
RMM:   8    -0.413169011997E+03    0.97135E-05   -0.50460E-05  5092   0.843E-03    0.839E-03
RMM:   9    -0.413169007446E+03    0.45507E-05   -0.79120E-06  3258   0.338E-03    0.487E-03
RMM:  10    -0.413169004072E+03    0.33748E-05   -0.18438E-06  2552   0.219E-03    0.295E-03
RMM:  11    -0.413169001110E+03    0.29612E-05   -0.94027E-07  2485   0.159E-03    0.152E-03
RMM:  12    -0.413168996274E+03    0.48360E-05   -0.94809E-07  2484   0.149E-03    0.711E-04
RMM:  13    -0.413168992632E+03    0.36422E-05   -0.48314E-07  2245   0.111E-03    0.443E-04
RMM:  14    -0.413168991573E+03    0.10587E-05   -0.21857E-07  1689   0.798E-04    0.300E-04
RMM:  15    -0.413168986140E+03    0.54335E-05   -0.30602E-07  1942   0.862E-04    0.446E-04
RMM:  16    -0.413168982283E+03    0.38570E-05   -0.17020E-07  1315   0.670E-04    0.367E-04
RMM:  17    -0.413168980736E+03    0.15466E-05   -0.79762E-08   961   0.570E-04    0.248E-04
RMM:  18    -0.413168978571E+03    0.21650E-05   -0.73680E-08  1022   0.587E-04    0.113E-04
RMM:  19    -0.413168976849E+03    0.17222E-05   -0.66999E-08  1150   0.606E-04    0.117E-04
RMM:  20    -0.413168976875E+03   -0.25531E-07   -0.18963E-08   715   0.534E-04
   16 T=    62. E= -.41286679E+03 F= -.41316898E+03 E0= -.41314678E+03  EK= 0.30219E+00 SP= 0.00E+00 SK= 0.00E+00
       N       E                     dE             d eps       ncg     rms          rms(c)
RMM:   1    -0.413174916188E+03   -0.59393E-02   -0.73049E+00  4296   0.603E-01    0.898E-01
RMM:   2    -0.413175271741E+03   -0.35555E-03   -0.92451E-02  4263   0.812E-02    0.655E-01
RMM:   3    -0.413171647409E+03    0.36243E-02   -0.32620E-02  5003   0.686E-02    0.217E-01
RMM:   4    -0.413200093664E+03   -0.28446E-01   -0.36582E-02  5106   0.161E-01    0.725E-01
RMM:   5    -0.413169295360E+03    0.30798E-01   -0.14124E-02  4756   0.120E-01    0.513E-02
RMM:   6    -0.413169482448E+03   -0.18709E-03   -0.25621E-03  5696   0.498E-02    0.362E-02
RMM:   7    -0.413169458968E+03    0.23480E-04   -0.44145E-04  5580   0.199E-02    0.231E-02
RMM:   8    -0.413169447565E+03    0.11403E-04   -0.60452E-05  5200   0.893E-03    0.101E-02
RMM:   9    -0.413169444522E+03    0.30426E-05   -0.11714E-05  3753   0.392E-03    0.672E-03
RMM:  10    -0.413169443215E+03    0.13071E-05   -0.20702E-06  2565   0.233E-03    0.398E-03
RMM:  11    -0.413169442262E+03    0.95370E-06   -0.95389E-07  2489   0.161E-03
   17 T=    62. E= -.41286672E+03 F= -.41316944E+03 E0= -.41314728E+03  EK= 0.30272E+00 SP= 0.00E+00 SK= 0.00E+00
       N       E                     dE             d eps       ncg     rms          rms(c)
RMM:   1    -0.413175435022E+03   -0.59918E-02   -0.73958E+00  4298   0.610E-01    0.900E-01
RMM:   2    -0.413175969339E+03   -0.53432E-03   -0.93383E-02  4261   0.816E-02    0.663E-01
RMM:   3    -0.413171735335E+03    0.42340E-02   -0.34930E-02  4945   0.656E-02    0.210E-01
RMM:   4    -0.413198407142E+03   -0.26672E-01   -0.32220E-02  5106   0.151E-01    0.700E-01
RMM:   5    -0.413169825784E+03    0.28581E-01   -0.13501E-02  4774   0.117E-01    0.487E-02
RMM:   6    -0.413170011472E+03   -0.18569E-03   -0.24428E-03  5727   0.481E-02    0.344E-02
RMM:   7    -0.413169999187E+03    0.12285E-04   -0.41774E-04  5629   0.197E-02    0.223E-02
RMM:   8    -0.413169990281E+03    0.89060E-05   -0.56782E-05  5031   0.871E-03    0.101E-02
RMM:   9    -0.413169988208E+03    0.20734E-05   -0.11646E-05  3695   0.390E-03    0.712E-03
RMM:  10    -0.413169988710E+03   -0.50273E-06   -0.20271E-06  2566   0.232E-03
   18 T=    62. E= -.41286669E+03 F= -.41316999E+03 E0= -.41314787E+03  EK= 0.30329E+00 SP= 0.00E+00 SK= 0.00E+00
       N       E                     dE             d eps       ncg     rms          rms(c)
RMM:   1    -0.413177067507E+03   -0.70793E-02   -0.73724E+00  4301   0.611E-01    0.916E-01
RMM:   2    -0.413176871218E+03    0.19629E-03   -0.93445E-02  4334   0.816E-02    0.663E-01
RMM:   3    -0.413180152611E+03   -0.32814E-02   -0.37455E-02  5131   0.100E-01    0.405E-01
RMM:   4    -0.413188825989E+03   -0.86734E-02   -0.35472E-02  5051   0.163E-01    0.554E-01
RMM:   5    -0.413171186468E+03    0.17640E-01   -0.66356E-03  4599   0.922E-02    0.533E-02
RMM:   6    -0.413171205442E+03   -0.18975E-04   -0.14098E-03  5368   0.364E-02    0.325E-02
RMM:   7    -0.413171199586E+03    0.58567E-05   -0.27084E-04  5654   0.159E-02    0.188E-02
RMM:   8    -0.413171191692E+03    0.78934E-05   -0.42282E-05  4956   0.799E-03    0.713E-03
RMM:   9    -0.413171187486E+03    0.42067E-05   -0.53907E-06  2950   0.303E-03    0.383E-03
RMM:  10    -0.413171184521E+03    0.29647E-05   -0.14349E-06  2509   0.197E-03    0.228E-03
RMM:  11    -0.413171181443E+03    0.30781E-05   -0.85289E-07  2457   0.149E-03    0.113E-03
RMM:  12    -0.413171177206E+03    0.42364E-05   -0.67160E-07  2436   0.127E-03    0.518E-04
RMM:  13    -0.413171174439E+03    0.27675E-05   -0.32261E-07  1929   0.932E-04    0.317E-04
RMM:  14    -0.413171172127E+03    0.23120E-05   -0.18331E-07  1461   0.740E-04    0.196E-04
RMM:  15    -0.413171167168E+03    0.49593E-05   -0.21194E-07  1572   0.759E-04    0.260E-04
RMM:  16    -0.413171163173E+03    0.39949E-05   -0.13532E-07  1207   0.652E-04    0.191E-04
RMM:  17    -0.413171161104E+03    0.20688E-05   -0.77417E-08  1009   0.587E-04    0.979E-05
RMM:  18    -0.413171158476E+03    0.26281E-05   -0.66828E-08  1031   0.590E-04    0.372E-05
RMM:  19    -0.413171157574E+03    0.90161E-06   -0.33229E-08   832   0.551E-04
   19 T=    62. E= -.41286703E+03 F= -.41317116E+03 E0= -.41314908E+03  EK= 0.30412E+00 SP= 0.00E+00 SK= 0.00E+00
       N       E                     dE             d eps       ncg     rms          rms(c)
RMM:   1    -0.413177235620E+03   -0.60771E-02   -0.73285E+00  4295   0.616E-01    0.906E-01
RMM:   2    -0.413177146221E+03    0.89399E-04   -0.93031E-02  4264   0.814E-02    0.657E-01
RMM:   3    -0.413173845911E+03    0.33003E-02   -0.32418E-02  5031   0.679E-02    0.215E-01
RMM:   4    -0.413202608942E+03   -0.28763E-01   -0.37290E-02  5107   0.162E-01    0.728E-01
RMM:   5    -0.413171433092E+03    0.31176E-01   -0.14294E-02  4756   0.121E-01    0.519E-02
RMM:   6    -0.413171624860E+03   -0.19177E-03   -0.25959E-03  5697   0.505E-02    0.365E-02
RMM:   7    -0.413171608254E+03    0.16607E-04   -0.45291E-04  5595   0.202E-02    0.235E-02
RMM:   8    -0.413171598297E+03    0.99570E-05   -0.63194E-05  5184   0.934E-03    0.104E-02
RMM:   9    -0.413171593463E+03    0.48341E-05   -0.12457E-05  3809   0.404E-03    0.683E-03
RMM:  10    -0.413171590576E+03    0.28871E-05   -0.21308E-06  2570   0.237E-03    0.405E-03
RMM:  11    -0.413171588647E+03    0.19285E-05   -0.98662E-07  2498   0.163E-03    0.234E-03
RMM:  12    -0.413171584619E+03    0.40284E-05   -0.14696E-06  2530   0.185E-03    0.110E-03
RMM:  13    -0.413171581570E+03    0.30490E-05   -0.65496E-07  2413   0.134E-03    0.905E-04
RMM:  14    -0.413171581413E+03    0.15638E-06   -0.26053E-07  1974   0.892E-04
   20 T=    62. E= -.41286680E+03 F= -.41317158E+03 E0= -.41314955E+03  EK= 0.30478E+00 SP= 0.00E+00 SK= 0.00E+00
       N       E                     dE             d eps       ncg     rms          rms(c)
RMM:   1    -0.413178206243E+03   -0.66247E-02   -0.74033E+00  4296   0.622E-01    0.900E-01
RMM:   2    -0.413178601882E+03   -0.39564E-03   -0.93467E-02  4267   0.815E-02    0.664E-01
RMM:   3    -0.413174748452E+03    0.38534E-02   -0.35091E-02  4985   0.668E-02    0.219E-01
RMM:   4    -0.413202405469E+03   -0.27657E-01   -0.34468E-02  5105   0.157E-01    0.714E-01
RMM:   5    -0.413172532073E+03    0.29873E-01   -0.14008E-02  4769   0.120E-01    0.496E-02
RMM:   6    -0.413172723162E+03   -0.19109E-03   -0.25018E-03  5724   0.491E-02    0.347E-02
RMM:   7    -0.413172716148E+03    0.70146E-05   -0.42304E-04  5604   0.199E-02    0.226E-02
RMM:   8    -0.413172707305E+03    0.88426E-05   -0.61356E-05  5098   0.915E-03    0.103E-02
RMM:   9    -0.413172704797E+03    0.25083E-05   -0.12179E-05  3770   0.406E-03    0.704E-03
RMM:  10    -0.413172704935E+03   -0.13835E-06   -0.20879E-06  2574   0.234E-03
   21 T=    62. E= -.41286697E+03 F= -.41317270E+03 E0= -.41315072E+03  EK= 0.30574E+00 SP= 0.00E+00 SK= 0.00E+00
       N       E                     dE             d eps       ncg     rms          rms(c)
RMM:   1    -0.413179624196E+03   -0.69194E-02   -0.74097E+00  4299   0.622E-01    0.915E-01
RMM:   2    -0.413179725125E+03   -0.10093E-03   -0.93633E-02  4334   0.846E-02    0.666E-01
RMM:   3    -0.413182994772E+03   -0.32696E-02   -0.38376E-02  5128   0.102E-01    0.410E-01
RMM:   4    -0.413191730445E+03   -0.87357E-02   -0.35791E-02  5047   0.164E-01    0.558E-01
RMM:   5    -0.413173823685E+03    0.17907E-01   -0.67662E-03  4594   0.939E-02    0.527E-02
RMM:   6    -0.413173864711E+03   -0.41026E-04   -0.14248E-03  5389   0.368E-02    0.322E-02
RMM:   7    -0.413173868796E+03   -0.40852E-05   -0.27558E-04  5623   0.162E-02    0.189E-02
RMM:   8    -0.413173860128E+03    0.86682E-05   -0.43978E-05  4967   0.807E-03    0.718E-03
RMM:   9    -0.413173855929E+03    0.41991E-05   -0.55881E-06  2966   0.313E-03    0.388E-03
RMM:  10    -0.413173853419E+03    0.25093E-05   -0.14044E-06  2511   0.197E-03    0.233E-03
RMM:  11    -0.413173850703E+03    0.27165E-05   -0.84139E-07  2461   0.148E-03    0.117E-03
RMM:  12    -0.413173846735E+03    0.39676E-05   -0.66381E-07  2429   0.126E-03    0.520E-04
RMM:  13    -0.413173844212E+03    0.25237E-05   -0.31706E-07  1948   0.929E-04    0.325E-04
RMM:  14    -0.413173842241E+03    0.19706E-05   -0.17344E-07  1440   0.730E-04    0.209E-04
RMM:  15    -0.413173837281E+03    0.49603E-05   -0.19865E-07  1526   0.749E-04    0.264E-04
RMM:  16    -0.413173833404E+03    0.38766E-05   -0.11874E-07  1106   0.635E-04    0.181E-04
RMM:  17    -0.413173831107E+03    0.22970E-05   -0.72879E-08   984   0.592E-04    0.898E-05
RMM:  18    -0.413173828155E+03    0.29524E-05   -0.65012E-08  1049   0.600E-04    0.352E-05
RMM:  19    -0.413173827223E+03    0.93122E-06   -0.30443E-08   818   0.552E-04
   22 T=    62. E= -.41286697E+03 F= -.41317383E+03 E0= -.41315189E+03  EK= 0.30686E+00 SP= 0.00E+00 SK= 0.00E+00
       N       E                     dE             d eps       ncg     rms          rms(c)
RMM:   1    -0.413180687876E+03   -0.68597E-02   -0.73800E+00  4295   0.634E-01    0.915E-01
RMM:   2    -0.413180370422E+03    0.31745E-03   -0.93861E-02  4285   0.825E-02    0.662E-01
RMM:   3    -0.413176519665E+03    0.38508E-02   -0.32425E-02  4987   0.680E-02    0.204E-01
RMM:   4    -0.413205993399E+03   -0.29474E-01   -0.36814E-02  5104   0.161E-01    0.733E-01
RMM:   5    -0.413174367271E+03    0.31626E-01   -0.14570E-02  4769   0.122E-01    0.516E-02
RMM:   6    -0.413174565666E+03   -0.19839E-03   -0.26985E-03  5711   0.505E-02    0.370E-02
RMM:   7    -0.413174550663E+03    0.15002E-04   -0.46028E-04  5575   0.206E-02    0.239E-02
RMM:   8    -0.413174539635E+03    0.11028E-04   -0.65432E-05  5197   0.929E-03    0.109E-02
RMM:   9    -0.413174534368E+03    0.52669E-05   -0.12681E-05  3847   0.408E-03    0.726E-03
RMM:  10    -0.413174530396E+03    0.39720E-05   -0.22119E-06  2572   0.239E-03    0.430E-03
RMM:  11    -0.413174527755E+03    0.26417E-05   -0.10476E-06  2500   0.167E-03    0.249E-03
RMM:  12    -0.413174522350E+03    0.54052E-05   -0.16160E-06  2553   0.194E-03    0.117E-03
RMM:  13    -0.413174518387E+03    0.39622E-05   -0.69138E-07  2407   0.138E-03    0.972E-04
RMM:  14    -0.413174518278E+03    0.10955E-06   -0.27012E-07  2000   0.908E-04
   23 T=    63. E= -.41286658E+03 F= -.41317452E+03 E0= -.41315262E+03  EK= 0.30793E+00 SP= 0.00E+00 SK= 0.00E+00
       N       E                     dE             d eps       ncg     rms          rms(c)
RMM:   1    -0.413181767165E+03   -0.72488E-02   -0.74214E+00  4295   0.633E-01    0.902E-01
RMM:   2    -0.413182345899E+03   -0.57873E-03   -0.94173E-02  4290   0.846E-02    0.665E-01
RMM:   3    -0.413177839713E+03    0.45062E-02   -0.34931E-02  4910   0.691E-02    0.204E-01
RMM:   4    -0.413204756236E+03   -0.26917E-01   -0.32101E-02  5112   0.151E-01    0.702E-01
RMM:   5    -0.413175955374E+03    0.28801E-01   -0.13605E-02  4773   0.118E-01    0.488E-02
RMM:   6    -0.413176142101E+03   -0.18673E-03   -0.24993E-03  5777   0.479E-02    0.338E-02
RMM:   7    -0.413176137854E+03    0.42473E-05   -0.39608E-04  5614   0.194E-02    0.221E-02
RMM:   8    -0.413176127376E+03    0.10478E-04   -0.63427E-05  5027   0.900E-03    0.108E-02
RMM:   9    -0.413176123772E+03    0.36034E-05   -0.12393E-05  3840   0.410E-03    0.753E-03
RMM:  10    -0.413176122625E+03    0.11471E-05   -0.20713E-06  2565   0.237E-03    0.446E-03
RMM:  11    -0.413176121653E+03    0.97176E-06   -0.12612E-06  2509   0.181E-03
   24 T=    63. E= -.41286684E+03 F= -.41317612E+03 E0= -.41315428E+03  EK= 0.30928E+00 SP= 0.00E+00 SK= 0.00E+00
       N       E                     dE             d eps       ncg     rms          rms(c)
RMM:   1    -0.413183204998E+03   -0.70824E-02   -0.74678E+00  4298   0.637E-01    0.916E-01
RMM:   2    -0.413183326156E+03   -0.12116E-03   -0.94796E-02  4296   0.859E-02    0.671E-01
RMM:   3    -0.413178365738E+03    0.49604E-02   -0.34473E-02  4832   0.657E-02    0.179E-01
RMM:   4    -0.413201616387E+03   -0.23251E-01   -0.26261E-02  5117   0.137E-01    0.650E-01
RMM:   5    -0.413176992354E+03    0.24624E-01   -0.11713E-02  4785   0.109E-01    0.466E-02
RMM:   6    -0.413177141212E+03   -0.14886E-03   -0.21577E-03  5815   0.440E-02    0.305E-02
RMM:   7    -0.413177141785E+03   -0.57311E-06   -0.25929E-04  5686   0.167E-02    0.173E-02
RMM:   8    -0.413177136445E+03    0.53397E-05   -0.56897E-05  4996   0.795E-03    0.107E-02
RMM:   9    -0.413177131208E+03    0.52377E-05   -0.11305E-05  3863   0.397E-03    0.762E-03
RMM:  10    -0.413177129071E+03    0.21370E-05   -0.19491E-06  2559   0.234E-03    0.446E-03
RMM:  11    -0.413177126815E+03    0.22552E-05   -0.15924E-06  2529   0.198E-03    0.237E-03
RMM:  12    -0.413177123152E+03    0.36633E-05   -0.14759E-06  2520   0.189E-03    0.106E-03
RMM:  13    -0.413177121146E+03    0.20058E-05   -0.46760E-07  2292   0.121E-03    0.666E-04
RMM:  14    -0.413177120698E+03    0.44834E-06   -0.21516E-07  1754   0.818E-04
   25 T=    63. E= -.41286667E+03 F= -.41317712E+03 E0= -.41315532E+03  EK= 0.31045E+00 SP= 0.00E+00 SK= 0.00E+00
       N       E                     dE             d eps       ncg     rms          rms(c)
RMM:   1    -0.413185112489E+03   -0.79913E-02   -0.74435E+00  4291   0.652E-01    0.925E-01
RMM:   2    -0.413184426738E+03    0.68575E-03   -0.95518E-02  4289   0.876E-02    0.667E-01
RMM:   3    -0.413179891055E+03    0.45357E-02   -0.32441E-02  4928   0.649E-02    0.174E-01
RMM:   4    -0.413208021007E+03   -0.28130E-01   -0.32609E-02  5115   0.152E-01    0.711E-01
RMM:   5    -0.413178344464E+03    0.29677E-01   -0.14024E-02  4777   0.119E-01    0.503E-02
RMM:   6    -0.413178527911E+03   -0.18345E-03   -0.26044E-03  5781   0.490E-02    0.364E-02
RMM:   7    -0.413178521292E+03    0.66190E-05   -0.43621E-04  5576   0.204E-02    0.236E-02
RMM:   8    -0.413178509929E+03    0.11363E-04   -0.64549E-05  5096   0.929E-03    0.113E-02
RMM:   9    -0.413178503635E+03    0.62937E-05   -0.12500E-05  3793   0.412E-03    0.773E-03
RMM:  10    -0.413178498387E+03    0.52479E-05   -0.23128E-06  2593   0.247E-03    0.449E-03
RMM:  11    -0.413178494298E+03    0.40889E-05   -0.12671E-06  2510   0.182E-03    0.249E-03
RMM:  12    -0.413178486967E+03    0.73317E-05   -0.18050E-06  2573   0.203E-03    0.117E-03
RMM:  13    -0.413178482730E+03    0.42363E-05   -0.61770E-07  2395   0.136E-03    0.866E-04
RMM:  14    -0.413178482454E+03    0.27640E-06   -0.26341E-07  1984   0.889E-04
   26 T=    63. E= -.41286667E+03 F= -.41317848E+03 E0= -.41315673E+03  EK= 0.31182E+00 SP= 0.00E+00 SK= 0.00E+00
       N       E                     dE             d eps       ncg     rms          rms(c)
RMM:   1    -0.413186357551E+03   -0.78748E-02   -0.74494E+00  4294   0.656E-01    0.907E-01
RMM:   2    -0.413186363952E+03   -0.64011E-05   -0.95751E-02  4290   0.907E-02    0.666E-01
RMM:   3    -0.413181716105E+03    0.46478E-02   -0.34244E-02  4906   0.645E-02    0.184E-01
RMM:   4    -0.413207162598E+03   -0.25446E-01   -0.29333E-02  5117   0.145E-01    0.679E-01
RMM:   5    -0.413180219708E+03    0.26943E-01   -0.12857E-02  4774   0.113E-01    0.478E-02
RMM:   6    -0.413180367408E+03   -0.14770E-03   -0.23286E-03  5814   0.459E-02    0.328E-02
RMM:   7    -0.413180364857E+03    0.25509E-05   -0.34933E-04  5616   0.188E-02    0.209E-02
RMM:   8    -0.413180356494E+03    0.83633E-05   -0.62810E-05  4978   0.890E-03    0.108E-02
RMM:   9    -0.413180351876E+03    0.46181E-05   -0.12157E-05  3867   0.412E-03    0.756E-03
RMM:  10    -0.413180349466E+03    0.24103E-05   -0.20515E-06  2564   0.238E-03    0.439E-03
RMM:  11    -0.413180347232E+03    0.22334E-05   -0.13589E-06  2520   0.186E-03    0.235E-03
RMM:  12    -0.413180343425E+03    0.38069E-05   -0.15575E-06  2528   0.193E-03    0.113E-03
RMM:  13    -0.413180341226E+03    0.21991E-05   -0.51748E-07  2333   0.127E-03    0.729E-04
RMM:  14    -0.413180340730E+03    0.49646E-06   -0.23266E-07  1846   0.843E-04
   27 T=    64. E= -.41286692E+03 F= -.41318034E+03 E0= -.41315864E+03  EK= 0.31342E+00 SP= 0.00E+00 SK= 0.00E+00
       N       E                     dE             d eps       ncg     rms          rms(c)
RMM:   1    -0.413187768597E+03   -0.74274E-02   -0.75401E+00  4292   0.660E-01    0.918E-01
RMM:   2    -0.413187569665E+03    0.19893E-03   -0.96373E-02  4285   0.902E-02    0.675E-01
RMM:   3    -0.413182860624E+03    0.47090E-02   -0.35914E-02  4906   0.651E-02    0.195E-01
RMM:   4    -0.413207998346E+03   -0.25138E-01   -0.29141E-02  5121   0.144E-01    0.677E-01
RMM:   5    -0.413181260081E+03    0.26738E-01   -0.12714E-02  4777   0.113E-01    0.478E-02
RMM:   6    -0.413181418150E+03   -0.15807E-03   -0.23167E-03  5815   0.459E-02    0.332E-02
RMM:   7    -0.413181419621E+03   -0.14710E-05   -0.35989E-04  5592   0.190E-02    0.214E-02
RMM:   8    -0.413181413464E+03    0.61570E-05   -0.60967E-05  4974   0.903E-03    0.107E-02
RMM:   9    -0.413181410068E+03    0.33953E-05   -0.11818E-05  3776   0.414E-03    0.743E-03
RMM:  10    -0.413181408743E+03    0.13249E-05   -0.22367E-06  2595   0.251E-03    0.428E-03
RMM:  11    -0.413181407276E+03    0.14671E-05   -0.13803E-06  2526   0.188E-03    0.225E-03
RMM:  12    -0.413181404664E+03    0.26118E-05   -0.15368E-06  2520   0.195E-03    0.111E-03
RMM:  13    -0.413181402979E+03    0.16853E-05   -0.51775E-07  2332   0.127E-03    0.716E-04
RMM:  14    -0.413181402435E+03    0.54441E-06   -0.23334E-07  1850   0.845E-04
   28 T=    64. E= -.41286657E+03 F= -.41318140E+03 E0= -.41315975E+03  EK= 0.31484E+00 SP= 0.00E+00 SK= 0.00E+00
       N       E                     dE             d eps       ncg     rms          rms(c)
RMM:   1    -0.413194584905E+03   -0.13182E-01   -0.75622E+00  4293   0.698E-01    0.933E-01
RMM:   2    -0.413189627840E+03    0.49571E-02   -0.10043E-01  4285   0.939E-02    0.674E-01
RMM:   3    -0.413184443511E+03    0.51843E-02   -0.32367E-02  4850   0.625E-02    0.150E-01
RMM:   4    -0.413208902022E+03   -0.24459E-01   -0.26776E-02  5125   0.138E-01    0.661E-01
RMM:   5    -0.413183347778E+03    0.25554E-01   -0.12278E-02  4785   0.109E-01    0.480E-02
RMM:   6    -0.413183484405E+03   -0.13663E-03   -0.22244E-03  5829   0.450E-02    0.337E-02
RMM:   7    -0.413183478311E+03    0.60933E-05   -0.32344E-04  5591   0.186E-02    0.204E-02
RMM:   8    -0.413183468377E+03    0.99347E-05   -0.61466E-05  4968   0.884E-03    0.112E-02
RMM:   9    -0.413183461713E+03    0.66631E-05   -0.12064E-05  3831   0.411E-03    0.773E-03
RMM:  10    -0.413183456759E+03    0.49542E-05   -0.22638E-06  2595   0.251E-03    0.435E-03
RMM:  11    -0.413183452362E+03    0.43972E-05   -0.14816E-06  2535   0.193E-03    0.232E-03
RMM:  12    -0.413183445414E+03    0.69479E-05   -0.16532E-06  2553   0.198E-03    0.120E-03
RMM:  13    -0.413183442411E+03    0.30032E-05   -0.55121E-07  2351   0.130E-03    0.749E-04
RMM:  14    -0.413183441371E+03    0.10396E-05   -0.24813E-07  1904   0.865E-04    0.512E-04
RMM:  15    -0.413183436997E+03    0.43741E-05   -0.19342E-07  1886   0.805E-04    0.332E-04
RMM:  16    -0.413183432365E+03    0.46321E-05   -0.15039E-07  1656   0.721E-04    0.443E-04
RMM:  17    -0.413183430076E+03    0.22894E-05   -0.55983E-08   943   0.571E-04    0.367E-04
RMM:  18    -0.413183426082E+03    0.39935E-05   -0.61786E-08   999   0.586E-04    0.109E-04
RMM:  19    -0.413183423082E+03    0.29999E-05   -0.57033E-08  1160   0.611E-04    0.189E-04
RMM:  20    -0.413183422968E+03    0.11453E-06   -0.15221E-08   707   0.527E-04
   29 T=    64. E= -.41286672E+03 F= -.41318342E+03 E0= -.41316182E+03  EK= 0.31670E+00 SP= 0.00E+00 SK= 0.00E+00
       N       E                     dE             d eps       ncg     rms          rms(c)
RMM:   1    -0.413191407275E+03   -0.79842E-02   -0.74968E+00  4293   0.670E-01    0.916E-01
RMM:   2    -0.413191738882E+03   -0.33161E-03   -0.96526E-02  4281   0.966E-02    0.670E-01
RMM:   3    -0.413186544182E+03    0.51947E-02   -0.34442E-02  4832   0.684E-02    0.175E-01
RMM:   4    -0.413210867063E+03   -0.24323E-01   -0.27286E-02  5123   0.140E-01    0.664E-01
RMM:   5    -0.413185154159E+03    0.25713E-01   -0.12358E-02  4782   0.110E-01    0.473E-02
RMM:   6    -0.413185299969E+03   -0.14581E-03   -0.22109E-03  5836   0.447E-02    0.324E-02
RMM:   7    -0.413185306680E+03   -0.67113E-05   -0.30363E-04  5624   0.177E-02    0.194E-02
RMM:   8    -0.413185301848E+03    0.48324E-05   -0.59723E-05  4976   0.843E-03    0.110E-02
RMM:   9    -0.413185296879E+03    0.49691E-05   -0.11714E-05  3838   0.406E-03    0.752E-03
RMM:  10    -0.413185294657E+03    0.22217E-05   -0.21096E-06  2567   0.243E-03    0.428E-03
RMM:  11    -0.413185292598E+03    0.20586E-05   -0.13695E-06  2520   0.187E-03    0.231E-03
RMM:  12    -0.413185289072E+03    0.35264E-05   -0.15508E-06  2531   0.193E-03    0.120E-03
RMM:  13    -0.413185287307E+03    0.17655E-05   -0.52811E-07  2348   0.128E-03    0.730E-04
RMM:  14    -0.413185286610E+03    0.69644E-06   -0.23434E-07  1855   0.850E-04
   30 T=    65. E= -.41286668E+03 F= -.41318529E+03 E0= -.41316374E+03  EK= 0.31861E+00 SP= 0.00E+00 SK= 0.00E+00
       N       E                     dE             d eps       ncg     rms          rms(c)
RMM:   1    -0.413193439861E+03   -0.81526E-02   -0.76173E+00  4296   0.684E-01    0.922E-01
RMM:   2    -0.413193824287E+03   -0.38443E-03   -0.98196E-02  4276   0.100E-01    0.681E-01
RMM:   3    -0.413188071449E+03    0.57528E-02   -0.37161E-02  4717   0.708E-02    0.183E-01
RMM:   4    -0.413206597083E+03   -0.18526E-01   -0.20652E-02  5134   0.123E-01    0.585E-01
RMM:   5    -0.413186815653E+03    0.19781E-01   -0.96298E-03  4790   0.967E-02    0.446E-02
RMM:   6    -0.413186929359E+03   -0.11371E-03   -0.17295E-03  5850   0.391E-02    0.292E-02
RMM:   7    -0.413186933590E+03   -0.42302E-05   -0.19264E-04  5538   0.150E-02    0.146E-02
RMM:   8    -0.413186931159E+03    0.24304E-05   -0.33673E-05  4698   0.620E-03    0.892E-03
RMM:   9    -0.413186928800E+03    0.23590E-05   -0.86566E-06  3501   0.334E-03    0.649E-03
RMM:  10    -0.413186928273E+03    0.52674E-06   -0.18131E-06  2548   0.227E-03
   31 T=    65. E= -.41286648E+03 F= -.41318693E+03 E0= -.41316543E+03  EK= 0.32045E+00 SP= 0.00E+00 SK= 0.00E+00
       N       E                     dE             d eps       ncg     rms          rms(c)
RMM:   1    -0.413200637807E+03   -0.13709E-01   -0.76425E+00  4301   0.725E-01    0.942E-01
RMM:   2    -0.413196184637E+03    0.44532E-02   -0.98773E-02  4298   0.105E-01    0.681E-01
RMM:   3    -0.413192903383E+03    0.32813E-02   -0.36042E-02  4983   0.884E-02    0.256E-01
RMM:   4    -0.413221030103E+03   -0.28127E-01   -0.39796E-02  5092   0.169E-01    0.733E-01
RMM:   5    -0.413189411361E+03    0.31619E-01   -0.14106E-02  4745   0.122E-01    0.536E-02
RMM:   6    -0.413189576817E+03   -0.16546E-03   -0.27168E-03  5744   0.498E-02    0.370E-02
RMM:   7    -0.413189578265E+03   -0.14481E-05   -0.45129E-04  5586   0.202E-02    0.240E-02
RMM:   8    -0.413189570899E+03    0.73656E-05   -0.66100E-05  5192   0.947E-03    0.105E-02
RMM:   9    -0.413189564825E+03    0.60738E-05   -0.12285E-05  3780   0.415E-03    0.638E-03
RMM:  10    -0.413189559391E+03    0.54340E-05   -0.24220E-06  2606   0.250E-03    0.384E-03
RMM:  11    -0.413189555508E+03    0.38837E-05   -0.10396E-06  2506   0.167E-03    0.219E-03
RMM:  12    -0.413189547551E+03    0.79565E-05   -0.13311E-06  2517   0.179E-03    0.101E-03
RMM:  13    -0.413189542962E+03    0.45891E-05   -0.62126E-07  2386   0.130E-03    0.719E-04
RMM:  14    -0.413189541190E+03    0.17721E-05   -0.27649E-07  1964   0.900E-04    0.476E-04
RMM:  15    -0.413189538411E+03    0.27788E-05   -0.14549E-07  1461   0.719E-04    0.241E-04
RMM:  16    -0.413189531487E+03    0.69238E-05   -0.16313E-07  1732   0.748E-04    0.388E-04
RMM:  17    -0.413189527840E+03    0.36478E-05   -0.75826E-08  1103   0.599E-04    0.328E-04
RMM:  18    -0.413189522207E+03    0.56325E-05   -0.76646E-08  1097   0.598E-04    0.205E-04
RMM:  19    -0.413189520482E+03    0.17256E-05   -0.43434E-08   925   0.562E-04    0.440E-05
RMM:  20    -0.413189519047E+03    0.14349E-05   -0.30167E-08   905   0.564E-04    0.104E-04
RMM:  21    -0.413189518966E+03    0.80388E-07   -0.12209E-08   681   0.529E-04
   32 T=    66. E= -.41286690E+03 F= -.41318952E+03 E0= -.41316807E+03  EK= 0.32262E+00 SP= 0.00E+00 SK= 0.00E+00
       N       E                     dE             d eps       ncg     rms          rms(c)
RMM:   1    -0.413203441427E+03   -0.13922E-01   -0.76259E+00  4301   0.760E-01    0.929E-01
RMM:   2    -0.413197810269E+03    0.56312E-02   -0.10141E-01  4278   0.108E-01    0.677E-01
RMM:   3    -0.413192246375E+03    0.55639E-02   -0.34276E-02  4664   0.747E-02    0.147E-01
RMM:   4    -0.413210371599E+03   -0.18125E-01   -0.19414E-02  5125   0.118E-01    0.574E-01
RMM:   5    -0.413191303160E+03    0.19068E-01   -0.94193E-03  4804   0.947E-02    0.451E-02
RMM:   6    -0.413191416042E+03   -0.11288E-03   -0.16663E-03  5823   0.384E-02    0.300E-02
RMM:   7    -0.413191421343E+03   -0.53009E-05   -0.19573E-04  5488   0.151E-02    0.152E-02
RMM:   8    -0.413191413464E+03    0.78791E-05   -0.31459E-05  4634   0.599E-03    0.869E-03
RMM:   9    -0.413191412901E+03    0.56302E-06   -0.95012E-06  3683   0.348E-03
   33 T=    66. E= -.41286680E+03 F= -.41319141E+03 E0= -.41317001E+03  EK= 0.32461E+00 SP= 0.00E+00 SK= 0.00E+00
       N       E                     dE             d eps       ncg     rms          rms(c)
RMM:   1    -0.413201447303E+03   -0.10034E-01   -0.76932E+00  4308   0.725E-01    0.928E-01
RMM:   2    -0.413200405797E+03    0.10415E-02   -0.10086E-01  4306   0.110E-01    0.686E-01
RMM:   3    -0.413201761558E+03   -0.13558E-02   -0.42106E-02  5042   0.116E-01    0.388E-01
RMM:   4    -0.413216678820E+03   -0.14917E-01   -0.38390E-02  5035   0.170E-01    0.632E-01
RMM:   5    -0.413193709152E+03    0.22970E-01   -0.93524E-03  4654   0.104E-01    0.520E-02
RMM:   6    -0.413193798623E+03   -0.89470E-04   -0.18874E-03  5664   0.412E-02    0.336E-02
RMM:   7    -0.413193800098E+03   -0.14757E-05   -0.34183E-04  5499   0.178E-02    0.213E-02
RMM:   8    -0.413193797611E+03    0.24877E-05   -0.54783E-05  5047   0.892E-03    0.850E-03
RMM:   9    -0.413193793631E+03    0.39799E-05   -0.84600E-06  3301   0.366E-03    0.455E-03
RMM:  10    -0.413193791483E+03    0.21475E-05   -0.17464E-06  2546   0.217E-03    0.280E-03
RMM:  11    -0.413193788975E+03    0.25081E-05   -0.95633E-07  2482   0.159E-03    0.144E-03
RMM:  12    -0.413193784703E+03    0.42724E-05   -0.87019E-07  2467   0.143E-03    0.626E-04
RMM:  13    -0.413193782215E+03    0.24873E-05   -0.39727E-07  2160   0.104E-03    0.442E-04
RMM:  14    -0.413193780428E+03    0.17876E-05   -0.19806E-07  1612   0.777E-04    0.301E-04
RMM:  15    -0.413193774581E+03    0.58472E-05   -0.20733E-07  1696   0.780E-04    0.345E-04
RMM:  16    -0.413193770091E+03    0.44901E-05   -0.10972E-07  1119   0.631E-04    0.238E-04
RMM:  17    -0.413193766313E+03    0.37776E-05   -0.83248E-08  1055   0.614E-04    0.153E-04
RMM:  18    -0.413193763533E+03    0.27797E-05   -0.58821E-08  1068   0.597E-04    0.477E-05
RMM:  19    -0.413193761624E+03    0.19089E-05   -0.36391E-08   925   0.572E-04    0.691E-05
RMM:  20    -0.413193761401E+03    0.22344E-06   -0.16243E-08   703   0.535E-04
   34 T=    67. E= -.41286684E+03 F= -.41319376E+03 E0= -.41317241E+03  EK= 0.32692E+00 SP= 0.00E+00 SK= 0.00E+00
       N       E                     dE             d eps       ncg     rms          rms(c)
RMM:   1    -0.413203730736E+03   -0.99691E-02   -0.76973E+00  4304   0.734E-01    0.947E-01
RMM:   2    -0.413202656601E+03    0.10741E-02   -0.10193E-01  4269   0.118E-01    0.689E-01
RMM:   3    -0.413197073374E+03    0.55832E-02   -0.35900E-02  4440   0.823E-02    0.136E-01
RMM:   4    -0.413202292915E+03   -0.52195E-02   -0.60471E-03  5139   0.683E-02    0.323E-01
RMM:   5    -0.413196445838E+03    0.58471E-02   -0.29247E-03  4808   0.529E-02    0.409E-02
RMM:   6    -0.413196513613E+03   -0.67775E-04   -0.80763E-04  5682   0.266E-02    0.318E-02
RMM:   7    -0.413196497298E+03    0.16315E-04   -0.24781E-04  5196   0.166E-02    0.192E-02
RMM:   8    -0.413196485608E+03    0.11691E-04   -0.24894E-05  4514   0.607E-03    0.764E-03
RMM:   9    -0.413196483703E+03    0.19050E-05   -0.33766E-06  2692   0.247E-03    0.470E-03
RMM:  10    -0.413196480560E+03    0.31426E-05   -0.13961E-06  2508   0.194E-03    0.238E-03
RMM:  11    -0.413196477286E+03    0.32742E-05   -0.87262E-07  2453   0.153E-03    0.114E-03
RMM:  12    -0.413196474038E+03    0.32477E-05   -0.47954E-07  2267   0.114E-03    0.559E-04
RMM:  13    -0.413196471785E+03    0.22530E-05   -0.24445E-07  1805   0.839E-04    0.296E-04
RMM:  14    -0.413196468571E+03    0.32138E-05   -0.13013E-07  1250   0.691E-04    0.204E-04
RMM:  15    -0.413196464208E+03    0.43636E-05   -0.94065E-08  1137   0.652E-04    0.109E-04
RMM:  16    -0.413196460962E+03    0.32453E-05   -0.62222E-08  1020   0.616E-04    0.851E-05
RMM:  17    -0.413196456509E+03    0.44534E-05   -0.60400E-08  1115   0.617E-04    0.588E-05
RMM:  18    -0.413196454065E+03    0.24445E-05   -0.38076E-08   961   0.576E-04    0.383E-05
RMM:  19    -0.413196453122E+03    0.94298E-06   -0.18036E-08   741   0.535E-04
   35 T=    67. E= -.41286696E+03 F= -.41319645E+03 E0= -.41317514E+03  EK= 0.32950E+00 SP= 0.00E+00 SK= 0.00E+00
       N       E                     dE             d eps       ncg     rms          rms(c)
RMM:   1    -0.413210310369E+03   -0.13856E-01   -0.77251E+00  4306   0.795E-01    0.945E-01
RMM:   2    -0.413204624999E+03    0.56854E-02   -0.10673E-01  4265   0.127E-01    0.686E-01
RMM:   3    -0.413198937136E+03    0.56879E-02   -0.34409E-02  4317   0.842E-02    0.112E-01
RMM:   4    -0.413199091754E+03   -0.15462E-03   -0.90392E-04  5052   0.281E-02    0.107E-01
RMM:   5    -0.413198542892E+03    0.54886E-03   -0.35551E-04  4784   0.186E-02    0.420E-02
RMM:   6    -0.413198594087E+03   -0.51195E-04   -0.48336E-04  5302   0.214E-02    0.344E-02
RMM:   7    -0.413198550291E+03    0.43796E-04   -0.18607E-04  4797   0.155E-02    0.191E-02
RMM:   8    -0.413198543441E+03    0.68499E-05   -0.37453E-05  4803   0.595E-03    0.597E-03
RMM:   9    -0.413198542045E+03    0.13962E-05   -0.55655E-06  2572   0.236E-03    0.236E-03
RMM:  10    -0.413198536724E+03    0.53207E-05   -0.10161E-06  2418   0.165E-03    0.103E-03
RMM:  11    -0.413198533099E+03    0.36246E-05   -0.32131E-07  1949   0.950E-04    0.618E-04
RMM:  12    -0.413198529180E+03    0.39195E-05   -0.17196E-07  1413   0.739E-04    0.384E-04
RMM:  13    -0.413198524796E+03    0.43842E-05   -0.12102E-07  1226   0.675E-04    0.190E-04
RMM:  14    -0.413198519250E+03    0.55458E-05   -0.10287E-07  1107   0.654E-04    0.143E-04
RMM:  15    -0.413198515176E+03    0.40740E-05   -0.47885E-08   878   0.586E-04    0.119E-04
RMM:  16    -0.413198509795E+03    0.53808E-05   -0.53151E-08  1027   0.602E-04    0.717E-05
RMM:  17    -0.413198507771E+03    0.20239E-05   -0.24406E-08   761   0.544E-04    0.562E-05
RMM:  18    -0.413198506730E+03    0.10411E-05   -0.12917E-08   640   0.529E-04    0.303E-05
RMM:  19    -0.413198506134E+03    0.59665E-06   -0.13282E-08   652   0.531E-04
   36 T=    68. E= -.41286657E+03 F= -.41319851E+03 E0= -.41317724E+03  EK= 0.33194E+00 SP= 0.00E+00 SK= 0.00E+00
       N       E                     dE             d eps       ncg     rms          rms(c)
RMM:   1    -0.413210707431E+03   -0.12201E-01   -0.77889E+00  4312   0.787E-01    0.936E-01
RMM:   2    -0.413208169216E+03    0.25382E-02   -0.10559E-01  4263   0.124E-01    0.691E-01
RMM:   3    -0.413202210368E+03    0.59588E-02   -0.38035E-02  4369   0.862E-02    0.151E-01
RMM:   4    -0.413204186913E+03   -0.19765E-02   -0.32700E-03  5130   0.511E-02    0.221E-01
RMM:   5    -0.413201541547E+03    0.26454E-02   -0.13355E-03  4794   0.367E-02    0.403E-02
RMM:   6    -0.413201586111E+03   -0.44564E-04   -0.56647E-04  5474   0.237E-02    0.327E-02
RMM:   7    -0.413201571836E+03    0.14276E-04   -0.21822E-04  5013   0.162E-02    0.191E-02
RMM:   8    -0.413201564350E+03    0.74859E-05   -0.30953E-05  4859   0.615E-03    0.730E-03
RMM:   9    -0.413201564096E+03    0.25390E-06   -0.47298E-06  2657   0.245E-03
   37 T=    68. E= -.41286681E+03 F= -.41320156E+03 E0= -.41318034E+03  EK= 0.33476E+00 SP= 0.00E+00 SK= 0.00E+00
       N       E                     dE             d eps       ncg     rms          rms(c)
RMM:   1    -0.413212378034E+03   -0.10814E-01   -0.78302E+00  4311   0.808E-01    0.954E-01
RMM:   2    -0.413211125415E+03    0.12526E-02   -0.10647E-01  4267   0.121E-01    0.698E-01
RMM:   3    -0.413205139325E+03    0.59861E-02   -0.37660E-02  4657   0.824E-02    0.160E-01
RMM:   4    -0.413223108545E+03   -0.17969E-01   -0.19602E-02  5135   0.120E-01    0.576E-01
RMM:   5    -0.413204144327E+03    0.18964E-01   -0.93677E-03  4800   0.953E-02    0.463E-02
RMM:   6    -0.413204177017E+03   -0.32690E-04   -0.16665E-03  5760   0.399E-02    0.331E-02
RMM:   7    -0.413204192619E+03   -0.15602E-04   -0.34845E-04  5463   0.188E-02    0.215E-02
RMM:   8    -0.413204176147E+03    0.16472E-04   -0.52118E-05  5097   0.835E-03    0.100E-02
RMM:   9    -0.413204174513E+03    0.16345E-05   -0.94235E-06  3374   0.374E-03    0.585E-03
RMM:  10    -0.413204170709E+03    0.38032E-05   -0.20261E-06  2577   0.235E-03    0.314E-03
RMM:  11    -0.413204166652E+03    0.40576E-05   -0.11764E-06  2500   0.175E-03    0.162E-03
RMM:  12    -0.413204161111E+03    0.55410E-05   -0.96070E-07  2472   0.155E-03    0.934E-04
RMM:  13    -0.413204157991E+03    0.31195E-05   -0.38056E-07  2173   0.106E-03    0.502E-04
RMM:  14    -0.413204156008E+03    0.19835E-05   -0.19019E-07  1594   0.776E-04    0.321E-04
RMM:  15    -0.413204149566E+03    0.64422E-05   -0.16572E-07  1546   0.756E-04    0.216E-04
RMM:  16    -0.413204144978E+03    0.45875E-05   -0.96480E-08  1189   0.658E-04    0.192E-04
RMM:  17    -0.413204139838E+03    0.51399E-05   -0.77642E-08  1177   0.632E-04    0.154E-04
RMM:  18    -0.413204135083E+03    0.47551E-05   -0.62013E-08  1155   0.613E-04    0.503E-05
RMM:  19    -0.413204133891E+03    0.11920E-05   -0.29751E-08   857   0.550E-04    0.344E-05
RMM:  20    -0.413204133171E+03    0.72054E-06   -0.18753E-08   761   0.533E-04
   38 T=    69. E= -.41286664E+03 F= -.41320413E+03 E0= -.41318295E+03  EK= 0.33749E+00 SP= 0.00E+00 SK= 0.00E+00
       N       E                     dE             d eps       ncg     rms          rms(c)
RMM:   1    -0.413221170957E+03   -0.17037E-01   -0.78745E+00  4310   0.889E-01    0.961E-01
RMM:   2    -0.413213790588E+03    0.73804E-02   -0.11270E-01  4260   0.120E-01    0.696E-01
RMM:   3    -0.413207714747E+03    0.60758E-02   -0.34677E-02  4740   0.752E-02    0.142E-01
RMM:   4    -0.413232498152E+03   -0.24783E-01   -0.26725E-02  5128   0.138E-01    0.667E-01
RMM:   5    -0.413206754743E+03    0.25743E-01   -0.12622E-02  4800   0.110E-01    0.493E-02
RMM:   6    -0.413206814978E+03   -0.60235E-04   -0.22296E-03  5804   0.448E-02    0.339E-02
RMM:   7    -0.413206832988E+03   -0.18010E-04   -0.34596E-04  5571   0.184E-02    0.209E-02
RMM:   8    -0.413206819514E+03    0.13474E-04   -0.60130E-05  5081   0.842E-03    0.111E-02
RMM:   9    -0.413206817595E+03    0.19194E-05   -0.13430E-05  4021   0.440E-03    0.715E-03
RMM:  10    -0.413206813134E+03    0.44608E-05   -0.24723E-06  2639   0.254E-03    0.387E-03
RMM:  11    -0.413206810031E+03    0.31028E-05   -0.10658E-06  2490   0.173E-03    0.227E-03
RMM:  12    -0.413206803320E+03    0.67109E-05   -0.14852E-06  2516   0.192E-03    0.128E-03
RMM:  13    -0.413206799599E+03    0.37218E-05   -0.53174E-07  2358   0.129E-03    0.770E-04
RMM:  14    -0.413206798681E+03    0.91745E-06   -0.23327E-07  1922   0.858E-04
   39 T=    69. E= -.41286657E+03 F= -.41320680E+03 E0= -.41318566E+03  EK= 0.34023E+00 SP= 0.00E+00 SK= 0.00E+00
       N       E                     dE             d eps       ncg     rms          rms(c)
RMM:   1    -0.413219146772E+03   -0.12347E-01   -0.78695E+00  4314   0.883E-01    0.946E-01
RMM:   2    -0.413217326062E+03    0.18207E-02   -0.11022E-01  4262   0.121E-01    0.697E-01
RMM:   3    -0.413211375603E+03    0.59505E-02   -0.37995E-02  4785   0.810E-02    0.180E-01
RMM:   4    -0.413238805224E+03   -0.27430E-01   -0.30772E-02  5118   0.148E-01    0.705E-01
RMM:   5    -0.413209944512E+03    0.28861E-01   -0.13949E-02  4793   0.117E-01    0.500E-02
RMM:   6    -0.413210008776E+03   -0.64264E-04   -0.24358E-03  5799   0.466E-02    0.330E-02
RMM:   7    -0.413210029228E+03   -0.20452E-04   -0.36241E-04  5632   0.183E-02    0.204E-02
RMM:   8    -0.413210017479E+03    0.11749E-04   -0.65581E-05  5110   0.857E-03    0.111E-02
RMM:   9    -0.413210015927E+03    0.15520E-05   -0.14788E-05  4155   0.458E-03    0.687E-03
RMM:  10    -0.413210012754E+03    0.31731E-05   -0.26015E-06  2652   0.254E-03    0.383E-03
RMM:  11    -0.413210010514E+03    0.22394E-05   -0.10903E-06  2492   0.173E-03    0.225E-03
RMM:  12    -0.413210005214E+03    0.53003E-05   -0.15320E-06  2527   0.190E-03    0.126E-03
RMM:  13    -0.413210001757E+03    0.34571E-05   -0.56254E-07  2357   0.129E-03    0.794E-04
RMM:  14    -0.413210000856E+03    0.90138E-06   -0.23763E-07  1900   0.860E-04
   40 T=    70. E= -.41286685E+03 F= -.41321000E+03 E0= -.41318890E+03  EK= 0.34315E+00 SP= 0.00E+00 SK= 0.00E+00
       N       E                     dE             d eps       ncg     rms          rms(c)
RMM:   1    -0.413222950802E+03   -0.12949E-01   -0.79761E+00  4315   0.911E-01    0.960E-01
RMM:   2    -0.413219784130E+03    0.31667E-02   -0.11205E-01  4268   0.122E-01    0.707E-01
RMM:   3    -0.413214052816E+03    0.57313E-02   -0.39244E-02  4861   0.830E-02    0.198E-01
RMM:   4    -0.413245895848E+03   -0.31843E-01   -0.37090E-02  5123   0.162E-01    0.759E-01
RMM:   5    -0.413212210535E+03    0.33685E-01   -0.16124E-02  4794   0.126E-01    0.524E-02
RMM:   6    -0.413212293086E+03   -0.82550E-04   -0.27664E-03  5805   0.495E-02    0.331E-02
RMM:   7    -0.413212316639E+03   -0.23553E-04   -0.36442E-04  5675   0.181E-02    0.194E-02
RMM:   8    -0.413212310567E+03    0.60712E-05   -0.63144E-05  5054   0.827E-03    0.108E-02
RMM:   9    -0.413212310284E+03    0.28335E-06   -0.19277E-05  4463   0.489E-03    0.710E-03
RMM:  10    -0.413212306659E+03    0.36248E-05   -0.27609E-06  2650   0.267E-03    0.397E-03
RMM:  11    -0.413212304595E+03    0.20644E-05   -0.12325E-06  2505   0.181E-03    0.239E-03
RMM:  12    -0.413212299143E+03    0.54521E-05   -0.16357E-06  2526   0.200E-03    0.129E-03
RMM:  13    -0.413212295586E+03    0.35569E-05   -0.63072E-07  2393   0.136E-03    0.864E-04
RMM:  14    -0.413212294678E+03    0.90845E-06   -0.25366E-07  1966   0.889E-04
   41 T=    70. E= -.41286663E+03 F= -.41321229E+03 E0= -.41319122E+03  EK= 0.34566E+00 SP= 0.00E+00 SK= 0.00E+00
       N       E                     dE             d eps       ncg     rms          rms(c)
RMM:   1    -0.413232115017E+03   -0.19819E-01   -0.80071E+00  4314   0.102E+00    0.977E-01
RMM:   2    -0.413222142324E+03    0.99727E-02   -0.11593E-01  4303   0.128E-01    0.706E-01
RMM:   3    -0.413217091357E+03    0.50510E-02   -0.36432E-02  4954   0.815E-02    0.202E-01
RMM:   4    -0.413253581362E+03   -0.36490E-01   -0.44407E-02  5116   0.177E-01    0.810E-01
RMM:   5    -0.413214859858E+03    0.38722E-01   -0.18055E-02  4782   0.134E-01    0.554E-02
RMM:   6    -0.413214967605E+03   -0.10775E-03   -0.31724E-03  5791   0.527E-02    0.349E-02
RMM:   7    -0.413214985493E+03   -0.17889E-04   -0.37819E-04  5673   0.184E-02    0.193E-02
RMM:   8    -0.413214981389E+03    0.41040E-05   -0.47928E-05  4816   0.706E-03    0.946E-03
RMM:   9    -0.413214976295E+03    0.50943E-05   -0.14277E-05  4021   0.410E-03    0.619E-03
RMM:  10    -0.413214973307E+03    0.29884E-05   -0.42619E-06  2887   0.273E-03    0.390E-03
RMM:  11    -0.413214968983E+03    0.43237E-05   -0.12398E-06  2486   0.191E-03    0.234E-03
RMM:  12    -0.413214959575E+03    0.94082E-05   -0.12665E-06  2487   0.184E-03    0.981E-04
RMM:  13    -0.413214955253E+03    0.43216E-05   -0.48786E-07  2382   0.125E-03    0.697E-04
RMM:  14    -0.413214954357E+03    0.89580E-06   -0.22031E-07  1907   0.846E-04
   42 T=    71. E= -.41286684E+03 F= -.41321495E+03 E0= -.41319392E+03  EK= 0.34811E+00 SP= 0.00E+00 SK= 0.00E+00
       N       E                     dE             d eps       ncg     rms          rms(c)
RMM:   1    -0.413237368306E+03   -0.22413E-01   -0.80247E+00  4316   0.109E+00    0.953E-01
RMM:   2    -0.413224680215E+03    0.12688E-01   -0.13146E-01  4350   0.132E-01    0.706E-01
RMM:   3    -0.413219907512E+03    0.47727E-02   -0.33981E-02  5006   0.852E-02    0.225E-01
RMM:   4    -0.413261444295E+03   -0.41537E-01   -0.53007E-02  5114   0.194E-01    0.864E-01
RMM:   5    -0.413217013070E+03    0.44431E-01   -0.20304E-02  4769   0.143E-01    0.582E-02
RMM:   6    -0.413217138690E+03   -0.12562E-03   -0.35713E-03  5778   0.560E-02    0.351E-02
RMM:   7    -0.413217159301E+03   -0.20611E-04   -0.43938E-04  5750   0.196E-02    0.213E-02
RMM:   8    -0.413217163360E+03   -0.40594E-05   -0.10019E-04  5210   0.100E-02    0.136E-02
RMM:   9    -0.413217153252E+03    0.10108E-04   -0.22984E-05  4558   0.558E-03    0.688E-03
RMM:  10    -0.413217149714E+03    0.35387E-05   -0.42089E-06  2827   0.295E-03    0.408E-03
RMM:  11    -0.413217146860E+03    0.28531E-05   -0.14047E-06  2505   0.197E-03    0.240E-03
RMM:  12    -0.413217140250E+03    0.66103E-05   -0.13495E-06  2502   0.189E-03    0.108E-03
RMM:  13    -0.413217135332E+03    0.49183E-05   -0.61257E-07  2404   0.133E-03    0.669E-04
RMM:  14    -0.413217134005E+03    0.13269E-05   -0.26799E-07  1982   0.899E-04    0.406E-04
RMM:  15    -0.413217131021E+03    0.29843E-05   -0.13995E-07  1389   0.716E-04    0.210E-04
RMM:  16    -0.413217124690E+03    0.63304E-05   -0.13123E-07  1527   0.722E-04    0.293E-04
RMM:  17    -0.413217122040E+03    0.26507E-05   -0.59842E-08   986   0.597E-04    0.202E-04
RMM:  18    -0.413217116326E+03    0.57132E-05   -0.76935E-08  1351   0.645E-04    0.153E-04
RMM:  19    -0.413217114518E+03    0.18088E-05   -0.35621E-08   942   0.556E-04    0.434E-05
RMM:  20    -0.413217113132E+03    0.13855E-05   -0.28772E-08   919   0.553E-04    0.562E-05
RMM:  21    -0.413217112927E+03    0.20505E-06   -0.14314E-08   721   0.518E-04
   43 T=    71. E= -.41286698E+03 F= -.41321711E+03 E0= -.41319610E+03  EK= 0.35013E+00 SP= 0.00E+00 SK= 0.00E+00
       N       E                     dE             d eps       ncg     rms          rms(c)
RMM:   1    -0.413230564867E+03   -0.13452E-01   -0.80387E+00  4316   0.106E+00    0.962E-01
RMM:   2    -0.413226106324E+03    0.44585E-02   -0.11973E-01  4365   0.136E-01    0.714E-01
RMM:   3    -0.413222713125E+03    0.33932E-02   -0.40875E-02  5020   0.972E-02    0.290E-01
RMM:   4    -0.413255842669E+03   -0.33130E-01   -0.49175E-02  5092   0.189E-01    0.800E-01
RMM:   5    -0.413218165903E+03    0.37677E-01   -0.16511E-02  4742   0.133E-01    0.561E-02
RMM:   6    -0.413218251007E+03   -0.85104E-04   -0.29805E-03  5761   0.512E-02    0.331E-02
RMM:   7    -0.413218270470E+03   -0.19463E-04   -0.37938E-04  5712   0.186E-02    0.205E-02
RMM:   8    -0.413218276789E+03   -0.63193E-05   -0.99572E-05  5175   0.102E-02    0.127E-02
RMM:   9    -0.413218268288E+03    0.85011E-05   -0.18559E-05  4390   0.533E-03    0.594E-03
RMM:  10    -0.413218267163E+03    0.11254E-05   -0.37127E-06  2776   0.274E-03    0.356E-03
RMM:  11    -0.413218265849E+03    0.13143E-05   -0.12514E-06  2501   0.185E-03    0.202E-03
RMM:  12    -0.413218262432E+03    0.34167E-05   -0.11879E-06  2505   0.171E-03    0.958E-04
RMM:  13    -0.413218259483E+03    0.29485E-05   -0.53027E-07  2328   0.121E-03    0.529E-04
RMM:  14    -0.413218258328E+03    0.11559E-05   -0.23647E-07  1789   0.832E-04    0.315E-04
RMM:  15    -0.413218255243E+03    0.30844E-05   -0.14859E-07  1345   0.718E-04    0.155E-04
RMM:  16    -0.413218251921E+03    0.33218E-05   -0.10825E-07  1232   0.672E-04    0.162E-04
RMM:  17    -0.413218249342E+03    0.25794E-05   -0.73466E-08  1114   0.626E-04    0.116E-04
RMM:  18    -0.413218246535E+03    0.28071E-05   -0.57350E-08  1099   0.609E-04    0.788E-05
RMM:  19    -0.413218243707E+03    0.28279E-05   -0.46517E-08  1084   0.596E-04    0.355E-05
RMM:  20    -0.413218243132E+03    0.57521E-06   -0.21918E-08   788   0.537E-04
   44 T=    72. E= -.41286678E+03 F= -.41321824E+03 E0= -.41319726E+03  EK= 0.35147E+00 SP= 0.00E+00 SK= 0.00E+00
       N       E                     dE             d eps       ncg     rms          rms(c)
RMM:   1    -0.413240975626E+03   -0.22732E-01   -0.80562E+00  4314   0.120E+00    0.978E-01
RMM:   2    -0.413227185917E+03    0.13790E-01   -0.13047E-01  4371   0.146E-01    0.714E-01
RMM:   3    -0.413225268380E+03    0.19175E-02   -0.37014E-02  5046   0.102E-01    0.320E-01
RMM:   4    -0.413255046884E+03   -0.29779E-01   -0.50762E-02  5079   0.193E-01    0.775E-01
RMM:   5    -0.413219465218E+03    0.35582E-01   -0.14676E-02  4720   0.128E-01    0.582E-02
RMM:   6    -0.413219519631E+03   -0.54413E-04   -0.27524E-03  5726   0.498E-02    0.341E-02
RMM:   7    -0.413219531447E+03   -0.11815E-04   -0.39872E-04  5678   0.192E-02    0.226E-02
RMM:   8    -0.413219530621E+03    0.82612E-06   -0.11219E-04  5171   0.111E-02    0.127E-02
RMM:   9    -0.413219521234E+03    0.93867E-05   -0.16405E-05  4252   0.533E-03    0.533E-03
RMM:  10    -0.413219517457E+03    0.37773E-05   -0.37341E-06  2791   0.262E-03    0.326E-03
RMM:  11    -0.413219514040E+03    0.34163E-05   -0.11434E-06  2493   0.179E-03    0.176E-03
RMM:  12    -0.413219507677E+03    0.63632E-05   -0.88219E-07  2461   0.155E-03    0.848E-04
RMM:  13    -0.413219503222E+03    0.44549E-05   -0.40928E-07  2193   0.110E-03    0.397E-04
RMM:  14    -0.413219501073E+03    0.21492E-05   -0.20715E-07  1666   0.800E-04    0.237E-04
RMM:  15    -0.413219494966E+03    0.61069E-05   -0.14504E-07  1373   0.729E-04    0.181E-04
RMM:  16    -0.413219492059E+03    0.29073E-05   -0.86180E-08  1121   0.650E-04    0.134E-04
RMM:  17    -0.413219488872E+03    0.31868E-05   -0.69302E-08  1146   0.633E-04    0.890E-05
RMM:  18    -0.413219484962E+03    0.39105E-05   -0.61028E-08  1230   0.625E-04    0.467E-05
RMM:  19    -0.413219482571E+03    0.23908E-05   -0.40591E-08  1038   0.578E-04    0.355E-05
RMM:  20    -0.413219481971E+03    0.59977E-06   -0.21264E-08   791   0.535E-04
   45 T=    72. E= -.41286710E+03 F= -.41321948E+03 E0= -.41319851E+03  EK= 0.35238E+00 SP= 0.00E+00 SK= 0.00E+00
       N       E                     dE             d eps       ncg     rms          rms(c)
RMM:   1    -0.413238520245E+03   -0.19038E-01   -0.79499E+00  4314   0.125E+00    0.963E-01
RMM:   2    -0.413226576154E+03    0.11944E-01   -0.12750E-01  4397   0.155E-01    0.708E-01
RMM:   3    -0.413226788990E+03   -0.21284E-03   -0.39245E-02  5058   0.114E-01    0.372E-01
RMM:   4    -0.413248915820E+03   -0.22127E-01   -0.47940E-02  5066   0.189E-01    0.714E-01
RMM:   5    -0.413218949621E+03    0.29966E-01   -0.11698E-02  4693   0.118E-01    0.567E-02
RMM:   6    -0.413218969256E+03   -0.19635E-04   -0.22614E-03  5689   0.455E-02    0.321E-02
RMM:   7    -0.413218986261E+03   -0.17006E-04   -0.34655E-04  5645   0.182E-02    0.217E-02
RMM:   8    -0.413218985398E+03    0.86348E-06   -0.10828E-04  5117   0.110E-02    0.116E-02
RMM:   9    -0.413218976091E+03    0.93070E-05   -0.13619E-05  4057   0.511E-03    0.476E-03
RMM:  10    -0.413218972747E+03    0.33438E-05   -0.32187E-06  2744   0.247E-03    0.286E-03
RMM:  11    -0.413218969295E+03    0.34522E-05   -0.11085E-06  2490   0.173E-03    0.150E-03
RMM:  12    -0.413218963663E+03    0.56319E-05   -0.77507E-07  2429   0.144E-03    0.733E-04
RMM:  13    -0.413218959868E+03    0.37953E-05   -0.35555E-07  2030   0.101E-03    0.326E-04
RMM:  14    -0.413218957213E+03    0.26552E-05   -0.19039E-07  1517   0.771E-04    0.184E-04
RMM:  15    -0.413218951322E+03    0.58904E-05   -0.14560E-07  1316   0.726E-04    0.148E-04
RMM:  16    -0.413218948746E+03    0.25762E-05   -0.90358E-08  1165   0.658E-04    0.984E-05
RMM:  17    -0.413218944415E+03    0.43310E-05   -0.84044E-08  1335   0.659E-04    0.638E-05
RMM:  18    -0.413218941345E+03    0.30699E-05   -0.54291E-08  1115   0.598E-04    0.368E-05
RMM:  19    -0.413218939570E+03    0.17753E-05   -0.34999E-08   942   0.559E-04    0.287E-05
RMM:  20    -0.413218939260E+03    0.31015E-06   -0.20190E-08   762   0.528E-04
   46 T=    72. E= -.41286686E+03 F= -.41321894E+03 E0= -.41319799E+03  EK= 0.35208E+00 SP= 0.00E+00 SK= 0.00E+00
       N       E                     dE             d eps       ncg     rms          rms(c)
RMM:   1    -0.413238315755E+03   -0.19376E-01   -0.79904E+00  4315   0.135E+00    0.956E-01
RMM:   2    -0.413225485931E+03    0.12830E-01   -0.12506E-01  4424   0.165E-01    0.713E-01
RMM:   3    -0.413228610203E+03   -0.31243E-02   -0.45072E-02  5062   0.130E-01    0.443E-01
RMM:   4    -0.413242482685E+03   -0.13872E-01   -0.46215E-02  5037   0.189E-01    0.655E-01
RMM:   5    -0.413217511734E+03    0.24971E-01   -0.93348E-03  4649   0.110E-01    0.550E-02
RMM:   6    -0.413217498291E+03    0.13442E-04   -0.18301E-03  5586   0.411E-02    0.293E-02
RMM:   7    -0.413217509882E+03   -0.11591E-04   -0.28793E-04  5620   0.169E-02    0.200E-02
RMM:   8    -0.413217510157E+03   -0.27482E-06   -0.10404E-04  5081   0.108E-02    0.103E-02
RMM:   9    -0.413217502686E+03    0.74715E-05   -0.11896E-05  3931   0.487E-03    0.433E-03
RMM:  10    -0.413217500706E+03    0.19800E-05   -0.27626E-06  2705   0.234E-03    0.257E-03
RMM:  11    -0.413217498342E+03    0.23638E-05   -0.11527E-06  2492   0.170E-03    0.129E-03
RMM:  12    -0.413217494754E+03    0.35880E-05   -0.73641E-07  2393   0.135E-03    0.661E-04
RMM:  13    -0.413217491957E+03    0.27975E-05   -0.34193E-07  1871   0.953E-04    0.290E-04
RMM:  14    -0.413217489341E+03    0.26153E-05   -0.19909E-07  1415   0.761E-04    0.159E-04
RMM:  15    -0.413217485068E+03    0.42728E-05   -0.16819E-07  1365   0.739E-04    0.119E-04
RMM:  16    -0.413217482430E+03    0.26382E-05   -0.11079E-07  1269   0.667E-04    0.843E-05
RMM:  17    -0.413217477744E+03    0.46861E-05   -0.11124E-07  1444   0.678E-04    0.524E-05
RMM:  18    -0.413217475672E+03    0.20725E-05   -0.55542E-08  1029   0.569E-04    0.301E-05
RMM:  19    -0.413217474738E+03    0.93386E-06   -0.33513E-08   860   0.535E-04
   47 T=    71. E= -.41286678E+03 F= -.41321747E+03 E0= -.41319654E+03  EK= 0.35069E+00 SP= 0.00E+00 SK= 0.00E+00
       N       E                     dE             d eps       ncg     rms          rms(c)
RMM:   1    -0.413234864417E+03   -0.17389E-01   -0.78446E+00  4312   0.138E+00    0.970E-01
RMM:   2    -0.413222644422E+03    0.12220E-01   -0.12580E-01  4451   0.172E-01    0.711E-01
RMM:   3    -0.413231188227E+03   -0.85438E-02   -0.45752E-02  5097   0.144E-01    0.531E-01
RMM:   4    -0.413232844802E+03   -0.16566E-02   -0.43811E-02  5006   0.187E-01    0.554E-01
RMM:   5    -0.413215010895E+03    0.17834E-01   -0.59576E-03  4591   0.956E-02    0.548E-02
RMM:   6    -0.413214951796E+03    0.59099E-04   -0.11563E-03  5251   0.346E-02    0.284E-02
RMM:   7    -0.413214970254E+03   -0.18457E-04   -0.19984E-04  5539   0.145E-02    0.173E-02
RMM:   8    -0.413214972274E+03   -0.20208E-05   -0.10135E-04  5168   0.105E-02    0.107E-02
RMM:   9    -0.413214961021E+03    0.11253E-04   -0.11973E-05  3977   0.497E-03    0.416E-03
RMM:  10    -0.413214958049E+03    0.29724E-05   -0.27801E-06  2706   0.236E-03    0.234E-03
RMM:  11    -0.413214953386E+03    0.46629E-05   -0.11885E-06  2477   0.179E-03    0.122E-03
RMM:  12    -0.413214949130E+03    0.42558E-05   -0.56720E-07  2318   0.127E-03    0.683E-04
RMM:  13    -0.413214945065E+03    0.40654E-05   -0.27886E-07  1771   0.914E-04    0.315E-04
RMM:  14    -0.413214940658E+03    0.44070E-05   -0.16452E-07  1412   0.744E-04    0.164E-04
RMM:  15    -0.413214936267E+03    0.43907E-05   -0.11631E-07  1273   0.688E-04    0.117E-04
RMM:  16    -0.413214932902E+03    0.33650E-05   -0.80532E-08  1171   0.639E-04    0.850E-05
RMM:  17    -0.413214926619E+03    0.62826E-05   -0.90998E-08  1423   0.666E-04    0.701E-05
RMM:  18    -0.413214925596E+03    0.10234E-05   -0.33693E-08   850   0.530E-04    0.506E-05
RMM:  19    -0.413214923795E+03    0.18012E-05   -0.27401E-08   849   0.533E-04    0.214E-05
RMM:  20    -0.413214923181E+03    0.61317E-06   -0.15303E-08   691   0.504E-04
   48 T=    71. E= -.41286698E+03 F= -.41321492E+03 E0= -.41319399E+03  EK= 0.34794E+00 SP= 0.00E+00 SK= 0.00E+00
       N       E                     dE             d eps       ncg     rms          rms(c)
RMM:   1    -0.413231417530E+03   -0.16494E-01   -0.76677E+00  4309   0.148E+00    0.957E-01
RMM:   2    -0.413217419423E+03    0.13998E-01   -0.12506E-01  4519   0.183E-01    0.700E-01
RMM:   3    -0.413233889879E+03   -0.16470E-01   -0.49845E-02  5120   0.164E-01    0.645E-01
RMM:   4    -0.413221702774E+03    0.12187E-01   -0.42921E-02  4969   0.188E-01    0.452E-01
RMM:   5    -0.413209903529E+03    0.11799E-01   -0.40541E-03  4567   0.863E-02    0.557E-02
RMM:   6    -0.413209794242E+03    0.10929E-03   -0.59808E-04  4812   0.286E-02    0.283E-02
RMM:   7    -0.413209804294E+03   -0.10052E-04   -0.16879E-04  5768   0.142E-02    0.134E-02
RMM:   8    -0.413209799523E+03    0.47712E-05   -0.55100E-05  5240   0.847E-03    0.938E-03
RMM:   9    -0.413209794894E+03    0.46285E-05   -0.13720E-05  4181   0.445E-03    0.400E-03
RMM:  10    -0.413209791426E+03    0.34686E-05   -0.19433E-06  2579   0.230E-03    0.244E-03
RMM:  11    -0.413209785877E+03    0.55487E-05   -0.11975E-06  2475   0.184E-03    0.150E-03
RMM:  12    -0.413209782344E+03    0.35327E-05   -0.48666E-07  2402   0.123E-03    0.808E-04
RMM:  13    -0.413209777842E+03    0.45018E-05   -0.29089E-07  2004   0.925E-04    0.432E-04
RMM:  14    -0.413209771957E+03    0.58857E-05   -0.20082E-07  1666   0.780E-04    0.390E-04
RMM:  15    -0.413209767477E+03    0.44796E-05   -0.10339E-07  1091   0.623E-04    0.157E-04
RMM:  16    -0.413209764545E+03    0.29323E-05   -0.74041E-08  1096   0.606E-04    0.962E-05
RMM:  17    -0.413209760077E+03    0.44680E-05   -0.68630E-08  1190   0.610E-04    0.112E-04
RMM:  18    -0.413209758704E+03    0.13726E-05   -0.34804E-08   864   0.536E-04    0.820E-05
RMM:  19    -0.413209755485E+03    0.32195E-05   -0.38662E-08   984   0.561E-04    0.392E-05
RMM:  20    -0.413209753831E+03    0.16538E-05   -0.24042E-08   826   0.527E-04    0.261E-05
RMM:  21    -0.413209753641E+03    0.18967E-06   -0.99989E-09   611   0.491E-04
   49 T=    70. E= -.41286663E+03 F= -.41320975E+03 E0= -.41318883E+03  EK= 0.34313E+00 SP= 0.00E+00 SK= 0.00E+00
       N       E                     dE             d eps       ncg     rms          rms(c)
RMM:   1    -0.413232031575E+03   -0.22278E-01   -0.76213E+00  4309   0.166E+00    0.930E-01
RMM:   2    -0.413211346323E+03    0.20685E-01   -0.13125E-01  4631   0.197E-01    0.698E-01
RMM:   3    -0.413236667881E+03   -0.25322E-01   -0.56242E-02  5138   0.186E-01    0.754E-01
RMM:   4    -0.413212923602E+03    0.23744E-01   -0.46532E-02  4939   0.199E-01    0.404E-01
RMM:   5    -0.413203659776E+03    0.92638E-02   -0.41832E-03  4672   0.895E-02    0.609E-02
RMM:   6    -0.413203496269E+03    0.16351E-03   -0.47121E-04  4680   0.286E-02    0.290E-02
RMM:   7    -0.413203532849E+03   -0.36580E-04   -0.27669E-04  5691   0.184E-02    0.222E-02
RMM:   8    -0.413203508671E+03    0.24178E-04   -0.72354E-05  5015   0.993E-03    0.102E-02
RMM:   9    -0.413203506568E+03    0.21034E-05   -0.23023E-05  5233   0.588E-03    0.465E-03
RMM:  10    -0.413203503848E+03    0.27199E-05   -0.29310E-06  2742   0.256E-03    0.274E-03
RMM:  11    -0.413203500119E+03    0.37282E-05   -0.15409E-06  2500   0.207E-03    0.213E-03
RMM:  12    -0.413203496992E+03    0.31271E-05   -0.51419E-07  2415   0.129E-03    0.108E-03
RMM:  13    -0.413203494116E+03    0.28762E-05   -0.29719E-07  2086   0.904E-04    0.461E-04
RMM:  14    -0.413203489927E+03    0.41896E-05   -0.25614E-07  1730   0.819E-04    0.330E-04
RMM:  15    -0.413203485298E+03    0.46290E-05   -0.17644E-07  1357   0.706E-04    0.165E-04
RMM:  16    -0.413203482643E+03    0.26542E-05   -0.98092E-08  1107   0.618E-04    0.103E-04
[...]
  135 T=    60. E= -.41286649E+03 F= -.41316002E+03 E0= -.41313926E+03  EK= 0.29354E+00 SP= 0.00E+00 SK= 0.00E+00
       N       E                     dE             d eps       ncg     rms          rms(c)
RMM:   1    -0.413151037269E+03    0.89861E-02   -0.10746E+01  4267   0.831E-01    0.876E-01
RMM:   2    -0.413160813892E+03   -0.97766E-02   -0.12809E-01  4307   0.980E-02    0.616E-01
RMM:   3    -0.413160833873E+03   -0.19981E-04   -0.68640E-03  5054   0.468E-02    0.193E-01
RMM:   4    -0.413201186592E+03   -0.40353E-01   -0.44795E-02  5142   0.176E-01    0.838E-01
RMM:   5    -0.413159808484E+03    0.41378E-01   -0.19975E-02  4804   0.141E-01    0.529E-02
RMM:   6    -0.413159842823E+03   -0.34339E-04   -0.31871E-03  5690   0.541E-02    0.153E-02
RMM:   7    -0.413159878080E+03   -0.35257E-04   -0.39279E-04  6030   0.161E-02    0.126E-02
RMM:   8    -0.413159882933E+03   -0.48530E-05   -0.48384E-05  4554   0.590E-03    0.831E-03
RMM:   9    -0.413159885868E+03   -0.29346E-05   -0.66859E-06  2949   0.310E-03    0.391E-03
RMM:  10    -0.413159889588E+03   -0.37206E-05   -0.23138E-06  2578   0.209E-03    0.211E-03
RMM:  11    -0.413159893155E+03   -0.35663E-05   -0.10339E-06  2505   0.153E-03    0.915E-04
RMM:  12    -0.413159895520E+03   -0.23656E-05   -0.55238E-07  2258   0.113E-03    0.329E-04
RMM:  13    -0.413159896782E+03   -0.12618E-05   -0.29939E-07  1806   0.886E-04    0.246E-04
RMM:  14    -0.413159898397E+03   -0.16146E-05   -0.23152E-07  1409   0.790E-04    0.137E-04
RMM:  15    -0.413159899669E+03   -0.12720E-05   -0.18873E-07  1388   0.738E-04    0.694E-05
RMM:  16    -0.413159900137E+03   -0.46843E-06   -0.11876E-07  1256   0.669E-04
  136 T=    60. E= -.41286633E+03 F= -.41315990E+03 E0= -.41313915E+03  EK= 0.29357E+00 SP= 0.00E+00 SK= 0.00E+00
       N       E                     dE             d eps       ncg     rms          rms(c)
RMM:   1    -0.413151189491E+03    0.87102E-02   -0.10788E+01  4270   0.839E-01    0.869E-01
RMM:   2    -0.413161655707E+03   -0.10466E-01   -0.13132E-01  4304   0.100E-01    0.628E-01
RMM:   3    -0.413160934217E+03    0.72149E-03   -0.67409E-03  5049   0.456E-02    0.184E-01
RMM:   4    -0.413203143204E+03   -0.42209E-01   -0.46252E-02  5145   0.178E-01    0.854E-01
RMM:   5    -0.413160057931E+03    0.43085E-01   -0.20828E-02  4799   0.144E-01    0.527E-02
RMM:   6    -0.413160116340E+03   -0.58409E-04   -0.34519E-03  5709   0.553E-02    0.139E-02
RMM:   7    -0.413160158884E+03   -0.42544E-04   -0.41369E-04  6011   0.162E-02    0.123E-02
RMM:   8    -0.413160167118E+03   -0.82341E-05   -0.49293E-05  4576   0.596E-03    0.810E-03
RMM:   9    -0.413160174604E+03   -0.74862E-05   -0.68982E-06  2980   0.304E-03    0.394E-03
RMM:  10    -0.413160182258E+03   -0.76534E-05   -0.23701E-06  2573   0.208E-03    0.217E-03
RMM:  11    -0.413160189341E+03   -0.70830E-05   -0.10767E-06  2502   0.155E-03    0.945E-04
RMM:  12    -0.413160194083E+03   -0.47421E-05   -0.59047E-07  2297   0.116E-03    0.338E-04
RMM:  13    -0.413160196420E+03   -0.23373E-05   -0.31052E-07  1827   0.893E-04    0.263E-04
RMM:  14    -0.413160199810E+03   -0.33897E-05   -0.26356E-07  1470   0.808E-04    0.146E-04
RMM:  15    -0.413160201958E+03   -0.21477E-05   -0.19000E-07  1407   0.737E-04    0.762E-05
RMM:  16    -0.413160202902E+03   -0.94422E-06   -0.13099E-07  1279   0.673E-04
  137 T=    60. E= -.41286641E+03 F= -.41316020E+03 E0= -.41313946E+03  EK= 0.29380E+00 SP= 0.00E+00 SK= 0.00E+00
       N       E                     dE             d eps       ncg     rms          rms(c)
RMM:   1    -0.413152329669E+03    0.78723E-02   -0.10820E+01  4267   0.841E-01    0.893E-01
RMM:   2    -0.413162165002E+03   -0.98353E-02   -0.12794E-01  4298   0.996E-02    0.623E-01
RMM:   3    -0.413161490126E+03    0.67488E-03   -0.69196E-03  5029   0.446E-02    0.180E-01
RMM:   4    -0.413200477963E+03   -0.38988E-01   -0.41866E-02  5149   0.170E-01    0.821E-01
RMM:   5    -0.413160789805E+03    0.39688E-01   -0.19323E-02  4803   0.138E-01    0.517E-02
RMM:   6    -0.413160834649E+03   -0.44844E-04   -0.31733E-03  5709   0.534E-02    0.166E-02
RMM:   7    -0.413160866861E+03   -0.32212E-04   -0.38374E-04  5976   0.158E-02    0.130E-02
RMM:   8    -0.413160870245E+03   -0.33842E-05   -0.45860E-05  4591   0.594E-03    0.818E-03
RMM:   9    -0.413160871079E+03   -0.83345E-06   -0.68081E-06  2977   0.304E-03
  138 T=    60. E= -.41286667E+03 F= -.41316087E+03 E0= -.41314014E+03  EK= 0.29420E+00 SP= 0.00E+00 SK= 0.00E+00
       N       E                     dE             d eps       ncg     rms          rms(c)
RMM:   1    -0.413151997565E+03    0.88727E-02   -0.10733E+01  4276   0.841E-01    0.883E-01
RMM:   2    -0.413161464392E+03   -0.94668E-02   -0.12769E-01  4307   0.102E-01    0.617E-01
RMM:   3    -0.413162555232E+03   -0.10908E-02   -0.80733E-03  5148   0.557E-02    0.240E-01
RMM:   4    -0.413196269419E+03   -0.33714E-01   -0.43495E-02  5118   0.174E-01    0.783E-01
RMM:   5    -0.413160591200E+03    0.35678E-01   -0.16537E-02  4777   0.132E-01    0.603E-02
RMM:   6    -0.413160511863E+03    0.79337E-04   -0.26692E-03  5563   0.508E-02    0.169E-02
RMM:   7    -0.413160545786E+03   -0.33924E-04   -0.38377E-04  6088   0.167E-02    0.128E-02
RMM:   8    -0.413160549216E+03   -0.34297E-05   -0.47665E-05  4864   0.623E-03    0.806E-03
RMM:   9    -0.413160550517E+03   -0.13013E-05   -0.97356E-06  3557   0.396E-03    0.374E-03
RMM:  10    -0.413160552074E+03   -0.15570E-05   -0.19890E-06  2568   0.210E-03    0.217E-03
RMM:  11    -0.413160554241E+03   -0.21663E-05   -0.11172E-06  2526   0.163E-03    0.118E-03
RMM:  12    -0.413160555441E+03   -0.12002E-05   -0.52873E-07  2304   0.113E-03    0.491E-04
RMM:  13    -0.413160556367E+03   -0.92658E-06   -0.31831E-07  1580   0.841E-04
  139 T=    60. E= -.41286627E+03 F= -.41316056E+03 E0= -.41313983E+03  EK= 0.29429E+00 SP= 0.00E+00 SK= 0.00E+00
       N       E                     dE             d eps       ncg     rms          rms(c)
RMM:   1    -0.413153455136E+03    0.71003E-02   -0.10742E+01  4270   0.863E-01    0.867E-01
RMM:   2    -0.413162964920E+03   -0.95098E-02   -0.13222E-01  4300   0.102E-01    0.627E-01
RMM:   3    -0.413161494394E+03    0.14705E-02   -0.63679E-03  4914   0.419E-02    0.157E-01
RMM:   4    -0.413189354076E+03   -0.27860E-01   -0.28787E-02  5158   0.141E-01    0.695E-01
RMM:   5    -0.413161194901E+03    0.28159E-01   -0.14060E-02  4820   0.116E-01    0.424E-02
RMM:   6    -0.413161224485E+03   -0.29584E-04   -0.22831E-03  5732   0.452E-02    0.147E-02
RMM:   7    -0.413161254811E+03   -0.30327E-04   -0.27038E-04  5797   0.134E-02    0.112E-02
RMM:   8    -0.413161263685E+03   -0.88734E-05   -0.33321E-05  4362   0.537E-03    0.663E-03
RMM:   9    -0.413161270415E+03   -0.67305E-05   -0.54416E-06  2899   0.280E-03    0.322E-03
RMM:  10    -0.413161276929E+03   -0.65139E-05   -0.19024E-06  2552   0.187E-03    0.187E-03
RMM:  11    -0.413161282503E+03   -0.55737E-05   -0.90942E-07  2452   0.141E-03    0.900E-04
RMM:  12    -0.413161286449E+03   -0.39461E-05   -0.53718E-07  2169   0.108E-03    0.297E-04
RMM:  13    -0.413161288790E+03   -0.23409E-05   -0.30598E-07  1674   0.863E-04    0.201E-04
RMM:  14    -0.413161291549E+03   -0.27595E-05   -0.28634E-07  1464   0.801E-04    0.103E-04
RMM:  15    -0.413161292852E+03   -0.13030E-05   -0.17135E-07  1329   0.714E-04    0.631E-05
RMM:  16    -0.413161293775E+03   -0.92309E-06   -0.15363E-07  1373   0.690E-04
  140 T=    60. E= -.41286662E+03 F= -.41316129E+03 E0= -.41314058E+03  EK= 0.29467E+00 SP= 0.00E+00 SK= 0.00E+00
       N       E                     dE             d eps       ncg     rms          rms(c)
RMM:   1    -0.413152850095E+03    0.84428E-02   -0.10764E+01  4265   0.847E-01    0.886E-01
RMM:   2    -0.413162557434E+03   -0.97073E-02   -0.12880E-01  4291   0.103E-01    0.626E-01
RMM:   3    -0.413161510032E+03    0.10474E-02   -0.66264E-03  4906   0.380E-02    0.152E-01
RMM:   4    -0.413182238031E+03   -0.20728E-01   -0.21347E-02  5156   0.122E-01    0.602E-01
RMM:   5    -0.413161282348E+03    0.20956E-01   -0.10517E-02  4822   0.100E-01    0.392E-02
RMM:   6    -0.413161287097E+03   -0.47491E-05   -0.17240E-03  5725   0.395E-02    0.159E-02
RMM:   7    -0.413161305537E+03   -0.18440E-04   -0.20898E-04  5685   0.121E-02    0.108E-02
RMM:   8    -0.413161309493E+03   -0.39563E-05   -0.27890E-05  4327   0.523E-03    0.603E-03
RMM:   9    -0.413161311345E+03   -0.18520E-05   -0.45048E-06  2820   0.267E-03    0.282E-03
RMM:  10    -0.413161313892E+03   -0.25470E-05   -0.15961E-06  2543   0.177E-03    0.173E-03
RMM:  11    -0.413161316146E+03   -0.22534E-05   -0.79728E-07  2433   0.135E-03    0.842E-04
RMM:  12    -0.413161317719E+03   -0.15733E-05   -0.45188E-07  2068   0.103E-03    0.268E-04
RMM:  13    -0.413161318679E+03   -0.95988E-06   -0.25520E-07  1557   0.827E-04
  141 T=    60. E= -.41286645E+03 F= -.41316132E+03 E0= -.41314061E+03  EK= 0.29487E+00 SP= 0.00E+00 SK= 0.00E+00
       N       E                     dE             d eps       ncg     rms          rms(c)
RMM:   1    -0.413153139618E+03    0.81781E-02   -0.10711E+01  4267   0.849E-01    0.890E-01
RMM:   2    -0.413162224234E+03   -0.90846E-02   -0.12691E-01  4301   0.989E-02    0.618E-01
RMM:   3    -0.413161408631E+03    0.81560E-03   -0.67168E-03  4849   0.347E-02    0.149E-01
RMM:   4    -0.413171385892E+03   -0.99773E-02   -0.10512E-02  5170   0.865E-02    0.420E-01
RMM:   5    -0.413161375723E+03    0.10010E-01   -0.51081E-03  4842   0.700E-02    0.345E-02
RMM:   6    -0.413161353437E+03    0.22286E-04   -0.87042E-04  5662   0.291E-02    0.171E-02
RMM:   7    -0.413161360533E+03   -0.70954E-05   -0.12133E-04  5463   0.959E-03    0.962E-03
RMM:   8    -0.413161360271E+03    0.26170E-06   -0.20963E-05  4293   0.485E-03    0.480E-03
RMM:   9    -0.413161359339E+03    0.93205E-06   -0.25609E-06  2653   0.223E-03
  142 T=    60. E= -.41286629E+03 F= -.41316136E+03 E0= -.41314066E+03  EK= 0.29507E+00 SP= 0.00E+00 SK= 0.00E+00
       N       E                     dE             d eps       ncg     rms          rms(c)
RMM:   1    -0.413153493632E+03    0.78666E-02   -0.10657E+01  4272   0.854E-01    0.867E-01
RMM:   2    -0.413163943463E+03   -0.10450E-01   -0.12841E-01  4299   0.104E-01    0.623E-01
RMM:   3    -0.413162289037E+03    0.16544E-02   -0.64396E-03  4913   0.411E-02    0.151E-01
RMM:   4    -0.413186520996E+03   -0.24232E-01   -0.25065E-02  5159   0.132E-01    0.649E-01
RMM:   5    -0.413162007560E+03    0.24513E-01   -0.12298E-02  4831   0.108E-01    0.429E-02
RMM:   6    -0.413162005149E+03    0.24112E-05   -0.19776E-03  5706   0.426E-02    0.159E-02
RMM:   7    -0.413162029448E+03   -0.24299E-04   -0.24609E-04  5793   0.130E-02    0.110E-02
RMM:   8    -0.413162036180E+03   -0.67319E-05   -0.33593E-05  4569   0.562E-03    0.634E-03
RMM:   9    -0.413162040421E+03   -0.42411E-05   -0.56169E-06  2920   0.286E-03    0.291E-03
RMM:  10    -0.413162045057E+03   -0.46363E-05   -0.18948E-06  2554   0.189E-03    0.184E-03
RMM:  11    -0.413162049399E+03   -0.43415E-05   -0.98018E-07  2478   0.144E-03    0.952E-04
RMM:  12    -0.413162052265E+03   -0.28660E-05   -0.53291E-07  2088   0.108E-03    0.320E-04
RMM:  13    -0.413162053981E+03   -0.17162E-05   -0.31610E-07  1686   0.866E-04    0.203E-04
RMM:  14    -0.413162055853E+03   -0.18718E-05   -0.30325E-07  1604   0.817E-04    0.121E-04
RMM:  15    -0.413162056732E+03   -0.87934E-06   -0.18366E-07  1389   0.710E-04
  143 T=    60. E= -.41286658E+03 F= -.41316206E+03 E0= -.41314137E+03  EK= 0.29548E+00 SP= 0.00E+00 SK= 0.00E+00
       N       E                     dE             d eps       ncg     rms          rms(c)
RMM:   1    -0.413153471822E+03    0.85840E-02   -0.10694E+01  4264   0.854E-01    0.880E-01
RMM:   2    -0.413163176068E+03   -0.97042E-02   -0.12912E-01  4298   0.102E-01    0.629E-01
RMM:   3    -0.413161957366E+03    0.12187E-02   -0.66402E-03  4678   0.343E-02    0.136E-01
RMM:   4    -0.413162127971E+03   -0.17061E-03   -0.11126E-03  5063   0.295E-02    0.651E-02
RMM:   5    -0.413161941822E+03    0.18615E-03   -0.19807E-04  4949   0.149E-02    0.339E-02
RMM:   6    -0.413161899163E+03    0.42659E-04   -0.11422E-04  5115   0.116E-02    0.151E-02
RMM:   7    -0.413161909469E+03   -0.10307E-04   -0.43086E-05  5115   0.699E-03    0.821E-03
RMM:   8    -0.413161910420E+03   -0.95080E-06   -0.98233E-06  3586   0.399E-03
  144 T=    60. E= -.41286623E+03 F= -.41316191E+03 E0= -.41314123E+03  EK= 0.29568E+00 SP= 0.00E+00 SK= 0.00E+00
       N       E                     dE             d eps       ncg     rms          rms(c)
RMM:   1    -0.413154523319E+03    0.73862E-02   -0.10678E+01  4264   0.856E-01    0.895E-01
RMM:   2    -0.413163496515E+03   -0.89732E-02   -0.12593E-01  4303   0.100E-01    0.620E-01
RMM:   3    -0.413162460078E+03    0.10364E-02   -0.70670E-03  4792   0.376E-02    0.144E-01
RMM:   4    -0.413162653163E+03   -0.19309E-03   -0.16054E-03  5127   0.371E-02    0.513E-02
RMM:   5    -0.413162500141E+03    0.15302E-03   -0.35862E-04  4889   0.219E-02    0.214E-02
RMM:   6    -0.413162530795E+03   -0.30654E-04   -0.10042E-04  5673   0.962E-03    0.283E-02
RMM:   7    -0.413162506625E+03    0.24170E-04   -0.60044E-05  5285   0.792E-03    0.117E-02
RMM:   8    -0.413162500000E+03    0.66244E-05   -0.13727E-05  3974   0.475E-03    0.629E-03
RMM:   9    -0.413162499487E+03    0.51349E-06   -0.38142E-06  2867   0.264E-03
  145 T=    60. E= -.41286638E+03 F= -.41316250E+03 E0= -.41314183E+03  EK= 0.29612E+00 SP= 0.00E+00 SK= 0.00E+00
       N       E                     dE             d eps       ncg     rms          rms(c)
RMM:   1    -0.413154649886E+03    0.78501E-02   -0.10571E+01  4264   0.854E-01    0.868E-01
RMM:   2    -0.413164451611E+03   -0.98017E-02   -0.12752E-01  4299   0.105E-01    0.621E-01
RMM:   3    -0.413163087795E+03    0.13638E-02   -0.66869E-03  4787   0.377E-02    0.140E-01
RMM:   4    -0.413171551641E+03   -0.84638E-02   -0.92016E-03  5177   0.824E-02    0.388E-01
RMM:   5    -0.413163008651E+03    0.85430E-02   -0.43524E-03  4844   0.648E-02    0.384E-02
RMM:   6    -0.413162965915E+03    0.42737E-04   -0.80200E-04  5658   0.279E-02    0.167E-02
RMM:   7    -0.413162979526E+03   -0.13611E-04   -0.12350E-04  5604   0.100E-02    0.915E-03
RMM:   8    -0.413162983310E+03   -0.37843E-05   -0.24371E-05  4626   0.533E-03    0.527E-03
RMM:   9    -0.413162984254E+03   -0.94451E-06   -0.29870E-06  2716   0.240E-03
  146 T=    60. E= -.41286641E+03 F= -.41316298E+03 E0= -.41314232E+03  EK= 0.29657E+00 SP= 0.00E+00 SK= 0.00E+00
       N       E                     dE             d eps       ncg     rms          rms(c)
RMM:   1    -0.413154829811E+03    0.81535E-02   -0.10629E+01  4270   0.861E-01    0.875E-01
RMM:   2    -0.413164643922E+03   -0.98141E-02   -0.12889E-01  4300   0.102E-01    0.631E-01
RMM:   3    -0.413163360208E+03    0.12837E-02   -0.71522E-03  4998   0.420E-02    0.152E-01
RMM:   4    -0.413192978834E+03   -0.29619E-01   -0.30798E-02  5153   0.146E-01    0.715E-01
RMM:   5    -0.413162980842E+03    0.29998E-01   -0.14944E-02  4833   0.119E-01    0.496E-02
RMM:   6    -0.413163029899E+03   -0.49057E-04   -0.24122E-03  5713   0.468E-02    0.177E-02
RMM:   7    -0.413163057861E+03   -0.27963E-04   -0.30064E-04  5914   0.142E-02    0.120E-02
RMM:   8    -0.413163064719E+03   -0.68580E-05   -0.42664E-05  4997   0.639E-03    0.691E-03
RMM:   9    -0.413163067402E+03   -0.26829E-05   -0.74542E-06  3108   0.315E-03    0.306E-03
RMM:  10    -0.413163071074E+03   -0.36718E-05   -0.23386E-06  2576   0.205E-03    0.192E-03
RMM:  11    -0.413163074480E+03   -0.34058E-05   -0.11388E-06  2508   0.156E-03    0.104E-03
RMM:  12    -0.413163076777E+03   -0.22974E-05   -0.66411E-07  2277   0.118E-03    0.349E-04
RMM:  13    -0.413163077690E+03   -0.91248E-06   -0.33591E-07  1798   0.884E-04
  147 T=    60. E= -.41286621E+03 F= -.41316308E+03 E0= -.41314241E+03  EK= 0.29687E+00 SP= 0.00E+00 SK= 0.00E+00
       N       E                     dE             d eps       ncg     rms          rms(c)
RMM:   1    -0.413156261178E+03    0.68156E-02   -0.10628E+01  4264   0.861E-01    0.897E-01
RMM:   2    -0.413165224787E+03   -0.89636E-02   -0.12540E-01  4302   0.101E-01    0.623E-01
RMM:   3    -0.413164020039E+03    0.12047E-02   -0.73424E-03  4946   0.389E-02    0.149E-01
RMM:   4    -0.413183109092E+03   -0.19089E-01   -0.19620E-02  5165   0.118E-01    0.578E-01
RMM:   5    -0.413163816245E+03    0.19293E-01   -0.97022E-03  4838   0.958E-02    0.448E-02
RMM:   6    -0.413163819787E+03   -0.35419E-05   -0.16421E-03  5711   0.380E-02    0.205E-02
RMM:   7    -0.413163828814E+03   -0.90269E-05   -0.20862E-04  5722   0.122E-02    0.110E-02
RMM:   8    -0.413163826877E+03    0.19363E-05   -0.31335E-05  4704   0.575E-03    0.596E-03
RMM:   9    -0.413163824430E+03    0.24471E-05   -0.52686E-06  2968   0.283E-03    0.280E-03
RMM:  10    -0.413163823100E+03    0.13303E-05   -0.18110E-06  2545   0.195E-03    0.179E-03
RMM:  11    -0.413163821266E+03    0.18335E-05   -0.91149E-07  2492   0.147E-03    0.840E-04
RMM:  12    -0.413163819843E+03    0.14229E-05   -0.47763E-07  2157   0.107E-03    0.328E-04
RMM:  13    -0.413163818979E+03    0.86462E-06   -0.26621E-07  1654   0.840E-04
  148 T=    61. E= -.41286639E+03 F= -.41316382E+03 E0= -.41314316E+03  EK= 0.29742E+00 SP= 0.00E+00 SK= 0.00E+00
       N       E                     dE             d eps       ncg     rms          rms(c)
RMM:   1    -0.413156243852E+03    0.75760E-02   -0.10503E+01  4268   0.858E-01    0.874E-01
RMM:   2    -0.413165451324E+03   -0.92075E-02   -0.12623E-01  4299   0.102E-01    0.620E-01
RMM:   3    -0.413164434518E+03    0.10168E-02   -0.72112E-03  4970   0.421E-02    0.152E-01
RMM:   4    -0.413192308153E+03   -0.27874E-01   -0.28897E-02  5150   0.142E-01    0.694E-01
RMM:   5    -0.413164110764E+03    0.28197E-01   -0.14079E-02  4827   0.116E-01    0.496E-02
RMM:   6    -0.413164144041E+03   -0.33278E-04   -0.22825E-03  5700   0.454E-02    0.196E-02
RMM:   7    -0.413164161987E+03   -0.17946E-04   -0.28800E-04  5856   0.139E-02    0.120E-02
RMM:   8    -0.413164163262E+03   -0.12745E-05   -0.39745E-05  4929   0.627E-03    0.643E-03
RMM:   9    -0.413164162261E+03    0.10014E-05   -0.74184E-06  3152   0.310E-03    0.298E-03
RMM:  10    -0.413164162642E+03   -0.38118E-06   -0.20638E-06  2555   0.200E-03
  149 T=    61. E= -.41286621E+03 F= -.41316416E+03 E0= -.41314351E+03  EK= 0.29795E+00 SP= 0.00E+00 SK= 0.00E+00
       N       E                     dE             d eps       ncg     rms          rms(c)
RMM:   1    -0.413156729276E+03    0.74330E-02   -0.10557E+01  4278   0.869E-01    0.872E-01
RMM:   2    -0.413166514889E+03   -0.97856E-02   -0.12864E-01  4312   0.101E-01    0.633E-01
RMM:   3    -0.413165888307E+03    0.62658E-03   -0.82287E-03  5148   0.503E-02    0.198E-01
RMM:   4    -0.413208277218E+03   -0.42389E-01   -0.49111E-02  5131   0.184E-01    0.858E-01
RMM:   5    -0.413164569373E+03    0.43708E-01   -0.21085E-02  4813   0.144E-01    0.644E-02
RMM:   6    -0.413164590352E+03   -0.20978E-04   -0.33255E-03  5638   0.563E-02    0.199E-02
RMM:   7    -0.413164631966E+03   -0.41615E-04   -0.47285E-04  6093   0.178E-02    0.143E-02
RMM:   8    -0.413164637614E+03   -0.56479E-05   -0.65464E-05  5453   0.795E-03    0.809E-03
RMM:   9    -0.413164639837E+03   -0.22231E-05   -0.11714E-05  3505   0.383E-03    0.365E-03
RMM:  10    -0.413164642468E+03   -0.26304E-05   -0.26453E-06  2596   0.219E-03    0.217E-03
RMM:  11    -0.413164645590E+03   -0.31222E-05   -0.14951E-06  2539   0.180E-03    0.139E-03
RMM:  12    -0.413164647386E+03   -0.17963E-05   -0.77356E-07  2497   0.136E-03    0.589E-04
RMM:  13    -0.413164648157E+03   -0.77099E-06   -0.36466E-07  1865   0.937E-04
  150 T=    61. E= -.41286610E+03 F= -.41316465E+03 E0= -.41314399E+03  EK= 0.29855E+00 SP= 0.00E+00 SK= 0.00E+00
