       N       E                     dE             d eps       ncg     rms          rms(c)
RMM:   1     0.220115276146E+04    0.22012E+04   -0.52446E+04  2132   0.654E+02
RMM:   2     0.705692262262E+03   -0.14955E+04   -0.16263E+04  2132   0.177E+02
RMM:   3     0.137780588475E+03   -0.56791E+03   -0.65700E+03  2132   0.117E+02
RMM:   4    -0.159272281976E+03   -0.29705E+03   -0.27846E+03  2132   0.936E+01
RMM:   5    -0.287425311864E+03   -0.12815E+03   -0.11444E+03  2132   0.595E+01
RMM:   6    -0.349777178540E+03   -0.62352E+02   -0.55173E+02  2132   0.423E+01
RMM:   7    -0.382675780843E+03   -0.32899E+02   -0.30448E+02  2132   0.293E+01
RMM:   8    -0.404210324793E+03   -0.21535E+02   -0.18440E+02  2132   0.234E+01
RMM:   9    -0.436057638954E+03   -0.31847E+02   -0.30727E+02  6110   0.173E+01
RMM:  10    -0.441323361813E+03   -0.52657E+01   -0.62597E+01  6399   0.540E+00
RMM:  11    -0.442527598875E+03   -0.12042E+01   -0.11043E+01  6215   0.173E+00
RMM:  12    -0.442894151668E+03   -0.36655E+00   -0.26786E+00  6361   0.598E-01    0.134E+02
RMM:  13    -0.425592034798E+03    0.17302E+02   -0.80844E+01  4676   0.119E+01    0.712E+01
RMM:  14    -0.499562285294E+03   -0.73970E+02   -0.53796E+02  5413   0.232E+01    0.308E+01
RMM:  15    -0.418863026029E+03    0.80699E+02   -0.20631E+02  5127   0.164E+01    0.906E+00
RMM:  16    -0.414016229949E+03    0.48468E+01   -0.40624E+01  6092   0.625E+00    0.433E+00
RMM:  17    -0.413207532961E+03    0.80870E+00   -0.28845E+00  5451   0.198E+00    0.244E+00
RMM:  18    -0.413177510404E+03    0.30023E-01   -0.73212E-01  6011   0.873E-01    0.173E+00
RMM:  19    -0.413184263322E+03   -0.67529E-02   -0.22094E-01  5627   0.528E-01    0.101E+00
RMM:  20    -0.413203020890E+03   -0.18758E-01   -0.42445E-01  5583   0.658E-01    0.765E-01
RMM:  21    -0.413173593603E+03    0.29427E-01   -0.41243E-02  4989   0.272E-01    0.391E-01
RMM:  22    -0.413166301524E+03    0.72921E-02   -0.41196E-02  5695   0.206E-01    0.157E-01
RMM:  23    -0.413165511558E+03    0.78997E-03   -0.62469E-03  5797   0.746E-02    0.902E-02
RMM:  24    -0.413164169036E+03    0.13425E-02   -0.19921E-03  5341   0.437E-02    0.555E-02
RMM:  25    -0.413163057548E+03    0.11115E-02   -0.10225E-03  4883   0.314E-02    0.397E-02
RMM:  26    -0.413163027328E+03    0.30220E-04   -0.11303E-03  5818   0.333E-02    0.318E-02
RMM:  27    -0.413163421824E+03   -0.39450E-03   -0.22956E-04  4577   0.205E-02    0.191E-02
RMM:  28    -0.413163790107E+03   -0.36828E-03   -0.14852E-04  4954   0.160E-02    0.979E-03
RMM:  29    -0.413164175369E+03   -0.38526E-03   -0.11104E-04  4583   0.158E-02    0.462E-03
RMM:  30    -0.413164470149E+03   -0.29478E-03   -0.10693E-04  4427   0.132E-02    0.458E-03
RMM:  31    -0.413164597966E+03   -0.12782E-03   -0.64282E-05  3418   0.745E-03    0.384E-03
RMM:  32    -0.413164622764E+03   -0.24799E-04   -0.23860E-05  2987   0.327E-03    0.249E-03
RMM:  33    -0.413164633377E+03   -0.10613E-04   -0.10142E-05  2845   0.245E-03    0.946E-04
RMM:  34    -0.413164632941E+03    0.43652E-06   -0.54714E-06  2576   0.150E-03
    1 T=    61. E= -.41286684E+03 F= -.41316463E+03 E0= -.41314214E+03  EK= 0.29780E+00 SP= 0.00E+00 SK= 0.00E+00
       N       E                     dE             d eps       ncg     rms          rms(c)
RMM:   1    -0.413173232484E+03   -0.85991E-02   -0.64299E+00  3990   0.499E-01    0.906E-01
RMM:   2    -0.413171399241E+03    0.18332E-02   -0.82733E-02  3894   0.746E-02    0.663E-01
RMM:   3    -0.413167332934E+03    0.40663E-02   -0.48316E-02  5064   0.758E-02    0.293E-01
RMM:   4    -0.413187933352E+03   -0.20600E-01   -0.30091E-02  5167   0.147E-01    0.643E-01
RMM:   5    -0.413164183855E+03    0.23749E-01   -0.11693E-02  4776   0.110E-01    0.479E-02
RMM:   6    -0.413164347561E+03   -0.16371E-03   -0.20479E-03  5698   0.442E-02    0.310E-02
RMM:   7    -0.413164361140E+03   -0.13579E-04   -0.36231E-04  5747   0.172E-02    0.204E-02
RMM:   8    -0.413164361127E+03    0.12864E-07   -0.45390E-05  4994   0.766E-03    0.751E-03
RMM:   9    -0.413164363849E+03   -0.27224E-05   -0.96352E-06  3350   0.328E-03    0.498E-03
RMM:  10    -0.413164369009E+03   -0.51596E-05   -0.19877E-06  2575   0.204E-03    0.302E-03
RMM:  11    -0.413164372940E+03   -0.39311E-05   -0.11260E-06  2511   0.148E-03    0.152E-03
RMM:  12    -0.413164378526E+03   -0.55856E-05   -0.11504E-06  2512   0.145E-03    0.736E-04
RMM:  13    -0.413164381199E+03   -0.26735E-05   -0.58083E-07  2165   0.105E-03    0.479E-04
RMM:  14    -0.413164381550E+03   -0.35106E-06   -0.32276E-07  1638   0.772E-04
    2 T=    61. E= -.41286666E+03 F= -.41316438E+03 E0= -.41314188E+03  EK= 0.29772E+00 SP= 0.00E+00 SK= 0.00E+00
       N       E                     dE             d eps       ncg     rms          rms(c)
RMM:   1    -0.413174311418E+03   -0.99302E-02   -0.63799E+00  4190   0.498E-01    0.921E-01
RMM:   2    -0.413171577312E+03    0.27341E-02   -0.83030E-02  3884   0.730E-02    0.662E-01
RMM:   3    -0.413168208901E+03    0.33684E-02   -0.44942E-02  5099   0.750E-02    0.279E-01
RMM:   4    -0.413189180517E+03   -0.20972E-01   -0.31507E-02  5138   0.152E-01    0.652E-01
RMM:   5    -0.413164769703E+03    0.24411E-01   -0.11323E-02  4752   0.109E-01    0.478E-02
RMM:   6    -0.413164921212E+03   -0.15151E-03   -0.20349E-03  5678   0.445E-02    0.330E-02
RMM:   7    -0.413164921164E+03    0.47879E-07   -0.36100E-04  5668   0.178E-02    0.219E-02
RMM:   8    -0.413164913929E+03    0.72356E-05   -0.49266E-05  5163   0.796E-03    0.877E-03
RMM:   9    -0.413164912515E+03    0.14136E-05   -0.92160E-06  3419   0.348E-03    0.539E-03
RMM:  10    -0.413164912522E+03   -0.72068E-08   -0.17495E-06  2550   0.212E-03
    3 T=    61. E= -.41286699E+03 F= -.41316491E+03 E0= -.41314242E+03  EK= 0.29792E+00 SP= 0.00E+00 SK= 0.00E+00
       N       E                     dE             d eps       ncg     rms          rms(c)
RMM:   1    -0.413173606701E+03   -0.86942E-02   -0.63378E+00  4215   0.503E-01    0.907E-01
RMM:   2    -0.413171274986E+03    0.23317E-02   -0.82513E-02  4155   0.718E-02    0.656E-01
RMM:   3    -0.413172985994E+03   -0.17110E-02   -0.48334E-02  5161   0.995E-02    0.408E-01
RMM:   4    -0.413180133198E+03   -0.71472E-02   -0.30111E-02  5077   0.152E-01    0.531E-01
RMM:   5    -0.413164626711E+03    0.15506E-01   -0.70621E-03  4604   0.884E-02    0.475E-02
RMM:   6    -0.413164666838E+03   -0.40128E-04   -0.12108E-03  5407   0.342E-02    0.299E-02
RMM:   7    -0.413164677211E+03   -0.10373E-04   -0.23300E-04  5612   0.145E-02    0.184E-02
RMM:   8    -0.413164677587E+03   -0.37597E-06   -0.34456E-05  4890   0.692E-03    0.646E-03
RMM:   9    -0.413164677472E+03    0.11445E-06   -0.45582E-06  2834   0.267E-03
    4 T=    61. E= -.41286676E+03 F= -.41316468E+03 E0= -.41314219E+03  EK= 0.29792E+00 SP= 0.00E+00 SK= 0.00E+00
       N       E                     dE             d eps       ncg     rms          rms(c)
RMM:   1    -0.413173602051E+03   -0.89245E-02   -0.64232E+00  4240   0.512E-01    0.904E-01
RMM:   2    -0.413171705539E+03    0.18965E-02   -0.82909E-02  4081   0.709E-02    0.662E-01
RMM:   3    -0.413172099654E+03   -0.39411E-03   -0.50820E-02  5161   0.940E-02    0.399E-01
RMM:   4    -0.413182093715E+03   -0.99941E-02   -0.30390E-02  5087   0.152E-01    0.564E-01
RMM:   5    -0.413164760189E+03    0.17334E-01   -0.84297E-03  4640   0.941E-02    0.469E-02
RMM:   6    -0.413164829293E+03   -0.69104E-04   -0.13355E-03  5516   0.361E-02    0.293E-02
RMM:   7    -0.413164844501E+03   -0.15208E-04   -0.25432E-04  5627   0.151E-02    0.184E-02
RMM:   8    -0.413164848254E+03   -0.37531E-05   -0.35492E-05  4869   0.705E-03    0.630E-03
RMM:   9    -0.413164851157E+03   -0.29025E-05   -0.51240E-06  2907   0.275E-03    0.371E-03
RMM:  10    -0.413164855921E+03   -0.47643E-05   -0.13472E-06  2534   0.182E-03    0.226E-03
RMM:  11    -0.413164859351E+03   -0.34298E-05   -0.78287E-07  2413   0.134E-03    0.110E-03
RMM:  12    -0.413164863664E+03   -0.43137E-05   -0.84538E-07  2470   0.125E-03    0.562E-04
RMM:  13    -0.413164865899E+03   -0.22342E-05   -0.46844E-07  1934   0.951E-04    0.336E-04
RMM:  14    -0.413164866531E+03   -0.63270E-06   -0.23152E-07  1432   0.748E-04
    5 T=    61. E= -.41286678E+03 F= -.41316487E+03 E0= -.41314239E+03  EK= 0.29809E+00 SP= 0.00E+00 SK= 0.00E+00
       N       E                     dE             d eps       ncg     rms          rms(c)
RMM:   1    -0.413174604657E+03   -0.97388E-02   -0.63923E+00  4246   0.511E-01    0.919E-01
RMM:   2    -0.413172025326E+03    0.25793E-02   -0.82835E-02  4035   0.711E-02    0.663E-01
RMM:   3    -0.413169182575E+03    0.28428E-02   -0.46006E-02  5102   0.757E-02    0.301E-01
RMM:   4    -0.413188531423E+03   -0.19349E-01   -0.31535E-02  5114   0.152E-01    0.639E-01
RMM:   5    -0.413165180105E+03    0.23351E-01   -0.10887E-02  4713   0.107E-01    0.477E-02
RMM:   6    -0.413165331370E+03   -0.15127E-03   -0.19121E-03  5628   0.431E-02    0.322E-02
RMM:   7    -0.413165340558E+03   -0.91879E-05   -0.33866E-04  5652   0.173E-02    0.214E-02
RMM:   8    -0.413165335129E+03    0.54294E-05   -0.46406E-05  5096   0.788E-03    0.831E-03
RMM:   9    -0.413165334263E+03    0.86570E-06   -0.83465E-06  3297   0.339E-03
    6 T=    61. E= -.41286696E+03 F= -.41316533E+03 E0= -.41314287E+03  EK= 0.29837E+00 SP= 0.00E+00 SK= 0.00E+00
       N       E                     dE             d eps       ncg     rms          rms(c)
RMM:   1    -0.413174201960E+03   -0.88668E-02   -0.63467E+00  4271   0.516E-01    0.913E-01
RMM:   2    -0.413171687657E+03    0.25143E-02   -0.82533E-02  4265   0.720E-02    0.658E-01
RMM:   3    -0.413175645804E+03   -0.39581E-02   -0.49233E-02  5166   0.107E-01    0.450E-01
RMM:   4    -0.413178174972E+03   -0.25292E-02   -0.30010E-02  5056   0.152E-01    0.490E-01
RMM:   5    -0.413165116413E+03    0.13059E-01   -0.58913E-03  4563   0.823E-02    0.474E-02
RMM:   6    -0.413165125079E+03   -0.86665E-05   -0.99996E-04  5327   0.310E-02    0.299E-02
RMM:   7    -0.413165133250E+03   -0.81708E-05   -0.20276E-04  5505   0.138E-02    0.176E-02
RMM:   8    -0.413165127873E+03    0.53771E-05   -0.31353E-05  4793   0.672E-03    0.595E-03
RMM:   9    -0.413165126262E+03    0.16107E-05   -0.37742E-06  2738   0.251E-03    0.314E-03
RMM:  10    -0.413165125561E+03    0.70062E-06   -0.11171E-06  2501   0.167E-03
    7 T=    61. E= -.41286673E+03 F= -.41316513E+03 E0= -.41314268E+03  EK= 0.29839E+00 SP= 0.00E+00 SK= 0.00E+00
       N       E                     dE             d eps       ncg     rms          rms(c)
RMM:   1    -0.413174448245E+03   -0.93220E-02   -0.64050E+00  4269   0.524E-01    0.902E-01
RMM:   2    -0.413172635858E+03    0.18124E-02   -0.82609E-02  4072   0.739E-02    0.660E-01
RMM:   3    -0.413170009439E+03    0.26264E-02   -0.48704E-02  5054   0.824E-02    0.327E-01
RMM:   4    -0.413187981090E+03   -0.17972E-01   -0.30811E-02  5097   0.150E-01    0.631E-01
RMM:   5    -0.413165528220E+03    0.22453E-01   -0.10858E-02  4708   0.106E-01    0.463E-02
RMM:   6    -0.413165678335E+03   -0.15011E-03   -0.18633E-03  5645   0.421E-02    0.313E-02
RMM:   7    -0.413165677410E+03    0.92440E-06   -0.33076E-04  5617   0.171E-02    0.208E-02
RMM:   8    -0.413165672842E+03    0.45681E-05   -0.43664E-05  4982   0.791E-03    0.804E-03
RMM:   9    -0.413165673718E+03   -0.87640E-06   -0.80991E-06  3242   0.336E-03
    8 T=    61. E= -.41286701E+03 F= -.41316567E+03 E0= -.41314325E+03  EK= 0.29866E+00 SP= 0.00E+00 SK= 0.00E+00
       N       E                     dE             d eps       ncg     rms          rms(c)
RMM:   1    -0.413174906528E+03   -0.92337E-02   -0.64055E+00  4288   0.525E-01    0.915E-01
RMM:   2    -0.413172783169E+03    0.21234E-02   -0.82880E-02  4287   0.763E-02    0.664E-01
RMM:   3    -0.413177550493E+03   -0.47673E-02   -0.51992E-02  5146   0.114E-01    0.477E-01
RMM:   4    -0.413178172911E+03   -0.62242E-03   -0.29867E-02  5032   0.152E-01    0.482E-01
RMM:   5    -0.413165849150E+03    0.12324E-01   -0.59572E-03  4543   0.807E-02    0.462E-02
RMM:   6    -0.413165858700E+03   -0.95503E-05   -0.91965E-04  5309   0.298E-02    0.292E-02
RMM:   7    -0.413165867265E+03   -0.85648E-05   -0.18938E-04  5392   0.136E-02    0.169E-02
RMM:   8    -0.413165868948E+03   -0.16829E-05   -0.29068E-05  4696   0.661E-03    0.546E-03
RMM:   9    -0.413165869525E+03   -0.57727E-06   -0.36657E-06  2713   0.242E-03
    9 T=    61. E= -.41286700E+03 F= -.41316587E+03 E0= -.41314346E+03  EK= 0.29887E+00 SP= 0.00E+00 SK= 0.00E+00
       N       E                     dE             d eps       ncg     rms          rms(c)
RMM:   1    -0.413175234454E+03   -0.93655E-02   -0.63624E+00  4290   0.528E-01    0.919E-01
RMM:   2    -0.413172633729E+03    0.26007E-02   -0.83099E-02  4215   0.749E-02    0.660E-01
RMM:   3    -0.413171725286E+03    0.90844E-03   -0.46120E-02  5101   0.896E-02    0.345E-01
RMM:   4    -0.413185370821E+03   -0.13646E-01   -0.30990E-02  5076   0.152E-01    0.587E-01
RMM:   5    -0.413165870820E+03    0.19500E-01   -0.87274E-03  4680   0.970E-02    0.476E-02
RMM:   6    -0.413165960383E+03   -0.89563E-04   -0.15546E-03  5587   0.386E-02    0.316E-02
RMM:   7    -0.413165956717E+03    0.36659E-05   -0.28716E-04  5623   0.160E-02    0.203E-02
RMM:   8    -0.413165950378E+03    0.63393E-05   -0.39104E-05  4934   0.736E-03    0.737E-03
RMM:   9    -0.413165947750E+03    0.26283E-05   -0.63044E-06  3027   0.299E-03    0.419E-03
RMM:  10    -0.413165945755E+03    0.19945E-05   -0.14928E-06  2526   0.196E-03    0.251E-03
RMM:  11    -0.413165943944E+03    0.18112E-05   -0.81023E-07  2464   0.142E-03    0.126E-03
RMM:  12    -0.413165940725E+03    0.32184E-05   -0.90270E-07  2485   0.135E-03    0.652E-04
RMM:  13    -0.413165938113E+03    0.26121E-05   -0.47068E-07  2064   0.101E-03    0.416E-04
RMM:  14    -0.413165937121E+03    0.99268E-06   -0.19903E-07  1499   0.751E-04
   10 T=    61. E= -.41286680E+03 F= -.41316594E+03 E0= -.41314355E+03  EK= 0.29914E+00 SP= 0.00E+00 SK= 0.00E+00
       N       E                     dE             d eps       ncg     rms          rms(c)
RMM:   1    -0.413175576588E+03   -0.96385E-02   -0.63850E+00  4289   0.536E-01    0.902E-01
RMM:   2    -0.413173596456E+03    0.19801E-02   -0.82524E-02  4212   0.730E-02    0.659E-01
RMM:   3    -0.413170999427E+03    0.25970E-02   -0.48078E-02  5067   0.816E-02    0.324E-01
RMM:   4    -0.413189041626E+03   -0.18042E-01   -0.30914E-02  5088   0.151E-01    0.630E-01
RMM:   5    -0.413166600562E+03    0.22441E-01   -0.10752E-02  4707   0.105E-01    0.467E-02
RMM:   6    -0.413166742290E+03   -0.14173E-03   -0.18208E-03  5621   0.417E-02    0.313E-02
RMM:   7    -0.413166744522E+03   -0.22327E-05   -0.32130E-04  5599   0.168E-02    0.206E-02
RMM:   8    -0.413166742399E+03    0.21234E-05   -0.43192E-05  5021   0.764E-03    0.781E-03
RMM:   9    -0.413166742218E+03    0.18050E-06   -0.77365E-06  3196   0.328E-03
   11 T=    61. E= -.41286708E+03 F= -.41316674E+03 E0= -.41314438E+03  EK= 0.29966E+00 SP= 0.00E+00 SK= 0.00E+00
       N       E                     dE             d eps       ncg     rms          rms(c)
RMM:   1    -0.413175767252E+03   -0.90249E-02   -0.64318E+00  4292   0.539E-01    0.913E-01
RMM:   2    -0.413173511678E+03    0.22556E-02   -0.83108E-02  4331   0.723E-02    0.665E-01
RMM:   3    -0.413178007421E+03   -0.44957E-02   -0.52791E-02  5152   0.111E-01    0.474E-01
RMM:   4    -0.413179559854E+03   -0.15524E-02   -0.30266E-02  5039   0.153E-01    0.494E-01
RMM:   5    -0.413166690859E+03    0.12869E-01   -0.63610E-03  4547   0.825E-02    0.461E-02
RMM:   6    -0.413166707130E+03   -0.16271E-04   -0.98139E-04  5320   0.303E-02    0.290E-02
RMM:   7    -0.413166715552E+03   -0.84216E-05   -0.19650E-04  5407   0.138E-02    0.170E-02
RMM:   8    -0.413166717464E+03   -0.19127E-05   -0.29676E-05  4713   0.657E-03    0.553E-03
RMM:   9    -0.413166717770E+03   -0.30558E-06   -0.35528E-06  2725   0.244E-03
   12 T=    61. E= -.41286680E+03 F= -.41316672E+03 E0= -.41314439E+03  EK= 0.29992E+00 SP= 0.00E+00 SK= 0.00E+00
       N       E                     dE             d eps       ncg     rms          rms(c)
RMM:   1    -0.413176715025E+03   -0.99976E-02   -0.63871E+00  4297   0.540E-01    0.924E-01
RMM:   2    -0.413173838336E+03    0.28767E-02   -0.83351E-02  4256   0.722E-02    0.662E-01
RMM:   3    -0.413173594381E+03    0.24395E-03   -0.46579E-02  5138   0.890E-02    0.359E-01
RMM:   4    -0.413185798761E+03   -0.12204E-01   -0.31187E-02  5076   0.152E-01    0.575E-01
RMM:   5    -0.413167189681E+03    0.18609E-01   -0.82683E-03  4665   0.951E-02    0.476E-02
RMM:   6    -0.413167264428E+03   -0.74747E-04   -0.14697E-03  5561   0.374E-02    0.314E-02
RMM:   7    -0.413167261493E+03    0.29359E-05   -0.27514E-04  5603   0.158E-02    0.201E-02
RMM:   8    -0.413167255933E+03    0.55595E-05   -0.38243E-05  4896   0.754E-03    0.720E-03
RMM:   9    -0.413167252543E+03    0.33899E-05   -0.63761E-06  3005   0.300E-03    0.404E-03
RMM:  10    -0.413167249693E+03    0.28499E-05   -0.14302E-06  2516   0.193E-03    0.243E-03
RMM:  11    -0.413167247232E+03    0.24613E-05   -0.78920E-07  2450   0.140E-03    0.122E-03
RMM:  12    -0.413167242874E+03    0.43579E-05   -0.85756E-07  2476   0.132E-03    0.636E-04
RMM:  13    -0.413167239671E+03    0.32026E-05   -0.40478E-07  1996   0.981E-04    0.402E-04
RMM:  14    -0.413167238134E+03    0.15372E-05   -0.18843E-07  1468   0.745E-04    0.244E-04
RMM:  15    -0.413167233143E+03    0.49909E-05   -0.31113E-07  1877   0.838E-04    0.402E-04
RMM:  16    -0.413167228120E+03    0.50233E-05   -0.24614E-07  1367   0.707E-04    0.287E-04
RMM:  17    -0.413167227217E+03    0.90283E-06   -0.78454E-08   923   0.560E-04
   13 T=    61. E= -.41286685E+03 F= -.41316723E+03 E0= -.41314493E+03  EK= 0.30038E+00 SP= 0.00E+00 SK= 0.00E+00
       N       E                     dE             d eps       ncg     rms          rms(c)
RMM:   1    -0.413176807526E+03   -0.95794E-02   -0.63738E+00  4294   0.547E-01    0.904E-01
RMM:   2    -0.413174709435E+03    0.20981E-02   -0.82614E-02  4240   0.750E-02    0.658E-01
RMM:   3    -0.413172024614E+03    0.26848E-02   -0.47188E-02  5074   0.784E-02    0.314E-01
RMM:   4    -0.413190802519E+03   -0.18778E-01   -0.31428E-02  5093   0.151E-01    0.636E-01
RMM:   5    -0.413167786289E+03    0.23016E-01   -0.10919E-02  4703   0.106E-01    0.466E-02
RMM:   6    -0.413167934764E+03   -0.14847E-03   -0.18743E-03  5636   0.422E-02    0.319E-02
RMM:   7    -0.413167938893E+03   -0.41290E-05   -0.32994E-04  5554   0.173E-02    0.211E-02
RMM:   8    -0.413167938006E+03    0.88705E-06   -0.45312E-05  5046   0.780E-03    0.819E-03
RMM:   9    -0.413167937038E+03    0.96709E-06   -0.82877E-06  3273   0.340E-03
   14 T=    61. E= -.41286701E+03 F= -.41316794E+03 E0= -.41314567E+03  EK= 0.30093E+00 SP= 0.00E+00 SK= 0.00E+00
       N       E                     dE             d eps       ncg     rms          rms(c)
RMM:   1    -0.413177022495E+03   -0.90845E-02   -0.64571E+00  4303   0.554E-01    0.911E-01
RMM:   2    -0.413175075676E+03    0.19468E-02   -0.83403E-02  4311   0.761E-02    0.666E-01
RMM:   3    -0.413180849165E+03   -0.57735E-02   -0.54649E-02  5139   0.118E-01    0.502E-01
RMM:   4    -0.413179866992E+03    0.98217E-03   -0.30400E-02  5025   0.154E-01    0.479E-01
RMM:   5    -0.413167989992E+03    0.11877E-01   -0.61547E-03  4508   0.810E-02    0.453E-02
RMM:   6    -0.413168019133E+03   -0.29141E-04   -0.89536E-04  5284   0.290E-02    0.287E-02
RMM:   7    -0.413168026632E+03   -0.74981E-05   -0.18769E-04  5294   0.135E-02    0.165E-02
RMM:   8    -0.413168027118E+03   -0.48683E-06   -0.27660E-05  4566   0.690E-03    0.515E-03
RMM:   9    -0.413168027661E+03   -0.54235E-06   -0.34850E-06  2696   0.244E-03
   15 T=    61. E= -.41286670E+03 F= -.41316803E+03 E0= -.41314579E+03  EK= 0.30132E+00 SP= 0.00E+00 SK= 0.00E+00
       N       E                     dE             d eps       ncg     rms          rms(c)
RMM:   1    -0.413178586473E+03   -0.10559E-01   -0.64102E+00  4296   0.551E-01    0.926E-01
RMM:   2    -0.413175883963E+03    0.27025E-02   -0.83548E-02  4265   0.761E-02    0.665E-01
RMM:   3    -0.413175373967E+03    0.51000E-03   -0.47081E-02  5090   0.925E-02    0.359E-01
RMM:   4    -0.413187909943E+03   -0.12536E-01   -0.31168E-02  5059   0.152E-01    0.579E-01
RMM:   5    -0.413169047333E+03    0.18863E-01   -0.84635E-03  4663   0.963E-02    0.472E-02
RMM:   6    -0.413169134448E+03   -0.87115E-04   -0.15072E-03  5574   0.377E-02    0.316E-02
RMM:   7    -0.413169124760E+03    0.96885E-05   -0.27795E-04  5562   0.163E-02    0.201E-02
RMM:   8    -0.413169116184E+03    0.85760E-05   -0.38666E-05  4891   0.761E-03    0.720E-03
RMM:   9    -0.413169112451E+03    0.37329E-05   -0.65660E-06  3028   0.304E-03    0.410E-03
RMM:  10    -0.413169109212E+03    0.32383E-05   -0.14336E-06  2520   0.194E-03    0.246E-03
RMM:  11    -0.413169106378E+03    0.28346E-05   -0.76881E-07  2453   0.139E-03    0.125E-03
RMM:  12    -0.413169101277E+03    0.51013E-05   -0.85528E-07  2473   0.133E-03    0.647E-04
RMM:  13    -0.413169097232E+03    0.40446E-05   -0.40807E-07  2014   0.986E-04    0.418E-04
RMM:  14    -0.413169095733E+03    0.14991E-05   -0.17744E-07  1447   0.734E-04    0.249E-04
RMM:  15    -0.413169089059E+03    0.66740E-05   -0.31024E-07  1889   0.852E-04    0.460E-04
RMM:  16    -0.413169084435E+03    0.46237E-05   -0.16707E-07  1239   0.656E-04    0.315E-04
RMM:  17    -0.413169083110E+03    0.13252E-05   -0.70317E-08   903   0.556E-04    0.232E-04
RMM:  18    -0.413169081069E+03    0.20411E-05   -0.58537E-08   925   0.576E-04    0.907E-05
RMM:  19    -0.413169079505E+03    0.15641E-05   -0.55466E-08  1055   0.592E-04    0.101E-04
RMM:  20    -0.413169079521E+03   -0.16673E-07   -0.15055E-08   663   0.530E-04
   16 T=    61. E= -.41286702E+03 F= -.41316908E+03 E0= -.41314688E+03  EK= 0.30206E+00 SP= 0.00E+00 SK= 0.00E+00
       N       E                     dE             d eps       ncg     rms          rms(c)
RMM:   1    -0.413178695355E+03   -0.96158E-02   -0.63798E+00  4295   0.560E-01    0.910E-01
RMM:   2    -0.413176401991E+03    0.22934E-02   -0.83128E-02  4251   0.779E-02    0.660E-01
RMM:   3    -0.413173621566E+03    0.27804E-02   -0.46716E-02  5039   0.818E-02    0.309E-01
RMM:   4    -0.413192623488E+03   -0.19002E-01   -0.31606E-02  5083   0.152E-01    0.638E-01
RMM:   5    -0.413169389054E+03    0.23234E-01   -0.10928E-02  4708   0.106E-01    0.466E-02
RMM:   6    -0.413169528029E+03   -0.13897E-03   -0.19026E-03  5641   0.424E-02    0.324E-02
RMM:   7    -0.413169521594E+03    0.64353E-05   -0.33579E-04  5540   0.176E-02    0.214E-02
RMM:   8    -0.413169517269E+03    0.43245E-05   -0.45933E-05  5026   0.809E-03    0.839E-03
RMM:   9    -0.413169515029E+03    0.22399E-05   -0.89319E-06  3329   0.347E-03    0.510E-03
RMM:  10    -0.413169514497E+03    0.53203E-06   -0.15884E-06  2523   0.208E-03
   17 T=    62. E= -.41286688E+03 F= -.41316951E+03 E0= -.41314736E+03  EK= 0.30264E+00 SP= 0.00E+00 SK= 0.00E+00
       N       E                     dE             d eps       ncg     rms          rms(c)
RMM:   1    -0.413179149618E+03   -0.96346E-02   -0.64797E+00  4302   0.572E-01    0.910E-01
RMM:   2    -0.413177134551E+03    0.20151E-02   -0.84722E-02  4297   0.776E-02    0.667E-01
RMM:   3    -0.413178861882E+03   -0.17273E-02   -0.52631E-02  5116   0.105E-01    0.432E-01
RMM:   4    -0.413185760785E+03   -0.68989E-02   -0.30784E-02  5044   0.153E-01    0.543E-01
RMM:   5    -0.413169912066E+03    0.15849E-01   -0.77625E-03  4592   0.894E-02    0.461E-02
RMM:   6    -0.413169975035E+03   -0.62969E-04   -0.12612E-03  5438   0.336E-02    0.293E-02
RMM:   7    -0.413169976159E+03   -0.11232E-05   -0.23231E-04  5483   0.145E-02    0.182E-02
RMM:   8    -0.413169976812E+03   -0.65326E-06   -0.33205E-05  4792   0.680E-03    0.614E-03
RMM:   9    -0.413169976652E+03    0.16004E-06   -0.45751E-06  2816   0.269E-03
   18 T=    62. E= -.41286676E+03 F= -.41316998E+03 E0= -.41314786E+03  EK= 0.30322E+00 SP= 0.00E+00 SK= 0.00E+00
       N       E                     dE             d eps       ncg     rms          rms(c)
RMM:   1    -0.413180762619E+03   -0.10786E-01   -0.64417E+00  4298   0.567E-01    0.927E-01
RMM:   2    -0.413178048219E+03    0.27144E-02   -0.84123E-02  4277   0.762E-02    0.668E-01
RMM:   3    -0.413178862785E+03   -0.81457E-03   -0.48724E-02  5127   0.972E-02    0.393E-01
RMM:   4    -0.413188114844E+03   -0.92521E-02   -0.31031E-02  5057   0.153E-01    0.552E-01
RMM:   5    -0.413171170065E+03    0.16945E-01   -0.76053E-03  4625   0.918E-02    0.471E-02
RMM:   6    -0.413171230681E+03   -0.60616E-04   -0.13419E-03  5502   0.352E-02    0.308E-02
RMM:   7    -0.413171222900E+03    0.77810E-05   -0.24991E-04  5520   0.155E-02    0.193E-02
RMM:   8    -0.413171220594E+03    0.23057E-05   -0.35936E-05  4838   0.742E-03    0.669E-03
RMM:   9    -0.413171217526E+03    0.30685E-05   -0.57602E-06  2929   0.288E-03    0.373E-03
RMM:  10    -0.413171214625E+03    0.29009E-05   -0.13382E-06  2516   0.187E-03    0.223E-03
RMM:  11    -0.413171211889E+03    0.27359E-05   -0.72136E-07  2409   0.134E-03    0.112E-03
RMM:  12    -0.413171206931E+03    0.49583E-05   -0.75312E-07  2456   0.126E-03    0.599E-04
RMM:  13    -0.413171202883E+03    0.40478E-05   -0.36164E-07  1897   0.929E-04    0.374E-04
RMM:  14    -0.413171200905E+03    0.19781E-05   -0.16500E-07  1351   0.713E-04    0.218E-04
RMM:  15    -0.413171194212E+03    0.66929E-05   -0.26720E-07  1733   0.803E-04    0.386E-04
RMM:  16    -0.413171188770E+03    0.54422E-05   -0.16207E-07  1198   0.650E-04    0.254E-04
RMM:  17    -0.413171187531E+03    0.12389E-05   -0.64708E-08   887   0.558E-04    0.180E-04
RMM:  18    -0.413171185273E+03    0.22578E-05   -0.55063E-08   954   0.570E-04    0.710E-05
RMM:  19    -0.413171183757E+03    0.15162E-05   -0.43168E-08   963   0.571E-04    0.630E-05
RMM:  20    -0.413171183703E+03    0.54526E-07   -0.13102E-08   650   0.522E-04
   19 T=    62. E= -.41286708E+03 F= -.41317118E+03 E0= -.41314911E+03  EK= 0.30411E+00 SP= 0.00E+00 SK= 0.00E+00
       N       E                     dE             d eps       ncg     rms          rms(c)
RMM:   1    -0.413180980338E+03   -0.97966E-02   -0.64069E+00  4295   0.568E-01    0.917E-01
RMM:   2    -0.413178397244E+03    0.25831E-02   -0.83581E-02  4254   0.761E-02    0.662E-01
RMM:   3    -0.413175703120E+03    0.26941E-02   -0.46254E-02  5082   0.779E-02    0.304E-01
RMM:   4    -0.413195040827E+03   -0.19338E-01   -0.32127E-02  5086   0.153E-01    0.641E-01
RMM:   5    -0.413171519257E+03    0.23522E-01   -0.10977E-02  4713   0.107E-01    0.470E-02
RMM:   6    -0.413171661469E+03   -0.14221E-03   -0.19297E-03  5649   0.429E-02    0.328E-02
RMM:   7    -0.413171658717E+03    0.27518E-05   -0.33999E-04  5540   0.177E-02    0.219E-02
RMM:   8    -0.413171653234E+03    0.54826E-05   -0.46748E-05  5002   0.855E-03    0.864E-03
RMM:   9    -0.413171650061E+03    0.31735E-05   -0.98737E-06  3354   0.365E-03    0.519E-03
RMM:  10    -0.413171648238E+03    0.18234E-05   -0.17255E-06  2547   0.214E-03    0.307E-03
RMM:  11    -0.413171646591E+03    0.16464E-05   -0.87156E-07  2496   0.149E-03    0.163E-03
RMM:  12    -0.413171643201E+03    0.33897E-05   -0.10699E-06  2500   0.155E-03    0.852E-04
RMM:  13    -0.413171640451E+03    0.27500E-05   -0.45402E-07  2197   0.109E-03    0.591E-04
RMM:  14    -0.413171640058E+03    0.39377E-06   -0.19581E-07  1609   0.768E-04
   20 T=    62. E= -.41286681E+03 F= -.41317164E+03 E0= -.41314961E+03  EK= 0.30483E+00 SP= 0.00E+00 SK= 0.00E+00
       N       E                     dE             d eps       ncg     rms          rms(c)
RMM:   1    -0.413181894537E+03   -0.10254E-01   -0.64930E+00  4295   0.577E-01    0.911E-01
RMM:   2    -0.413179720706E+03    0.21738E-02   -0.83905E-02  4260   0.761E-02    0.668E-01
RMM:   3    -0.413176655530E+03    0.30652E-02   -0.49608E-02  5063   0.764E-02    0.317E-01
RMM:   4    -0.413196526457E+03   -0.19871E-01   -0.31348E-02  5091   0.151E-01    0.648E-01
RMM:   5    -0.413172637723E+03    0.23889E-01   -0.11652E-02  4722   0.109E-01    0.460E-02
RMM:   6    -0.413172806290E+03   -0.16857E-03   -0.19882E-03  5683   0.433E-02    0.317E-02
RMM:   7    -0.413172805951E+03    0.33969E-06   -0.34385E-04  5562   0.178E-02    0.214E-02
RMM:   8    -0.413172801756E+03    0.41948E-05   -0.48366E-05  4994   0.831E-03    0.859E-03
RMM:   9    -0.413172800641E+03    0.11150E-05   -0.96594E-06  3389   0.369E-03    0.536E-03
RMM:  10    -0.413172801457E+03   -0.81588E-06   -0.16738E-06  2540   0.212E-03
   21 T=    62. E= -.41286702E+03 F= -.41317280E+03 E0= -.41315081E+03  EK= 0.30578E+00 SP= 0.00E+00 SK= 0.00E+00
       N       E                     dE             d eps       ncg     rms          rms(c)
RMM:   1    -0.413184038999E+03   -0.11238E-01   -0.64929E+00  4296   0.586E-01    0.927E-01
RMM:   2    -0.413180794273E+03    0.32447E-02   -0.85009E-02  4308   0.781E-02    0.671E-01
RMM:   3    -0.413182232022E+03   -0.14377E-02   -0.50214E-02  5119   0.101E-01    0.409E-01
RMM:   4    -0.413190478668E+03   -0.82466E-02   -0.31342E-02  5053   0.153E-01    0.548E-01
RMM:   5    -0.413173786684E+03    0.16692E-01   -0.75954E-03  4609   0.915E-02    0.469E-02
RMM:   6    -0.413173861371E+03   -0.74687E-04   -0.13441E-03  5462   0.350E-02    0.305E-02
RMM:   7    -0.413173880742E+03   -0.19371E-04   -0.24844E-04  5444   0.160E-02    0.192E-02
RMM:   8    -0.413173875691E+03    0.50508E-05   -0.37065E-05  4834   0.749E-03    0.668E-03
RMM:   9    -0.413173873006E+03    0.26853E-05   -0.58109E-06  2953   0.292E-03    0.373E-03
RMM:  10    -0.413173870825E+03    0.21810E-05   -0.12763E-06  2514   0.186E-03    0.224E-03
RMM:  11    -0.413173868678E+03    0.21461E-05   -0.68647E-07  2405   0.132E-03    0.112E-03
RMM:  12    -0.413173864676E+03    0.40022E-05   -0.70508E-07  2427   0.123E-03    0.588E-04
RMM:  13    -0.413173861477E+03    0.31989E-05   -0.32424E-07  1845   0.901E-04    0.365E-04
RMM:  14    -0.413173859592E+03    0.18850E-05   -0.15863E-07  1345   0.703E-04    0.214E-04
RMM:  15    -0.413173854385E+03    0.52070E-05   -0.18924E-07  1446   0.735E-04    0.273E-04
RMM:  16    -0.413173849056E+03    0.53297E-05   -0.14966E-07  1207   0.660E-04    0.222E-04
RMM:  17    -0.413173847143E+03    0.19127E-05   -0.64213E-08   920   0.574E-04    0.145E-04
RMM:  18    -0.413173844617E+03    0.25263E-05   -0.52018E-08   955   0.578E-04    0.676E-05
RMM:  19    -0.413173843101E+03    0.15160E-05   -0.36884E-08   930   0.567E-04    0.336E-05
RMM:  20    -0.413173842802E+03    0.29899E-06   -0.13586E-08   681   0.528E-04
   22 T=    62. E= -.41286711E+03 F= -.41317384E+03 E0= -.41315190E+03  EK= 0.30673E+00 SP= 0.00E+00 SK= 0.00E+00
       N       E                     dE             d eps       ncg     rms          rms(c)
RMM:   1    -0.413184212010E+03   -0.10369E-01   -0.64521E+00  4293   0.580E-01    0.926E-01
RMM:   2    -0.413181505745E+03    0.27063E-02   -0.84559E-02  4266   0.773E-02    0.666E-01
RMM:   3    -0.413178283181E+03    0.32226E-02   -0.46067E-02  5027   0.817E-02    0.290E-01
RMM:   4    -0.413199074304E+03   -0.20791E-01   -0.32253E-02  5090   0.153E-01    0.654E-01
RMM:   5    -0.413174475176E+03    0.24599E-01   -0.11429E-02  4723   0.109E-01    0.470E-02
RMM:   6    -0.413174618360E+03   -0.14318E-03   -0.20396E-03  5681   0.440E-02    0.333E-02
RMM:   7    -0.413174609854E+03    0.85063E-05   -0.35515E-04  5546   0.182E-02    0.224E-02
RMM:   8    -0.413174603360E+03    0.64945E-05   -0.49963E-05  5048   0.840E-03    0.915E-03
RMM:   9    -0.413174599642E+03    0.37175E-05   -0.98716E-06  3426   0.367E-03    0.555E-03
RMM:  10    -0.413174597055E+03    0.25875E-05   -0.17540E-06  2540   0.216E-03    0.331E-03
RMM:  11    -0.413174594692E+03    0.23629E-05   -0.92709E-07  2497   0.153E-03    0.176E-03
RMM:  12    -0.413174590196E+03    0.44959E-05   -0.11944E-06  2514   0.162E-03    0.894E-04
RMM:  13    -0.413174586756E+03    0.34396E-05   -0.49659E-07  2240   0.113E-03    0.642E-04
RMM:  14    -0.413174586445E+03    0.31162E-06   -0.20117E-07  1641   0.779E-04
   23 T=    63. E= -.41286691E+03 F= -.41317459E+03 E0= -.41315269E+03  EK= 0.30768E+00 SP= 0.00E+00 SK= 0.00E+00
       N       E                     dE             d eps       ncg     rms          rms(c)
RMM:   1    -0.413185396141E+03   -0.10809E-01   -0.65094E+00  4295   0.587E-01    0.913E-01
RMM:   2    -0.413183495357E+03    0.19008E-02   -0.84701E-02  4281   0.805E-02    0.668E-01
RMM:   3    -0.413179730059E+03    0.37653E-02   -0.49284E-02  4987   0.822E-02    0.302E-01
RMM:   4    -0.413200714308E+03   -0.20984E-01   -0.30858E-02  5093   0.150E-01    0.657E-01
RMM:   5    -0.413176064828E+03    0.24649E-01   -0.12020E-02  4740   0.111E-01    0.458E-02
RMM:   6    -0.413176220793E+03   -0.15597E-03   -0.21162E-03  5718   0.442E-02    0.319E-02
RMM:   7    -0.413176215648E+03    0.51453E-05   -0.35401E-04  5559   0.183E-02    0.218E-02
RMM:   8    -0.413176212808E+03    0.28392E-05   -0.51077E-05  4947   0.858E-03    0.913E-03
RMM:   9    -0.413176211101E+03    0.17078E-05   -0.10453E-05  3466   0.380E-03    0.581E-03
RMM:  10    -0.413176211097E+03    0.38817E-08   -0.17557E-06  2536   0.218E-03
   24 T=    63. E= -.41286715E+03 F= -.41317621E+03 E0= -.41315436E+03  EK= 0.30906E+00 SP= 0.00E+00 SK= 0.00E+00
       N       E                     dE             d eps       ncg     rms          rms(c)
RMM:   1    -0.413186819501E+03   -0.10608E-01   -0.65521E+00  4301   0.590E-01    0.927E-01
RMM:   2    -0.413184546972E+03    0.22725E-02   -0.85295E-02  4317   0.804E-02    0.675E-01
RMM:   3    -0.413186039987E+03   -0.14930E-02   -0.51964E-02  5091   0.107E-01    0.422E-01
RMM:   4    -0.413193573605E+03   -0.75336E-02   -0.30774E-02  5043   0.153E-01    0.547E-01
RMM:   5    -0.413177228651E+03    0.16345E-01   -0.75736E-03  4595   0.908E-02    0.462E-02
RMM:   6    -0.413177298355E+03   -0.69703E-04   -0.13480E-03  5520   0.347E-02    0.302E-02
RMM:   7    -0.413177297054E+03    0.13003E-05   -0.24696E-04  5456   0.152E-02    0.193E-02
RMM:   8    -0.413177292723E+03    0.43311E-05   -0.34797E-05  4806   0.719E-03    0.659E-03
RMM:   9    -0.413177290129E+03    0.25939E-05   -0.54005E-06  2898   0.283E-03    0.369E-03
RMM:  10    -0.413177288349E+03    0.17805E-05   -0.12113E-06  2505   0.180E-03    0.223E-03
RMM:  11    -0.413177286359E+03    0.19892E-05   -0.67384E-07  2387   0.129E-03    0.112E-03
RMM:  12    -0.413177282743E+03    0.36166E-05   -0.69030E-07  2407   0.120E-03    0.579E-04
RMM:  13    -0.413177280194E+03    0.25492E-05   -0.29517E-07  1824   0.881E-04    0.386E-04
RMM:  14    -0.413177278030E+03    0.21632E-05   -0.15199E-07  1313   0.699E-04    0.216E-04
RMM:  15    -0.413177272890E+03    0.51401E-05   -0.17413E-07  1441   0.723E-04    0.269E-04
RMM:  16    -0.413177267123E+03    0.57673E-05   -0.14107E-07  1152   0.653E-04    0.185E-04
RMM:  17    -0.413177265265E+03    0.18578E-05   -0.59063E-08   940   0.581E-04    0.127E-04
RMM:  18    -0.413177262237E+03    0.30282E-05   -0.52800E-08  1002   0.590E-04    0.452E-05
RMM:  19    -0.413177261304E+03    0.93330E-06   -0.25194E-08   815   0.551E-04
   25 T=    63. E= -.41286694E+03 F= -.41317726E+03 E0= -.41315546E+03  EK= 0.31032E+00 SP= 0.00E+00 SK= 0.00E+00
       N       E                     dE             d eps       ncg     rms          rms(c)
RMM:   1    -0.413188632114E+03   -0.11370E-01   -0.65229E+00  4286   0.595E-01    0.936E-01
RMM:   2    -0.413185527148E+03    0.31050E-02   -0.85845E-02  4282   0.806E-02    0.672E-01
RMM:   3    -0.413181734913E+03    0.37922E-02   -0.46035E-02  4993   0.797E-02    0.271E-01
RMM:   4    -0.413204567617E+03   -0.22833E-01   -0.32381E-02  5099   0.153E-01    0.671E-01
RMM:   5    -0.413178482995E+03    0.26085E-01   -0.12242E-02  4738   0.113E-01    0.470E-02
RMM:   6    -0.413178647017E+03   -0.16402E-03   -0.21754E-03  5733   0.452E-02    0.336E-02
RMM:   7    -0.413178647203E+03   -0.18630E-06   -0.36207E-04  5556   0.187E-02    0.228E-02
RMM:   8    -0.413178640144E+03    0.70591E-05   -0.53849E-05  5027   0.882E-03    0.979E-03
RMM:   9    -0.413178635557E+03    0.45870E-05   -0.11081E-05  3580   0.393E-03    0.603E-03
RMM:  10    -0.413178632213E+03    0.33438E-05   -0.19200E-06  2563   0.227E-03    0.356E-03
RMM:  11    -0.413178629297E+03    0.29164E-05   -0.10256E-06  2500   0.160E-03    0.192E-03
RMM:  12    -0.413178623889E+03    0.54084E-05   -0.13854E-06  2531   0.173E-03    0.979E-04
RMM:  13    -0.413178620251E+03    0.36374E-05   -0.52436E-07  2293   0.117E-03    0.707E-04
RMM:  14    -0.413178619848E+03    0.40340E-06   -0.21441E-07  1700   0.796E-04
   26 T=    63. E= -.41286697E+03 F= -.41317862E+03 E0= -.41315687E+03  EK= 0.31165E+00 SP= 0.00E+00 SK= 0.00E+00
       N       E                     dE             d eps       ncg     rms          rms(c)
RMM:   1    -0.413189965466E+03   -0.11345E-01   -0.65468E+00  4293   0.608E-01    0.918E-01
RMM:   2    -0.413187546857E+03    0.24186E-02   -0.85799E-02  4274   0.844E-02    0.670E-01
RMM:   3    -0.413183179137E+03    0.43677E-02   -0.48268E-02  4967   0.758E-02    0.276E-01
RMM:   4    -0.413205452390E+03   -0.22273E-01   -0.29927E-02  5109   0.147E-01    0.661E-01
RMM:   5    -0.413180238379E+03    0.25214E-01   -0.12217E-02  4751   0.112E-01    0.455E-02
RMM:   6    -0.413180393813E+03   -0.15543E-03   -0.21467E-03  5786   0.443E-02    0.316E-02
RMM:   7    -0.413180396029E+03   -0.22158E-05   -0.33755E-04  5568   0.183E-02    0.217E-02
RMM:   8    -0.413180389670E+03    0.63592E-05   -0.54271E-05  4898   0.898E-03    0.976E-03
RMM:   9    -0.413180387029E+03    0.26411E-05   -0.11838E-05  3605   0.410E-03    0.628E-03
RMM:  10    -0.413180385737E+03    0.12920E-05   -0.20041E-06  2572   0.232E-03    0.371E-03
RMM:  11    -0.413180384048E+03    0.16887E-05   -0.11600E-06  2504   0.172E-03    0.189E-03
RMM:  12    -0.413180380953E+03    0.30946E-05   -0.13254E-06  2518   0.173E-03    0.104E-03
RMM:  13    -0.413180378980E+03    0.19733E-05   -0.43211E-07  2250   0.114E-03    0.634E-04
RMM:  14    -0.413180378326E+03    0.65377E-06   -0.19748E-07  1647   0.779E-04
   27 T=    64. E= -.41286721E+03 F= -.41318038E+03 E0= -.41315868E+03  EK= 0.31316E+00 SP= 0.00E+00 SK= 0.00E+00
       N       E                     dE             d eps       ncg     rms          rms(c)
RMM:   1    -0.413191314464E+03   -0.10935E-01   -0.66325E+00  4293   0.610E-01    0.929E-01
RMM:   2    -0.413188836291E+03    0.24782E-02   -0.87260E-02  4278   0.866E-02    0.679E-01
RMM:   3    -0.413184351973E+03    0.44843E-02   -0.49695E-02  4987   0.745E-02    0.283E-01
RMM:   4    -0.413206724660E+03   -0.22373E-01   -0.30100E-02  5114   0.148E-01    0.663E-01
RMM:   5    -0.413181421954E+03    0.25303E-01   -0.12373E-02  4752   0.112E-01    0.455E-02
RMM:   6    -0.413181587697E+03   -0.16574E-03   -0.21467E-03  5795   0.443E-02    0.317E-02
RMM:   7    -0.413181598438E+03   -0.10741E-04   -0.34027E-04  5557   0.182E-02    0.217E-02
RMM:   8    -0.413181594281E+03    0.41572E-05   -0.53319E-05  4948   0.860E-03    0.968E-03
RMM:   9    -0.413181591709E+03    0.25718E-05   -0.10703E-05  3576   0.392E-03    0.619E-03
RMM:  10    -0.413181591040E+03    0.66934E-06   -0.18573E-06  2550   0.224E-03
   28 T=    64. E= -.41286699E+03 F= -.41318159E+03 E0= -.41315994E+03  EK= 0.31460E+00 SP= 0.00E+00 SK= 0.00E+00
       N       E                     dE             d eps       ncg     rms          rms(c)
RMM:   1    -0.413193911648E+03   -0.12320E-01   -0.66030E+00  4296   0.612E-01    0.944E-01
RMM:   2    -0.413190897859E+03    0.30138E-02   -0.87293E-02  4317   0.873E-02    0.678E-01
RMM:   3    -0.413191573090E+03   -0.67523E-03   -0.49700E-02  5105   0.102E-01    0.395E-01
RMM:   4    -0.413201361738E+03   -0.97886E-02   -0.32050E-02  5042   0.155E-01    0.563E-01
RMM:   5    -0.413183613765E+03    0.17748E-01   -0.78296E-03  4637   0.944E-02    0.471E-02
RMM:   6    -0.413183673332E+03   -0.59567E-04   -0.14355E-03  5596   0.364E-02    0.318E-02
RMM:   7    -0.413183674974E+03   -0.16415E-05   -0.26547E-04  5418   0.165E-02    0.203E-02
RMM:   8    -0.413183670706E+03    0.42674E-05   -0.39009E-05  4849   0.802E-03    0.724E-03
RMM:   9    -0.413183666324E+03    0.43822E-05   -0.71341E-06  3034   0.321E-03    0.395E-03
RMM:  10    -0.413183661728E+03    0.45967E-05   -0.14607E-06  2531   0.197E-03    0.240E-03
RMM:  11    -0.413183657420E+03    0.43077E-05   -0.80901E-07  2451   0.140E-03    0.124E-03
RMM:  12    -0.413183650264E+03    0.71562E-05   -0.81991E-07  2466   0.131E-03    0.617E-04
RMM:  13    -0.413183646274E+03    0.39898E-05   -0.36471E-07  1950   0.945E-04    0.429E-04
RMM:  14    -0.413183643192E+03    0.30817E-05   -0.18828E-07  1453   0.736E-04    0.253E-04
RMM:  15    -0.413183636137E+03    0.70555E-05   -0.18612E-07  1522   0.740E-04    0.280E-04
RMM:  16    -0.413183628584E+03    0.75524E-05   -0.14563E-07  1198   0.660E-04    0.205E-04
RMM:  17    -0.413183625627E+03    0.29575E-05   -0.72028E-08  1003   0.591E-04    0.139E-04
RMM:  18    -0.413183622058E+03    0.35686E-05   -0.60130E-08  1080   0.597E-04    0.492E-05
RMM:  19    -0.413183621097E+03    0.96122E-06   -0.30250E-08   851   0.548E-04
   29 T=    64. E= -.41286720E+03 F= -.41318362E+03 E0= -.41316202E+03  EK= 0.31642E+00 SP= 0.00E+00 SK= 0.00E+00
       N       E                     dE             d eps       ncg     rms          rms(c)
RMM:   1    -0.413195296620E+03   -0.11675E-01   -0.66008E+00  4294   0.621E-01    0.927E-01
RMM:   2    -0.413192984971E+03    0.23116E-02   -0.87072E-02  4274   0.907E-02    0.674E-01
RMM:   3    -0.413188610846E+03    0.43741E-02   -0.48185E-02  4978   0.792E-02    0.280E-01
RMM:   4    -0.413211671599E+03   -0.23061E-01   -0.31923E-02  5105   0.152E-01    0.674E-01
RMM:   5    -0.413185420345E+03    0.26251E-01   -0.12664E-02  4743   0.114E-01    0.462E-02
RMM:   6    -0.413185577370E+03   -0.15702E-03   -0.22395E-03  5800   0.450E-02    0.325E-02
RMM:   7    -0.413185585479E+03   -0.81090E-05   -0.35047E-04  5561   0.185E-02    0.223E-02
RMM:   8    -0.413185581812E+03    0.36672E-05   -0.56337E-05  4952   0.895E-03    0.101E-02
RMM:   9    -0.413185578646E+03    0.31654E-05   -0.11398E-05  3608   0.409E-03    0.628E-03
RMM:  10    -0.413185576955E+03    0.16915E-05   -0.20496E-06  2574   0.234E-03    0.370E-03
RMM:  11    -0.413185575111E+03    0.18434E-05   -0.11133E-06  2499   0.170E-03    0.192E-03
RMM:  12    -0.413185571884E+03    0.32277E-05   -0.13760E-06  2521   0.175E-03    0.103E-03
RMM:  13    -0.413185569857E+03    0.20263E-05   -0.45419E-07  2278   0.116E-03    0.668E-04
RMM:  14    -0.413185569207E+03    0.65077E-06   -0.20440E-07  1677   0.790E-04
   30 T=    65. E= -.41286726E+03 F= -.41318557E+03 E0= -.41316402E+03  EK= 0.31831E+00 SP= 0.00E+00 SK= 0.00E+00
       N       E                     dE             d eps       ncg     rms          rms(c)
RMM:   1    -0.413198148435E+03   -0.12579E-01   -0.67311E+00  4301   0.640E-01    0.930E-01
RMM:   2    -0.413195079605E+03    0.30688E-02   -0.93236E-02  4269   0.966E-02    0.685E-01
RMM:   3    -0.413189852200E+03    0.52274E-02   -0.49796E-02  4925   0.807E-02    0.275E-01
RMM:   4    -0.413213601747E+03   -0.23750E-01   -0.30695E-02  5112   0.149E-01    0.678E-01
RMM:   5    -0.413186998956E+03    0.26603E-01   -0.13016E-02  4765   0.114E-01    0.455E-02
RMM:   6    -0.413187162434E+03   -0.16348E-03   -0.22446E-03  5827   0.449E-02    0.315E-02
RMM:   7    -0.413187179578E+03   -0.17144E-04   -0.33292E-04  5577   0.182E-02    0.213E-02
RMM:   8    -0.413187178697E+03    0.88149E-06   -0.58287E-05  4934   0.886E-03    0.100E-02
RMM:   9    -0.413187176590E+03    0.21066E-05   -0.11731E-05  3713   0.415E-03    0.642E-03
RMM:  10    -0.413187176187E+03    0.40309E-06   -0.20525E-06  2570   0.234E-03
   31 T=    65. E= -.41286704E+03 F= -.41318718E+03 E0= -.41316568E+03  EK= 0.32014E+00 SP= 0.00E+00 SK= 0.00E+00
       N       E                     dE             d eps       ncg     rms          rms(c)
RMM:   1    -0.413201129910E+03   -0.13953E-01   -0.67088E+00  4297   0.658E-01    0.950E-01
RMM:   2    -0.413197267139E+03    0.38628E-02   -0.92512E-02  4303   0.102E-01    0.686E-01
RMM:   3    -0.413196709215E+03    0.55792E-03   -0.49663E-02  5056   0.106E-01    0.374E-01
RMM:   4    -0.413210437563E+03   -0.13728E-01   -0.33977E-02  5052   0.160E-01    0.606E-01
RMM:   5    -0.413189578244E+03    0.20859E-01   -0.92078E-03  4664   0.101E-01    0.479E-02
RMM:   6    -0.413189673849E+03   -0.95605E-04   -0.17160E-03  5667   0.391E-02    0.325E-02
RMM:   7    -0.413189684118E+03   -0.10269E-04   -0.29686E-04  5476   0.170E-02    0.213E-02
RMM:   8    -0.413189681798E+03    0.23198E-05   -0.43612E-05  4957   0.808E-03    0.795E-03
RMM:   9    -0.413189677352E+03    0.44460E-05   -0.82231E-06  3154   0.341E-03    0.431E-03
RMM:  10    -0.413189672848E+03    0.45046E-05   -0.15575E-06  2536   0.205E-03    0.265E-03
RMM:  11    -0.413189668561E+03    0.42870E-05   -0.83157E-07  2469   0.145E-03    0.138E-03
RMM:  12    -0.413189661328E+03    0.72326E-05   -0.83566E-07  2472   0.137E-03    0.661E-04
RMM:  13    -0.413189657448E+03    0.38803E-05   -0.36585E-07  2038   0.982E-04    0.476E-04
RMM:  14    -0.413189654542E+03    0.29064E-05   -0.18422E-07  1517   0.752E-04    0.286E-04
RMM:  15    -0.413189647310E+03    0.72311E-05   -0.17250E-07  1532   0.744E-04    0.284E-04
RMM:  16    -0.413189639745E+03    0.75653E-05   -0.12634E-07  1240   0.659E-04    0.239E-04
RMM:  17    -0.413189636032E+03    0.37128E-05   -0.69784E-08   992   0.589E-04    0.159E-04
RMM:  18    -0.413189632025E+03    0.40070E-05   -0.62728E-08  1145   0.605E-04    0.481E-05
RMM:  19    -0.413189630891E+03    0.11344E-05   -0.30882E-08   871   0.548E-04    0.404E-05
RMM:  20    -0.413189630436E+03    0.45484E-06   -0.17998E-08   763   0.526E-04
   32 T=    66. E= -.41286730E+03 F= -.41318963E+03 E0= -.41316818E+03  EK= 0.32233E+00 SP= 0.00E+00 SK= 0.00E+00
       N       E                     dE             d eps       ncg     rms          rms(c)
RMM:   1    -0.413201816510E+03   -0.12186E-01   -0.66896E+00  4302   0.661E-01    0.940E-01
RMM:   2    -0.413199030698E+03    0.27858E-02   -0.90265E-02  4269   0.101E-01    0.681E-01
RMM:   3    -0.413193534080E+03    0.54966E-02   -0.47790E-02  4801   0.847E-02    0.239E-01
RMM:   4    -0.413215753508E+03   -0.22219E-01   -0.26855E-02  5118   0.140E-01    0.649E-01
RMM:   5    -0.413191271861E+03    0.24482E-01   -0.12028E-02  4775   0.109E-01    0.446E-02
RMM:   6    -0.413191436113E+03   -0.16425E-03   -0.20840E-03  5824   0.429E-02    0.312E-02
RMM:   7    -0.413191459456E+03   -0.23343E-04   -0.26804E-04  5576   0.172E-02    0.190E-02
RMM:   8    -0.413191461375E+03   -0.19186E-05   -0.58839E-05  4948   0.848E-03    0.105E-02
RMM:   9    -0.413191456767E+03    0.46079E-05   -0.12194E-05  3860   0.421E-03    0.675E-03
RMM:  10    -0.413191454755E+03    0.20123E-05   -0.21854E-06  2590   0.247E-03    0.391E-03
RMM:  11    -0.413191452100E+03    0.26546E-05   -0.14161E-06  2525   0.188E-03    0.200E-03
RMM:  12    -0.413191447822E+03    0.42781E-05   -0.14322E-06  2520   0.185E-03    0.115E-03
RMM:  13    -0.413191445753E+03    0.20690E-05   -0.44975E-07  2286   0.118E-03    0.704E-04
RMM:  14    -0.413191444850E+03    0.90250E-06   -0.20637E-07  1731   0.798E-04
   33 T=    66. E= -.41286706E+03 F= -.41319144E+03 E0= -.41317004E+03  EK= 0.32438E+00 SP= 0.00E+00 SK= 0.00E+00
       N       E                     dE             d eps       ncg     rms          rms(c)
RMM:   1    -0.413204970374E+03   -0.13525E-01   -0.68228E+00  4306   0.677E-01    0.936E-01
RMM:   2    -0.413201574956E+03    0.33954E-02   -0.95739E-02  4262   0.106E-01    0.690E-01
RMM:   3    -0.413195409593E+03    0.61654E-02   -0.50130E-02  4592   0.849E-02    0.239E-01
RMM:   4    -0.413207407983E+03   -0.11998E-01   -0.15028E-02  5121   0.106E-01    0.490E-01
RMM:   5    -0.413193688386E+03    0.13720E-01   -0.67809E-03  4797   0.812E-02    0.394E-02
RMM:   6    -0.413193785934E+03   -0.97549E-04   -0.12131E-03  5819   0.325E-02    0.269E-02
RMM:   7    -0.413193807146E+03   -0.21211E-04   -0.15989E-04  5399   0.143E-02    0.150E-02
RMM:   8    -0.413193800230E+03    0.69160E-05   -0.30526E-05  4674   0.619E-03    0.778E-03
RMM:   9    -0.413193800909E+03   -0.67870E-06   -0.75353E-06  3331   0.337E-03
   34 T=    66. E= -.41286717E+03 F= -.41319380E+03 E0= -.41317245E+03  EK= 0.32663E+00 SP= 0.00E+00 SK= 0.00E+00
       N       E                     dE             d eps       ncg     rms          rms(c)
RMM:   1    -0.413207590924E+03   -0.13791E-01   -0.68166E+00  4304   0.687E-01    0.958E-01
RMM:   2    -0.413203685164E+03    0.39058E-02   -0.92348E-02  4284   0.115E-01    0.692E-01
RMM:   3    -0.413201421827E+03    0.22633E-02   -0.50077E-02  4960   0.109E-01    0.325E-01
RMM:   4    -0.413221528586E+03   -0.20107E-01   -0.34262E-02  5066   0.159E-01    0.661E-01
RMM:   5    -0.413196375204E+03    0.25153E-01   -0.11580E-02  4709   0.110E-01    0.477E-02
RMM:   6    -0.413196521458E+03   -0.14625E-03   -0.21445E-03  5750   0.432E-02    0.334E-02
RMM:   7    -0.413196532126E+03   -0.10669E-04   -0.34309E-04  5505   0.183E-02    0.229E-02
RMM:   8    -0.413196530710E+03    0.14164E-05   -0.57747E-05  5032   0.930E-03    0.997E-03
RMM:   9    -0.413196525680E+03    0.50295E-05   -0.10987E-05  3496   0.415E-03    0.535E-03
RMM:  10    -0.413196521311E+03    0.43695E-05   -0.21181E-06  2603   0.240E-03    0.318E-03
RMM:  11    -0.413196517185E+03    0.41255E-05   -0.10082E-06  2496   0.163E-03    0.169E-03
RMM:  12    -0.413196509418E+03    0.77676E-05   -0.11627E-06  2491   0.168E-03    0.886E-04
RMM:  13    -0.413196505246E+03    0.41719E-05   -0.45795E-07  2259   0.114E-03    0.651E-04
RMM:  14    -0.413196503462E+03    0.17842E-05   -0.21060E-07  1683   0.799E-04    0.404E-04
RMM:  15    -0.413196496591E+03    0.68711E-05   -0.19083E-07  1745   0.783E-04    0.345E-04
RMM:  16    -0.413196488824E+03    0.77666E-05   -0.14186E-07  1431   0.684E-04    0.402E-04
RMM:  17    -0.413196482911E+03    0.59128E-05   -0.88928E-08  1121   0.605E-04    0.317E-04
RMM:  18    -0.413196479499E+03    0.34119E-05   -0.62535E-08  1063   0.588E-04    0.767E-05
RMM:  19    -0.413196477633E+03    0.18659E-05   -0.43227E-08  1025   0.572E-04    0.847E-05
RMM:  20    -0.413196477467E+03    0.16599E-06   -0.17826E-08   707   0.516E-04
   35 T=    67. E= -.41286742E+03 F= -.41319648E+03 E0= -.41317517E+03  EK= 0.32906E+00 SP= 0.00E+00 SK= 0.00E+00
       N       E                     dE             d eps       ncg     rms          rms(c)
RMM:   1    -0.413209408408E+03   -0.12931E-01   -0.68029E+00  4304   0.708E-01    0.955E-01
RMM:   2    -0.413205758528E+03    0.36499E-02   -0.93104E-02  4255   0.119E-01    0.689E-01
RMM:   3    -0.413199624639E+03    0.61339E-02   -0.47876E-02  4380   0.898E-02    0.193E-01
RMM:   4    -0.413200583250E+03   -0.95861E-03   -0.32665E-03  5066   0.495E-02    0.192E-01
RMM:   5    -0.413198568364E+03    0.20149E-02   -0.10394E-03  4769   0.323E-02    0.375E-02
RMM:   6    -0.413198621584E+03   -0.53220E-04   -0.47992E-04  5453   0.214E-02    0.320E-02
RMM:   7    -0.413198608511E+03    0.13073E-04   -0.18194E-04  4950   0.153E-02    0.198E-02
RMM:   8    -0.413198599826E+03    0.86856E-05   -0.31371E-05  4490   0.572E-03    0.569E-03
RMM:   9    -0.413198598721E+03    0.11043E-05   -0.39955E-06  2597   0.236E-03    0.278E-03
RMM:  10    -0.413198595244E+03    0.34773E-05   -0.10016E-06  2469   0.167E-03    0.133E-03
RMM:  11    -0.413198591807E+03    0.34368E-05   -0.44365E-07  2152   0.107E-03    0.631E-04
RMM:  12    -0.413198588381E+03    0.34262E-05   -0.24898E-07  1665   0.818E-04    0.287E-04
RMM:  13    -0.413198584714E+03    0.36674E-05   -0.13834E-07  1253   0.694E-04    0.185E-04
RMM:  14    -0.413198580321E+03    0.43925E-05   -0.94529E-08  1073   0.644E-04    0.143E-04
RMM:  15    -0.413198572865E+03    0.74564E-05   -0.10446E-07  1198   0.656E-04    0.105E-04
RMM:  16    -0.413198568854E+03    0.40111E-05   -0.59121E-08  1055   0.598E-04    0.101E-04
RMM:  17    -0.413198566164E+03    0.26902E-05   -0.34270E-08   898   0.560E-04    0.412E-05
RMM:  18    -0.413198564629E+03    0.15349E-05   -0.20236E-08   751   0.538E-04    0.261E-05
RMM:  19    -0.413198564046E+03    0.58271E-06   -0.12197E-08   679   0.528E-04
   36 T=    67. E= -.41286713E+03 F= -.41319856E+03 E0= -.41317730E+03  EK= 0.33144E+00 SP= 0.00E+00 SK= 0.00E+00
       N       E                     dE             d eps       ncg     rms          rms(c)
RMM:   1    -0.413212303113E+03   -0.13738E-01   -0.69080E+00  4310   0.726E-01    0.946E-01
RMM:   2    -0.413209245336E+03    0.30578E-02   -0.95969E-02  4255   0.122E-01    0.694E-01
RMM:   3    -0.413202973964E+03    0.62714E-02   -0.51358E-02  4317   0.951E-02    0.226E-01
RMM:   4    -0.413201754071E+03    0.12199E-02   -0.22524E-03  4581   0.296E-02    0.476E-02
RMM:   5    -0.413201788141E+03   -0.34070E-04   -0.20758E-04  4914   0.125E-02    0.492E-02
RMM:   6    -0.413201765275E+03    0.22866E-04   -0.34366E-04  5127   0.172E-02    0.315E-02
RMM:   7    -0.413201766963E+03   -0.16877E-05   -0.15982E-04  4767   0.144E-02    0.219E-02
RMM:   8    -0.413201757184E+03    0.97797E-05   -0.32733E-05  4133   0.520E-03    0.537E-03
RMM:   9    -0.413201758108E+03   -0.92481E-06   -0.74515E-06  2431   0.225E-03
   37 T=    68. E= -.41286747E+03 F= -.41320176E+03 E0= -.41318054E+03  EK= 0.33428E+00 SP= 0.00E+00 SK= 0.00E+00
       N       E                     dE             d eps       ncg     rms          rms(c)
RMM:   1    -0.413215996814E+03   -0.14240E-01   -0.69651E+00  4311   0.749E-01    0.963E-01
RMM:   2    -0.413212250067E+03    0.37467E-02   -0.96538E-02  4261   0.116E-01    0.700E-01
RMM:   3    -0.413205689897E+03    0.65602E-02   -0.50264E-02  4513   0.872E-02    0.214E-01
RMM:   4    -0.413209885223E+03   -0.41953E-02   -0.70776E-03  5142   0.718E-02    0.313E-01
RMM:   5    -0.413204444870E+03    0.54404E-02   -0.27202E-03  4805   0.524E-02    0.399E-02
RMM:   6    -0.413204458253E+03   -0.13383E-04   -0.66637E-04  5570   0.261E-02    0.314E-02
RMM:   7    -0.413204473176E+03   -0.14923E-04   -0.21603E-04  5153   0.157E-02    0.193E-02
RMM:   8    -0.413204465228E+03    0.79475E-05   -0.32036E-05  4827   0.648E-03    0.748E-03
RMM:   9    -0.413204463962E+03    0.12666E-05   -0.57696E-06  2773   0.262E-03    0.329E-03
RMM:  10    -0.413204460915E+03    0.30467E-05   -0.13799E-06  2494   0.181E-03    0.167E-03
RMM:  11    -0.413204456731E+03    0.41840E-05   -0.67989E-07  2398   0.126E-03    0.805E-04
RMM:  12    -0.413204452939E+03    0.37924E-05   -0.35476E-07  1960   0.941E-04    0.405E-04
RMM:  13    -0.413204448820E+03    0.41190E-05   -0.20249E-07  1429   0.760E-04    0.246E-04
RMM:  14    -0.413204443113E+03    0.57065E-05   -0.15323E-07  1215   0.704E-04    0.202E-04
RMM:  15    -0.413204433125E+03    0.99886E-05   -0.18723E-07  1539   0.738E-04    0.153E-04
RMM:  16    -0.413204429961E+03    0.31633E-05   -0.72270E-08  1067   0.592E-04    0.124E-04
RMM:  17    -0.413204425932E+03    0.40296E-05   -0.52997E-08  1020   0.579E-04    0.439E-05
RMM:  18    -0.413204424056E+03    0.18752E-05   -0.31096E-08   805   0.540E-04    0.275E-05
RMM:  19    -0.413204423333E+03    0.72390E-06   -0.19770E-08   690   0.525E-04
   38 T=    69. E= -.41286735E+03 F= -.41320442E+03 E0= -.41318324E+03  EK= 0.33707E+00 SP= 0.00E+00 SK= 0.00E+00
       N       E                     dE             d eps       ncg     rms          rms(c)
RMM:   1    -0.413219314474E+03   -0.14890E-01   -0.69569E+00  4309   0.789E-01    0.972E-01
RMM:   2    -0.413214933659E+03    0.43808E-02   -0.97312E-02  4256   0.113E-01    0.699E-01
RMM:   3    -0.413208417852E+03    0.65158E-02   -0.48157E-02  4617   0.823E-02    0.193E-01
RMM:   4    -0.413219331624E+03   -0.10914E-01   -0.13243E-02  5135   0.984E-02    0.463E-01
RMM:   5    -0.413207212581E+03    0.12119E-01   -0.60115E-03  4799   0.769E-02    0.418E-02
RMM:   6    -0.413207243786E+03   -0.31206E-04   -0.11758E-03  5711   0.332E-02    0.318E-02
RMM:   7    -0.413207263915E+03   -0.20129E-04   -0.28278E-04  5373   0.171E-02    0.210E-02
RMM:   8    -0.413207251377E+03    0.12538E-04   -0.39595E-05  4995   0.737E-03    0.916E-03
RMM:   9    -0.413207249621E+03    0.17558E-05   -0.75453E-06  3091   0.326E-03    0.477E-03
RMM:  10    -0.413207246516E+03    0.31051E-05   -0.15361E-06  2523   0.206E-03    0.254E-03
RMM:  11    -0.413207242479E+03    0.40378E-05   -0.10225E-06  2492   0.160E-03    0.126E-03
RMM:  12    -0.413207238121E+03    0.43579E-05   -0.60511E-07  2345   0.125E-03    0.732E-04
RMM:  13    -0.413207235485E+03    0.26356E-05   -0.26287E-07  1934   0.884E-04    0.385E-04
RMM:  14    -0.413207232601E+03    0.28840E-05   -0.14027E-07  1310   0.704E-04    0.211E-04
RMM:  15    -0.413207226824E+03    0.57772E-05   -0.10861E-07  1201   0.681E-04    0.148E-04
RMM:  16    -0.413207222572E+03    0.42520E-05   -0.73768E-08  1073   0.636E-04    0.119E-04
RMM:  17    -0.413207218337E+03    0.42351E-05   -0.58982E-08  1090   0.619E-04    0.903E-05
RMM:  18    -0.413207213846E+03    0.44904E-05   -0.52763E-08  1163   0.610E-04    0.448E-05
RMM:  19    -0.413207212910E+03    0.93619E-06   -0.24598E-08   815   0.535E-04
   39 T=    69. E= -.41286726E+03 F= -.41320721E+03 E0= -.41318607E+03  EK= 0.33995E+00 SP= 0.00E+00 SK= 0.00E+00
       N       E                     dE             d eps       ncg     rms          rms(c)
RMM:   1    -0.413222717846E+03   -0.15504E-01   -0.70303E+00  4307   0.818E-01    0.958E-01
RMM:   2    -0.413218487729E+03    0.42301E-02   -0.99357E-02  4256   0.115E-01    0.701E-01
RMM:   3    -0.413212291907E+03    0.61958E-02   -0.51160E-02  4722   0.890E-02    0.236E-01
RMM:   4    -0.413231799917E+03   -0.19508E-01   -0.23417E-02  5113   0.131E-01    0.611E-01
RMM:   5    -0.413210404365E+03    0.21396E-01   -0.10474E-02  4791   0.102E-01    0.444E-02
RMM:   6    -0.413210444263E+03   -0.39898E-04   -0.18182E-03  5780   0.405E-02    0.305E-02
RMM:   7    -0.413210475505E+03   -0.31242E-04   -0.30892E-04  5558   0.171E-02    0.206E-02
RMM:   8    -0.413210465793E+03    0.97115E-05   -0.55209E-05  5062   0.814E-03    0.100E-02
RMM:   9    -0.413210466341E+03   -0.54737E-06   -0.11409E-05  3690   0.410E-03    0.564E-03
RMM:  10    -0.413210465502E+03    0.83897E-06   -0.19852E-06  2576   0.226E-03
   40 T=    70. E= -.41286753E+03 F= -.41321047E+03 E0= -.41318936E+03  EK= 0.34293E+00 SP= 0.00E+00 SK= 0.00E+00
       N       E                     dE             d eps       ncg     rms          rms(c)
RMM:   1    -0.413225480168E+03   -0.15014E-01   -0.71292E+00  4314   0.845E-01    0.969E-01
RMM:   2    -0.413221056750E+03    0.44234E-02   -0.10449E-01  4281   0.117E-01    0.711E-01
RMM:   3    -0.413217827363E+03    0.32294E-02   -0.53019E-02  5002   0.104E-01    0.329E-01
RMM:   4    -0.413242436652E+03   -0.24609E-01   -0.39923E-02  5075   0.171E-01    0.719E-01
RMM:   5    -0.413212701256E+03    0.29735E-01   -0.13581E-02  4734   0.120E-01    0.498E-02
RMM:   6    -0.413212769253E+03   -0.67997E-04   -0.24114E-03  5767   0.460E-02    0.314E-02
RMM:   7    -0.413212788245E+03   -0.18991E-04   -0.30983E-04  5609   0.172E-02    0.206E-02
RMM:   8    -0.413212792395E+03   -0.41504E-05   -0.78298E-05  5096   0.930E-03    0.115E-02
RMM:   9    -0.413212785833E+03    0.65620E-05   -0.15043E-05  4102   0.482E-03    0.566E-03
RMM:  10    -0.413212783183E+03    0.26496E-05   -0.27728E-06  2675   0.252E-03    0.325E-03
RMM:  11    -0.413212780754E+03    0.24294E-05   -0.11523E-06  2506   0.172E-03    0.185E-03
RMM:  12    -0.413212774791E+03    0.59630E-05   -0.12803E-06  2508   0.170E-03    0.983E-04
RMM:  13    -0.413212770403E+03    0.43885E-05   -0.50335E-07  2292   0.117E-03    0.616E-04
RMM:  14    -0.413212768887E+03    0.15153E-05   -0.22143E-07  1714   0.806E-04    0.352E-04
RMM:  15    -0.413212762575E+03    0.63121E-05   -0.18373E-07  1566   0.768E-04    0.299E-04
RMM:  16    -0.413212756777E+03    0.57983E-05   -0.12684E-07  1369   0.683E-04    0.336E-04
RMM:  17    -0.413212753426E+03    0.33504E-05   -0.68966E-08  1034   0.592E-04    0.229E-04
RMM:  18    -0.413212748242E+03    0.51846E-05   -0.72929E-08  1285   0.627E-04    0.113E-04
RMM:  19    -0.413212746650E+03    0.15915E-05   -0.37748E-08   930   0.548E-04    0.454E-05
RMM:  20    -0.413212745502E+03    0.11483E-05   -0.25187E-08   864   0.539E-04    0.664E-05
RMM:  21    -0.413212745155E+03    0.34735E-06   -0.15069E-08   719   0.512E-04
   41 T=    70. E= -.41286727E+03 F= -.41321275E+03 E0= -.41319168E+03  EK= 0.34548E+00 SP= 0.00E+00 SK= 0.00E+00
       N       E                     dE             d eps       ncg     rms          rms(c)
RMM:   1    -0.413230427235E+03   -0.17682E-01   -0.71201E+00  4315   0.918E-01    0.985E-01
RMM:   2    -0.413223551471E+03    0.68758E-02   -0.10591E-01  4295   0.124E-01    0.709E-01
RMM:   3    -0.413218216640E+03    0.53348E-02   -0.48147E-02  4946   0.901E-02    0.242E-01
RMM:   4    -0.413248582680E+03   -0.30366E-01   -0.38703E-02  5105   0.167E-01    0.754E-01
RMM:   5    -0.413215429218E+03    0.33153E-01   -0.15571E-02  4774   0.126E-01    0.505E-02
RMM:   6    -0.413215513421E+03   -0.84203E-04   -0.26686E-03  5789   0.484E-02    0.319E-02
RMM:   7    -0.413215544112E+03   -0.30692E-04   -0.31029E-04  5669   0.168E-02    0.185E-02
RMM:   8    -0.413215545264E+03   -0.11518E-05   -0.40791E-05  4723   0.669E-03    0.843E-03
RMM:   9    -0.413215545508E+03   -0.24359E-06   -0.15021E-05  4089   0.413E-03    0.614E-03
RMM:  10    -0.413215541159E+03    0.43492E-05   -0.32085E-06  2752   0.256E-03    0.350E-03
RMM:  11    -0.413215538260E+03    0.28987E-05   -0.12765E-06  2489   0.183E-03    0.206E-03
RMM:  12    -0.413215531464E+03    0.67964E-05   -0.13288E-06  2495   0.182E-03    0.109E-03
RMM:  13    -0.413215528442E+03    0.30215E-05   -0.43175E-07  2344   0.119E-03    0.693E-04
RMM:  14    -0.413215527500E+03    0.94183E-06   -0.18578E-07  1685   0.790E-04
   42 T=    71. E= -.41286740E+03 F= -.41321553E+03 E0= -.41319449E+03  EK= 0.34813E+00 SP= 0.00E+00 SK= 0.00E+00
       N       E                     dE             d eps       ncg     rms          rms(c)
RMM:   1    -0.413232619451E+03   -0.17091E-01   -0.71373E+00  4316   0.955E-01    0.969E-01
RMM:   2    -0.413226156767E+03    0.64627E-02   -0.10472E-01  4364   0.121E-01    0.707E-01
RMM:   3    -0.413221117994E+03    0.50388E-02   -0.50658E-02  4950   0.942E-02    0.272E-01
RMM:   4    -0.413250312876E+03   -0.29195E-01   -0.39029E-02  5104   0.168E-01    0.748E-01
RMM:   5    -0.413217797454E+03    0.32515E-01   -0.15270E-02  4771   0.125E-01    0.506E-02
RMM:   6    -0.413217876367E+03   -0.78913E-04   -0.25997E-03  5772   0.479E-02    0.310E-02
RMM:   7    -0.413217901425E+03   -0.25058E-04   -0.29779E-04  5683   0.165E-02    0.178E-02
RMM:   8    -0.413217903082E+03   -0.16568E-05   -0.44413E-05  4834   0.681E-03    0.850E-03
RMM:   9    -0.413217899825E+03    0.32569E-05   -0.14875E-05  4130   0.418E-03    0.588E-03
RMM:  10    -0.413217897705E+03    0.21203E-05   -0.36876E-06  2827   0.268E-03    0.338E-03
RMM:  11    -0.413217895056E+03    0.26486E-05   -0.12865E-06  2493   0.185E-03    0.199E-03
RMM:  12    -0.413217888730E+03    0.63268E-05   -0.11809E-06  2488   0.170E-03    0.953E-04
RMM:  13    -0.413217884814E+03    0.39154E-05   -0.44903E-07  2306   0.115E-03    0.637E-04
RMM:  14    -0.413217883545E+03    0.12694E-05   -0.19764E-07  1682   0.795E-04    0.361E-04
RMM:  15    -0.413217878731E+03    0.48134E-05   -0.12697E-07  1372   0.709E-04    0.182E-04
RMM:  16    -0.413217873492E+03    0.52395E-05   -0.98102E-08  1371   0.677E-04    0.240E-04
RMM:  17    -0.413217870725E+03    0.27670E-05   -0.52552E-08  1041   0.593E-04    0.188E-04
RMM:  18    -0.413217864913E+03    0.58120E-05   -0.66252E-08  1340   0.636E-04    0.149E-04
RMM:  19    -0.413217862553E+03    0.23601E-05   -0.31812E-08   981   0.558E-04    0.540E-05
RMM:  20    -0.413217861826E+03    0.72732E-06   -0.17265E-08   803   0.524E-04
   43 T=    71. E= -.41286738E+03 F= -.41321786E+03 E0= -.41319685E+03  EK= 0.35049E+00 SP= 0.00E+00 SK= 0.00E+00
       N       E                     dE             d eps       ncg     rms          rms(c)
RMM:   1    -0.413236270112E+03   -0.18408E-01   -0.72703E+00  4316   0.102E+00    0.971E-01
RMM:   2    -0.413227871919E+03    0.83982E-02   -0.11347E-01  4388   0.132E-01    0.717E-01
RMM:   3    -0.413223475215E+03    0.43967E-02   -0.51017E-02  4979   0.993E-02    0.301E-01
RMM:   4    -0.413254059294E+03   -0.30584E-01   -0.44273E-02  5092   0.180E-01    0.774E-01
RMM:   5    -0.413219124386E+03    0.34935E-01   -0.15967E-02  4756   0.129E-01    0.518E-02
RMM:   6    -0.413219197759E+03   -0.73373E-04   -0.27218E-03  5777   0.489E-02    0.305E-02
RMM:   7    -0.413219225158E+03   -0.27399E-04   -0.30668E-04  5726   0.166E-02    0.183E-02
RMM:   8    -0.413219234099E+03   -0.89412E-05   -0.69993E-05  5119   0.845E-03    0.109E-02
RMM:   9    -0.413219228429E+03    0.56706E-05   -0.19429E-05  4438   0.502E-03    0.575E-03
RMM:  10    -0.413219227886E+03    0.54273E-06   -0.31754E-06  2685   0.270E-03
   44 T=    72. E= -.41286717E+03 F= -.41321923E+03 E0= -.41319824E+03  EK= 0.35206E+00 SP= 0.00E+00 SK= 0.00E+00
       N       E                     dE             d eps       ncg     rms          rms(c)
RMM:   1    -0.413238389907E+03   -0.19161E-01   -0.72136E+00  4316   0.108E+00    0.991E-01
RMM:   2    -0.413229138205E+03    0.92517E-02   -0.11072E-01  4452   0.137E-01    0.717E-01
RMM:   3    -0.413231770382E+03   -0.26322E-02   -0.54160E-02  5086   0.127E-01    0.449E-01
RMM:   4    -0.413240929691E+03   -0.91593E-02   -0.39688E-02  5030   0.175E-01    0.597E-01
RMM:   5    -0.413220646462E+03    0.20283E-01   -0.79066E-03  4613   0.100E-01    0.493E-02
RMM:   6    -0.413220645884E+03    0.57746E-06   -0.15354E-03  5591   0.375E-02    0.293E-02
RMM:   7    -0.413220654637E+03   -0.87525E-05   -0.23940E-04  5502   0.157E-02    0.201E-02
RMM:   8    -0.413220654697E+03   -0.60627E-07   -0.79640E-05  5049   0.964E-03    0.100E-02
RMM:   9    -0.413220646052E+03    0.86449E-05   -0.98634E-06  3649   0.436E-03    0.428E-03
RMM:  10    -0.413220640877E+03    0.51756E-05   -0.20358E-06  2618   0.218E-03    0.239E-03
RMM:  11    -0.413220635611E+03    0.52654E-05   -0.97981E-07  2469   0.156E-03    0.125E-03
RMM:  12    -0.413220626995E+03    0.86161E-05   -0.72636E-07  2396   0.130E-03    0.641E-04
RMM:  13    -0.413220622348E+03    0.46473E-05   -0.28794E-07  1888   0.900E-04    0.362E-04
RMM:  14    -0.413220618061E+03    0.42867E-05   -0.15477E-07  1292   0.710E-04    0.176E-04
RMM:  15    -0.413220607023E+03    0.11038E-04   -0.17361E-07  1582   0.764E-04    0.233E-04
RMM:  16    -0.413220602375E+03    0.46485E-05   -0.92381E-08  1268   0.637E-04    0.125E-04
RMM:  17    -0.413220596595E+03    0.57794E-05   -0.75370E-08  1291   0.627E-04    0.600E-05
RMM:  18    -0.413220593140E+03    0.34556E-05   -0.47834E-08  1109   0.571E-04    0.583E-05
RMM:  19    -0.413220592661E+03    0.47907E-06   -0.23705E-08   807   0.512E-04
   45 T=    72. E= -.41286754E+03 F= -.41322059E+03 E0= -.41319963E+03  EK= 0.35305E+00 SP= 0.00E+00 SK= 0.00E+00
       N       E                     dE             d eps       ncg     rms          rms(c)
RMM:   1    -0.413238386070E+03   -0.17793E-01   -0.71606E+00  4316   0.115E+00    0.974E-01
RMM:   2    -0.413228717191E+03    0.96689E-02   -0.11170E-01  4432   0.144E-01    0.710E-01
RMM:   3    -0.413227251956E+03    0.14652E-02   -0.50562E-02  5033   0.116E-01    0.362E-01
RMM:   4    -0.413248184179E+03   -0.20932E-01   -0.42332E-02  5063   0.179E-01    0.696E-01
RMM:   5    -0.413220194315E+03    0.27990E-01   -0.11836E-02  4705   0.116E-01    0.516E-02
RMM:   6    -0.413220218155E+03   -0.23840E-04   -0.20963E-03  5699   0.436E-02    0.292E-02
RMM:   7    -0.413220246168E+03   -0.28013E-04   -0.26152E-04  5706   0.158E-02    0.183E-02
RMM:   8    -0.413220256235E+03   -0.10067E-04   -0.85197E-05  5138   0.946E-03    0.114E-02
RMM:   9    -0.413220247780E+03    0.84541E-05   -0.16086E-05  4233   0.507E-03    0.477E-03
RMM:  10    -0.413220244983E+03    0.27975E-05   -0.31969E-06  2730   0.258E-03    0.291E-03
RMM:  11    -0.413220242124E+03    0.28594E-05   -0.11799E-06  2490   0.177E-03    0.153E-03
RMM:  12    -0.413220236646E+03    0.54781E-05   -0.81827E-07  2451   0.145E-03    0.779E-04
RMM:  13    -0.413220232371E+03    0.42746E-05   -0.34984E-07  2027   0.993E-04    0.357E-04
RMM:  14    -0.413220229698E+03    0.26728E-05   -0.17788E-07  1450   0.750E-04    0.185E-04
RMM:  15    -0.413220223620E+03    0.60785E-05   -0.13651E-07  1289   0.715E-04    0.157E-04
RMM:  16    -0.413220219827E+03    0.37926E-05   -0.93910E-08  1257   0.666E-04    0.123E-04
RMM:  17    -0.413220215803E+03    0.40239E-05   -0.78502E-08  1302   0.643E-04    0.681E-05
RMM:  18    -0.413220212008E+03    0.37950E-05   -0.52347E-08  1122   0.591E-04    0.407E-05
RMM:  19    -0.413220210406E+03    0.16017E-05   -0.31483E-08   894   0.546E-04    0.313E-05
RMM:  20    -0.413220210114E+03    0.29270E-06   -0.19093E-08   746   0.524E-04
   46 T=    72. E= -.41286745E+03 F= -.41322021E+03 E0= -.41319926E+03  EK= 0.35276E+00 SP= 0.00E+00 SK= 0.00E+00
       N       E                     dE             d eps       ncg     rms          rms(c)
RMM:   1    -0.413239345432E+03   -0.19135E-01   -0.72364E+00  4316   0.128E+00    0.965E-01
RMM:   2    -0.413227878861E+03    0.11467E-01   -0.11514E-01  4468   0.158E-01    0.716E-01
RMM:   3    -0.413229512064E+03   -0.16332E-02   -0.55446E-02  5055   0.133E-01    0.443E-01
RMM:   4    -0.413242829896E+03   -0.13318E-01   -0.42587E-02  5040   0.182E-01    0.649E-01
RMM:   5    -0.413218915446E+03    0.23914E-01   -0.99154E-03  4652   0.110E-01    0.508E-02
RMM:   6    -0.413218909950E+03    0.54961E-05   -0.17299E-03  5600   0.400E-02    0.269E-02
RMM:   7    -0.413218936977E+03   -0.27027E-04   -0.23392E-04  5656   0.152E-02    0.179E-02
RMM:   8    -0.413218943829E+03   -0.68524E-05   -0.87148E-05  5107   0.976E-03    0.103E-02
RMM:   9    -0.413218937682E+03    0.61472E-05   -0.12131E-05  3915   0.479E-03    0.426E-03
RMM:  10    -0.413218936070E+03    0.16123E-05   -0.28634E-06  2703   0.240E-03    0.259E-03
RMM:  11    -0.413218933939E+03    0.21308E-05   -0.12468E-06  2495   0.173E-03    0.125E-03
RMM:  12    -0.413218930358E+03    0.35809E-05   -0.77243E-07  2386   0.135E-03    0.648E-04
RMM:  13    -0.413218927342E+03    0.30164E-05   -0.35233E-07  1841   0.945E-04    0.290E-04
RMM:  14    -0.413218924491E+03    0.28506E-05   -0.19983E-07  1420   0.763E-04    0.152E-04
RMM:  15    -0.413218919749E+03    0.47418E-05   -0.17599E-07  1450   0.746E-04    0.127E-04
RMM:  16    -0.413218916527E+03    0.32225E-05   -0.11535E-07  1286   0.661E-04    0.907E-05
RMM:  17    -0.413218911316E+03    0.52104E-05   -0.11189E-07  1462   0.672E-04    0.609E-05
RMM:  18    -0.413218909648E+03    0.16678E-05   -0.48972E-08   920   0.549E-04    0.355E-05
RMM:  19    -0.413218908562E+03    0.10865E-05   -0.32852E-08   858   0.536E-04    0.225E-05
RMM:  20    -0.413218907872E+03    0.68940E-06   -0.21516E-08   751   0.522E-04
   47 T=    72. E= -.41286755E+03 F= -.41321891E+03 E0= -.41319797E+03  EK= 0.35136E+00 SP= 0.00E+00 SK= 0.00E+00
       N       E                     dE             d eps       ncg     rms          rms(c)
RMM:   1    -0.413239409626E+03   -0.20501E-01   -0.71424E+00  4313   0.134E+00    0.977E-01
RMM:   2    -0.413224972644E+03    0.14437E-01   -0.11713E-01  4523   0.168E-01    0.714E-01
RMM:   3    -0.413231266362E+03   -0.62937E-02   -0.53492E-02  5083   0.144E-01    0.510E-01
RMM:   4    -0.413234764317E+03   -0.34980E-02   -0.41555E-02  5011   0.182E-01    0.566E-01
RMM:   5    -0.413216478521E+03    0.18286E-01   -0.68102E-03  4603   0.980E-02    0.508E-02
RMM:   6    -0.413216438517E+03    0.40005E-04   -0.12035E-03  5344   0.346E-02    0.266E-02
RMM:   7    -0.413216464693E+03   -0.26176E-04   -0.17956E-04  5594   0.137E-02    0.164E-02
RMM:   8    -0.413216470345E+03   -0.56528E-05   -0.85184E-05  5177   0.961E-03    0.104E-02
RMM:   9    -0.413216460299E+03    0.10046E-04   -0.11738E-05  3908   0.477E-03    0.401E-03
RMM:  10    -0.413216457319E+03    0.29803E-05   -0.27801E-06  2697   0.238E-03    0.235E-03
RMM:  11    -0.413216452980E+03    0.43385E-05   -0.12266E-06  2485   0.178E-03    0.118E-03
RMM:  12    -0.413216448517E+03    0.44637E-05   -0.57835E-07  2314   0.127E-03    0.660E-04
RMM:  13    -0.413216444389E+03    0.41279E-05   -0.27169E-07  1757   0.895E-04    0.302E-04
RMM:  14    -0.413216439796E+03    0.45931E-05   -0.16246E-07  1420   0.737E-04    0.158E-04
RMM:  15    -0.413216434921E+03    0.48749E-05   -0.11595E-07  1263   0.685E-04    0.115E-04
RMM:  16    -0.413216430903E+03    0.40173E-05   -0.83942E-08  1216   0.643E-04    0.820E-05
RMM:  17    -0.413216424224E+03    0.66795E-05   -0.87348E-08  1446   0.661E-04    0.692E-05
RMM:  18    -0.413216423028E+03    0.11956E-05   -0.31094E-08   806   0.522E-04    0.477E-05
RMM:  19    -0.413216421333E+03    0.16949E-05   -0.25936E-08   837   0.528E-04    0.199E-05
RMM:  20    -0.413216420705E+03    0.62797E-06   -0.15221E-08   678   0.499E-04
   48 T=    71. E= -.41286780E+03 F= -.41321642E+03 E0= -.41319549E+03  EK= 0.34862E+00 SP= 0.00E+00 SK= 0.00E+00
       N       E                     dE             d eps       ncg     rms          rms(c)
RMM:   1    -0.413235109579E+03   -0.18688E-01   -0.69934E+00  4310   0.143E+00    0.963E-01
RMM:   2    -0.413219878249E+03    0.15231E-01   -0.11662E-01  4584   0.176E-01    0.703E-01
RMM:   3    -0.413233526339E+03   -0.13648E-01   -0.56276E-02  5105   0.164E-01    0.618E-01
RMM:   4    -0.413224124514E+03    0.94018E-02   -0.41200E-02  4975   0.185E-01    0.472E-01
RMM:   5    -0.413211516697E+03    0.12608E-01   -0.47603E-03  4563   0.882E-02    0.507E-02
RMM:   6    -0.413211433623E+03    0.83074E-04   -0.66626E-04  4876   0.287E-02    0.263E-02
RMM:   7    -0.413211452584E+03   -0.18961E-04   -0.13969E-04  5660   0.128E-02    0.118E-02
RMM:   8    -0.413211451036E+03    0.15481E-05   -0.28308E-05  5027   0.651E-03    0.639E-03
RMM:   9    -0.413211449023E+03    0.20129E-05   -0.70234E-06  3314   0.316E-03    0.327E-03
RMM:  10    -0.413211445205E+03    0.38187E-05   -0.16012E-06  2525   0.207E-03    0.227E-03
RMM:  11    -0.413211440553E+03    0.46517E-05   -0.90006E-07  2458   0.162E-03    0.131E-03
RMM:  12    -0.413211437178E+03    0.33746E-05   -0.37626E-07  2285   0.107E-03    0.720E-04
RMM:  13    -0.413211432319E+03    0.48592E-05   -0.26241E-07  1853   0.880E-04    0.380E-04
RMM:  14    -0.413211426651E+03    0.56684E-05   -0.17143E-07  1536   0.738E-04    0.340E-04
RMM:  15    -0.413211422123E+03    0.45278E-05   -0.91636E-08  1067   0.612E-04    0.140E-04
RMM:  16    -0.413211417978E+03    0.41452E-05   -0.75302E-08  1173   0.617E-04    0.121E-04
RMM:  17    -0.413211413979E+03    0.39990E-05   -0.53596E-08  1064   0.588E-04    0.107E-04
RMM:  18    -0.413211411878E+03    0.21008E-05   -0.33247E-08   879   0.553E-04    0.685E-05
RMM:  19    -0.413211408125E+03    0.37525E-05   -0.37384E-08  1024   0.575E-04    0.335E-05
RMM:  20    -0.413211407356E+03    0.76912E-06   -0.14477E-08   659   0.500E-04
   49 T=    70. E= -.41286750E+03 F= -.41321141E+03 E0= -.41319049E+03  EK= 0.34391E+00 SP= 0.00E+00 SK= 0.00E+00
       N       E                     dE             d eps       ncg     rms          rms(c)
RMM:   1    -0.413233677730E+03   -0.22270E-01   -0.69716E+00  4309   0.160E+00    0.936E-01
RMM:   2    -0.413214028723E+03    0.19649E-01   -0.12278E-01  4675   0.188E-01    0.701E-01
RMM:   3    -0.413236791120E+03   -0.22762E-01   -0.62632E-02  5115   0.187E-01    0.732E-01
RMM:   4    -0.413215555432E+03    0.21236E-01   -0.45130E-02  4939   0.196E-01    0.428E-01
RMM:   5    -0.413205503812E+03    0.10052E-01   -0.48317E-03  4604   0.906E-02    0.538E-02
RMM:   6    -0.413205384533E+03    0.11928E-03   -0.50289E-04  4752   0.281E-02    0.265E-02
RMM:   7    -0.413205417801E+03   -0.33268E-04   -0.21357E-04  5672   0.163E-02    0.182E-02
RMM:   8    -0.413205404064E+03    0.13736E-04   -0.56933E-05  5032   0.869E-03    0.883E-03
RMM:   9    -0.413205402593E+03    0.14714E-05   -0.13066E-05  4266   0.482E-03    0.401E-03
RMM:  10    -0.413205399756E+03    0.28365E-05   -0.19765E-06  2621   0.228E-03    0.242E-03
RMM:  11    -0.413205395450E+03    0.43065E-05   -0.99591E-07  2492   0.165E-03    0.156E-03
RMM:  12    -0.413205392367E+03    0.30828E-05   -0.41605E-07  2164   0.105E-03    0.788E-04
RMM:  13    -0.413205388257E+03    0.41104E-05   -0.38131E-07  2203   0.970E-04    0.403E-04
RMM:  14    -0.413205384827E+03    0.34294E-05   -0.19839E-07  1442   0.744E-04    0.293E-04
RMM:  15    -0.413205379737E+03    0.50902E-05   -0.16670E-07  1282   0.707E-04    0.135E-04
RMM:  16    -0.413205376659E+03    0.30786E-05   -0.10282E-07  1231   0.641E-04    0.848E-05
RMM:  17    -0.413205371678E+03    0.49802E-05   -0.10904E-07  1414   0.659E-04    0.854E-05
RMM:  18    -0.413205369819E+03    0.18592E-05   -0.54559E-08  1036   0.548E-04    0.660E-05
RMM:  19    -0.413205368301E+03    0.15182E-05   -0.32971E-08   854   0.516E-04    0.297E-05
RMM:  20    -0.413205367124E+03    0.11767E-05   -0.27330E-08   850   0.511E-04    0.192E-05
RMM:  21    -0.413205366923E+03    0.20171E-06   -0.13442E-08   676   0.482E-04
   50 T=    69. E= -.41286784E+03 F= -.41320537E+03 E0= -.41318445E+03  EK= 0.33752E+00 SP= 0.00E+00 SK= 0.00E+00
       N       E                     dE             d eps       ncg     rms          rms(c)
RMM:   1    -0.413224738734E+03   -0.19372E-01   -0.67889E+00  4309   0.166E+00    0.932E-01
RMM:   2    -0.413204929337E+03    0.19809E-01   -0.12662E-01  4759   0.200E-01    0.696E-01
RMM:   3    -0.413236425899E+03   -0.31497E-01   -0.64557E-02  5140   0.202E-01    0.824E-01
RMM:   4    -0.413203964639E+03    0.32461E-01   -0.47377E-02  4922   0.204E-01    0.364E-01
RMM:   5    -0.413196667078E+03    0.72976E-02   -0.45833E-03  4827   0.911E-02    0.616E-02
RMM:   6    -0.413196484194E+03    0.18288E-03   -0.45699E-04  4614   0.290E-02    0.287E-02
RMM:   7    -0.413196518159E+03   -0.33965E-04   -0.25676E-04  5622   0.179E-02    0.224E-02
RMM:   8    -0.413196500174E+03    0.17985E-04   -0.68012E-05  4990   0.100E-02    0.103E-02
RMM:   9    -0.413196497558E+03    0.26167E-05   -0.20069E-05  4794   0.558E-03    0.426E-03
RMM:  10    -0.413196493984E+03    0.35734E-05   -0.30009E-06  2762   0.258E-03    0.268E-03
RMM:  11    -0.413196488861E+03    0.51233E-05   -0.10492E-06  2493   0.179E-03    0.167E-03
RMM:  12    -0.413196485009E+03    0.38522E-05   -0.44914E-07  2255   0.112E-03    0.789E-04
RMM:  13    -0.413196480953E+03    0.40559E-05   -0.37333E-07  2163   0.983E-04    0.419E-04
RMM:  14    -0.413196476474E+03    0.44785E-05   -0.23675E-07  1716   0.812E-04    0.329E-04
RMM:  15    -0.413196471223E+03    0.52516E-05   -0.15894E-07  1310   0.711E-04    0.159E-04
RMM:  16    -0.413196467838E+03    0.33851E-05   -0.10421E-07  1231   0.651E-04    0.859E-05
RMM:  17    -0.413196462311E+03    0.55264E-05   -0.11054E-07  1457   0.680E-04    0.109E-04
RMM:  18    -0.413196460867E+03    0.14442E-05   -0.53643E-08  1034   0.552E-04    0.853E-05
RMM:  19    -0.413196459280E+03    0.15872E-05   -0.40014E-08   980   0.539E-04    0.319E-05
RMM:  20    -0.413196457837E+03    0.14427E-05   -0.31423E-08   931   0.529E-04    0.269E-05
RMM:  21    -0.413196457662E+03    0.17472E-06   -0.14466E-08   724   0.494E-04
[...]
RMM:   4    -0.413922516102E+03   -0.76257E-01   -0.10351E-01  5023   0.353E-01    0.120E+00
RMM:   5    -0.413848521682E+03    0.73994E-01   -0.61484E-02  4987   0.274E-01    0.394E-01
RMM:   6    -0.413841785541E+03    0.67361E-02   -0.13933E-02  5333   0.152E-01    0.137E-01
RMM:   7    -0.413841431586E+03    0.35396E-03   -0.26727E-03  5743   0.615E-02    0.911E-02
RMM:   8    -0.413841266997E+03    0.16459E-03   -0.99987E-04  4833   0.396E-02    0.492E-02
RMM:   9    -0.413841247261E+03    0.19737E-04   -0.55909E-04  5002   0.290E-02    0.229E-02
RMM:  10    -0.413841244726E+03    0.25345E-05   -0.15729E-04  5885   0.146E-02    0.163E-02
RMM:  11    -0.413841245606E+03   -0.87987E-06   -0.44817E-05  5176   0.770E-03    0.853E-03
RMM:  12    -0.413841248342E+03   -0.27361E-05   -0.10131E-05  3621   0.435E-03    0.409E-03
RMM:  13    -0.413841251716E+03   -0.33741E-05   -0.28677E-06  2746   0.262E-03    0.232E-03
RMM:  14    -0.413841256030E+03   -0.43141E-05   -0.16292E-06  2570   0.207E-03    0.101E-03
RMM:  15    -0.413841258754E+03   -0.27236E-05   -0.74294E-07  2420   0.138E-03    0.533E-04
RMM:  16    -0.413841261040E+03   -0.22864E-05   -0.44579E-07  1992   0.101E-03    0.306E-04
RMM:  17    -0.413841263549E+03   -0.25082E-05   -0.39772E-07  1808   0.902E-04    0.157E-04
RMM:  18    -0.413841265622E+03   -0.20736E-05   -0.29903E-07  1641   0.808E-04    0.137E-04
RMM:  19    -0.413841267293E+03   -0.16707E-05   -0.22346E-07  1471   0.714E-04    0.101E-04
RMM:  20    -0.413841268617E+03   -0.13247E-05   -0.15268E-07  1247   0.632E-04    0.618E-05
RMM:  21    -0.413841269487E+03   -0.86995E-06   -0.93154E-08  1067   0.578E-04
  139 T=   195. E= -.41288425E+03 F= -.41384127E+03 E0= -.41381987E+03  EK= 0.95702E+00 SP= 0.00E+00 SK= 0.00E+00
       N       E                     dE             d eps       ncg     rms          rms(c)
RMM:   1    -0.413855508811E+03   -0.14240E-01   -0.22902E+01  4282   0.859E+00    0.140E+00
RMM:   2    -0.413720206477E+03    0.13530E+00   -0.66558E-01  5417   0.984E-01    0.135E+00
RMM:   3    -0.413754247448E+03   -0.34041E-01   -0.13811E-01  5803   0.381E-01    0.139E+00
RMM:   4    -0.413713024128E+03    0.41223E-01   -0.47815E-02  5074   0.259E-01    0.798E-01
RMM:   5    -0.413711065196E+03    0.19589E-02   -0.63784E-02  4336   0.344E-01    0.304E-01
RMM:   6    -0.413707576668E+03    0.34885E-02   -0.56061E-03  4510   0.117E-01    0.127E-01
RMM:   7    -0.413707293211E+03    0.28346E-03   -0.20428E-03  5649   0.555E-02    0.896E-02
RMM:   8    -0.413707092561E+03    0.20065E-03   -0.10764E-03  4570   0.429E-02    0.346E-02
RMM:   9    -0.413707099236E+03   -0.66747E-05   -0.33005E-04  5460   0.225E-02    0.169E-02
RMM:  10    -0.413707099985E+03   -0.74943E-06   -0.84697E-05  5693   0.104E-02    0.128E-02
RMM:  11    -0.413707103275E+03   -0.32902E-05   -0.27089E-05  4998   0.600E-03    0.792E-03
RMM:  12    -0.413707105803E+03   -0.25282E-05   -0.53917E-06  3122   0.332E-03    0.412E-03
RMM:  13    -0.413707110605E+03   -0.48013E-05   -0.22748E-06  2692   0.243E-03    0.242E-03
RMM:  14    -0.413707114674E+03   -0.40698E-05   -0.15640E-06  2594   0.197E-03    0.865E-04
RMM:  15    -0.413707117349E+03   -0.26743E-05   -0.80464E-07  2416   0.139E-03    0.543E-04
RMM:  16    -0.413707119820E+03   -0.24714E-05   -0.48720E-07  2057   0.105E-03    0.306E-04
RMM:  17    -0.413707122058E+03   -0.22377E-05   -0.36449E-07  1661   0.874E-04    0.149E-04
RMM:  18    -0.413707123820E+03   -0.17617E-05   -0.28188E-07  1603   0.795E-04    0.900E-05
RMM:  19    -0.413707125353E+03   -0.15332E-05   -0.22230E-07  1526   0.721E-04    0.694E-05
RMM:  20    -0.413707126807E+03   -0.14544E-05   -0.15859E-07  1278   0.642E-04    0.479E-05
RMM:  21    -0.413707127733E+03   -0.92573E-06   -0.10192E-07  1110   0.583E-04
  140 T=   167. E= -.41288723E+03 F= -.41370713E+03 E0= -.41368569E+03  EK= 0.81990E+00 SP= 0.00E+00 SK= 0.00E+00
       N       E                     dE             d eps       ncg     rms          rms(c)
RMM:   1    -0.413499994709E+03    0.20713E+00   -0.16880E+01  4282   0.758E+00    0.148E+00
RMM:   2    -0.413443964032E+03    0.56031E-01   -0.48921E-01  5401   0.843E-01    0.139E+00
RMM:   3    -0.413475139854E+03   -0.31176E-01   -0.13273E-01  5716   0.370E-01    0.145E+00
RMM:   4    -0.413428606798E+03    0.46533E-01   -0.56750E-02  4922   0.300E-01    0.630E-01
RMM:   5    -0.413427484029E+03    0.11228E-02   -0.44069E-02  4449   0.285E-01    0.251E-01
RMM:   6    -0.413425526847E+03    0.19572E-02   -0.40290E-03  4791   0.949E-02    0.116E-01
RMM:   7    -0.413425338170E+03    0.18868E-03   -0.16717E-03  5442   0.492E-02    0.829E-02
RMM:   8    -0.413425186744E+03    0.15143E-03   -0.11230E-03  4763   0.419E-02    0.362E-02
RMM:   9    -0.413425174118E+03    0.12626E-04   -0.33803E-04  5411   0.234E-02    0.232E-02
RMM:  10    -0.413425165694E+03    0.84238E-05   -0.77390E-05  5498   0.107E-02    0.119E-02
RMM:  11    -0.413425169971E+03   -0.42769E-05   -0.28067E-05  4960   0.633E-03    0.731E-03
RMM:  12    -0.413425174264E+03   -0.42931E-05   -0.59673E-06  3145   0.344E-03    0.373E-03
RMM:  13    -0.413425178915E+03   -0.46501E-05   -0.24043E-06  2695   0.241E-03    0.222E-03
RMM:  14    -0.413425182666E+03   -0.37511E-05   -0.15176E-06  2575   0.193E-03    0.855E-04
RMM:  15    -0.413425185225E+03   -0.25599E-05   -0.77224E-07  2367   0.135E-03    0.530E-04
RMM:  16    -0.413425187281E+03   -0.20558E-05   -0.48029E-07  2063   0.103E-03    0.280E-04
RMM:  17    -0.413425189090E+03   -0.18084E-05   -0.36107E-07  1718   0.878E-04    0.166E-04
RMM:  18    -0.413425190519E+03   -0.14297E-05   -0.28430E-07  1605   0.796E-04    0.929E-05
RMM:  19    -0.413425191360E+03   -0.84056E-06   -0.18379E-07  1417   0.688E-04
  141 T=   113. E= -.41287013E+03 F= -.41342519E+03 E0= -.41340401E+03  EK= 0.55506E+00 SP= 0.00E+00 SK= 0.00E+00
       N       E                     dE             d eps       ncg     rms          rms(c)
RMM:   1    -0.413300424239E+03    0.12477E+00   -0.93417E+00  4290   0.579E+00    0.730E-01
RMM:   2    -0.413268004468E+03    0.32420E-01   -0.19009E-01  5373   0.532E-01    0.621E-01
RMM:   3    -0.413289260799E+03   -0.21256E-01   -0.52343E-02  5790   0.225E-01    0.763E-01
RMM:   4    -0.413267011352E+03    0.22249E-01   -0.21017E-02  5046   0.164E-01    0.325E-01
RMM:   5    -0.413266402753E+03    0.60860E-03   -0.16309E-02  4657   0.167E-01    0.148E-01
RMM:   6    -0.413265756262E+03    0.64649E-03   -0.24023E-03  5023   0.677E-02    0.868E-02
RMM:   7    -0.413265641198E+03    0.11506E-03   -0.68041E-04  5616   0.311E-02    0.654E-02
RMM:   8    -0.413265579706E+03    0.61492E-04   -0.48922E-04  4555   0.280E-02    0.244E-02
RMM:   9    -0.413265589750E+03   -0.10044E-04   -0.17476E-04  5162   0.165E-02    0.164E-02
RMM:  10    -0.413265592553E+03   -0.28026E-05   -0.38469E-05  5263   0.755E-03    0.916E-03
RMM:  11    -0.413265595070E+03   -0.25169E-05   -0.10260E-05  3742   0.416E-03    0.461E-03
RMM:  12    -0.413265601422E+03   -0.63523E-05   -0.40711E-06  2906   0.307E-03    0.228E-03
RMM:  13    -0.413265605455E+03   -0.40334E-05   -0.16735E-06  2607   0.201E-03    0.139E-03
RMM:  14    -0.413265609160E+03   -0.37044E-05   -0.13686E-06  2557   0.170E-03    0.653E-04
RMM:  15    -0.413265611008E+03   -0.18484E-05   -0.74541E-07  2259   0.123E-03    0.415E-04
RMM:  16    -0.413265612411E+03   -0.14025E-05   -0.58819E-07  2133   0.108E-03    0.287E-04
RMM:  17    -0.413265613170E+03   -0.75921E-06   -0.48958E-07  1918   0.948E-04
  142 T=    83. E= -.41285759E+03 F= -.41326561E+03 E0= -.41324492E+03  EK= 0.40803E+00 SP= 0.00E+00 SK= 0.00E+00
       N       E                     dE             d eps       ncg     rms          rms(c)
RMM:   1    -0.413404080677E+03   -0.13847E+00   -0.91190E+00  4296   0.585E+00    0.109E+00
RMM:   2    -0.413396979345E+03    0.71013E-02   -0.21679E-01  5353   0.574E-01    0.973E-01
RMM:   3    -0.413413013873E+03   -0.16035E-01   -0.75634E-02  5551   0.289E-01    0.107E+00
RMM:   4    -0.413383368460E+03    0.29645E-01   -0.48328E-02  5171   0.259E-01    0.416E-01
RMM:   5    -0.413380839183E+03    0.25293E-02   -0.27092E-02  4869   0.214E-01    0.177E-01
RMM:   6    -0.413379971757E+03    0.86743E-03   -0.51443E-03  5243   0.935E-02    0.985E-02
RMM:   7    -0.413379724192E+03    0.24757E-03   -0.78770E-04  4762   0.375E-02    0.610E-02
RMM:   8    -0.413379701032E+03    0.23160E-04   -0.53666E-04  5387   0.278E-02    0.401E-02
RMM:   9    -0.413379692831E+03    0.82011E-05   -0.29511E-04  4954   0.211E-02    0.198E-02
RMM:  10    -0.413379696115E+03   -0.32839E-05   -0.60747E-05  5552   0.970E-03    0.105E-02
RMM:  11    -0.413379705828E+03   -0.97137E-05   -0.30699E-05  5099   0.667E-03    0.638E-03
RMM:  12    -0.413379714997E+03   -0.91687E-05   -0.70515E-06  3355   0.388E-03    0.297E-03
RMM:  13    -0.413379719277E+03   -0.42799E-05   -0.23585E-06  2689   0.230E-03    0.178E-03
RMM:  14    -0.413379723114E+03   -0.38370E-05   -0.15126E-06  2597   0.180E-03    0.762E-04
RMM:  15    -0.413379725653E+03   -0.25392E-05   -0.12292E-06  2410   0.144E-03    0.552E-04
RMM:  16    -0.413379726700E+03   -0.10470E-05   -0.12510E-06  2374   0.133E-03    0.318E-04
RMM:  17    -0.413379726011E+03    0.68883E-06   -0.91725E-07  2125   0.110E-03
  143 T=   101. E= -.41288160E+03 F= -.41337973E+03 E0= -.41335934E+03  EK= 0.49813E+00 SP= 0.00E+00 SK= 0.00E+00
       N       E                     dE             d eps       ncg     rms          rms(c)
RMM:   1    -0.413509337685E+03   -0.12961E+00   -0.12401E+01  4298   0.674E+00    0.151E+00
RMM:   2    -0.413506039115E+03    0.32986E-02   -0.36872E-01  5374   0.752E-01    0.146E+00
RMM:   3    -0.413504568958E+03    0.14702E-02   -0.12564E-01  5432   0.387E-01    0.142E+00
RMM:   4    -0.413465057131E+03    0.39512E-01   -0.88850E-02  5230   0.350E-01    0.627E-01
RMM:   5    -0.413460460070E+03    0.45971E-02   -0.41792E-02  4830   0.270E-01    0.229E-01
RMM:   6    -0.413458853777E+03    0.16063E-02   -0.12817E-02  5223   0.141E-01    0.129E-01
RMM:   7    -0.413458118269E+03    0.73551E-03   -0.17655E-03  4682   0.592E-02    0.649E-02
RMM:   8    -0.413458079992E+03    0.38278E-04   -0.65540E-04  5385   0.315E-02    0.420E-02
RMM:   9    -0.413458077565E+03    0.24266E-05   -0.32846E-04  5136   0.224E-02    0.235E-02
RMM:  10    -0.413458080906E+03   -0.33410E-05   -0.70925E-05  5575   0.102E-02    0.127E-02
RMM:  11    -0.413458090864E+03   -0.99577E-05   -0.47412E-05  5322   0.826E-03    0.717E-03
RMM:  12    -0.413458099877E+03   -0.90134E-05   -0.79183E-06  3372   0.397E-03    0.428E-03
RMM:  13    -0.413458104364E+03   -0.44863E-05   -0.37168E-06  2874   0.285E-03    0.194E-03
RMM:  14    -0.413458107266E+03   -0.29018E-05   -0.18538E-06  2627   0.204E-03    0.948E-04
RMM:  15    -0.413458109366E+03   -0.21006E-05   -0.16273E-06  2572   0.174E-03    0.659E-04
RMM:  16    -0.413458109482E+03   -0.11618E-06   -0.13886E-06  2415   0.143E-03
  144 T=   117. E= -.41288476E+03 F= -.41345811E+03 E0= -.41343781E+03  EK= 0.57335E+00 SP= 0.00E+00 SK= 0.00E+00
       N       E                     dE             d eps       ncg     rms          rms(c)
RMM:   1    -0.413446980557E+03    0.11129E-01   -0.11789E+01  4298   0.653E+00    0.102E+00
RMM:   2    -0.413436810460E+03    0.10170E-01   -0.33052E-01  5383   0.702E-01    0.114E+00
RMM:   3    -0.413417663201E+03    0.19147E-01   -0.75249E-02  5547   0.308E-01    0.982E-01
RMM:   4    -0.413401494958E+03    0.16168E-01   -0.32767E-02  5303   0.220E-01    0.531E-01
RMM:   5    -0.413401350754E+03    0.14420E-03   -0.21499E-02  4656   0.197E-01    0.224E-01
RMM:   6    -0.413400254278E+03    0.10965E-02   -0.10315E-02  5023   0.125E-01    0.117E-01
RMM:   7    -0.413399594526E+03    0.65975E-03   -0.17373E-03  4908   0.570E-02    0.625E-02
RMM:   8    -0.413399555504E+03    0.39022E-04   -0.49856E-04  5472   0.273E-02    0.415E-02
RMM:   9    -0.413399538872E+03    0.16632E-04   -0.22764E-04  4515   0.195E-02    0.168E-02
RMM:  10    -0.413399548517E+03   -0.96445E-05   -0.68626E-05  5592   0.987E-03    0.890E-03
RMM:  11    -0.413399554871E+03   -0.63547E-05   -0.16693E-05  4298   0.528E-03    0.494E-03
RMM:  12    -0.413399561476E+03   -0.66048E-05   -0.50517E-06  3026   0.329E-03    0.281E-03
RMM:  13    -0.413399564397E+03   -0.29208E-05   -0.21270E-06  2678   0.211E-03    0.136E-03
RMM:  14    -0.413399565609E+03   -0.12116E-05   -0.13122E-06  2533   0.163E-03    0.877E-04
RMM:  15    -0.413399565455E+03    0.15333E-06   -0.15370E-06  2571   0.158E-03
  145 T=   107. E= -.41287489E+03 F= -.41339957E+03 E0= -.41337922E+03  EK= 0.52468E+00 SP= 0.00E+00 SK= 0.00E+00
       N       E                     dE             d eps       ncg     rms          rms(c)
RMM:   1    -0.413342557621E+03    0.57008E-01   -0.91626E+00  4293   0.577E+00    0.650E-01
RMM:   2    -0.413334295802E+03    0.82618E-02   -0.22683E-01  5378   0.576E-01    0.750E-01
RMM:   3    -0.413327769351E+03    0.65265E-02   -0.42673E-02  5672   0.227E-01    0.666E-01
RMM:   4    -0.413319282228E+03    0.84871E-02   -0.13359E-02  5306   0.143E-01    0.380E-01
RMM:   5    -0.413318949260E+03    0.33297E-03   -0.91633E-03  4382   0.134E-01    0.162E-01
RMM:   6    -0.413318663421E+03    0.28584E-03   -0.44928E-03  4999   0.858E-02    0.763E-02
RMM:   7    -0.413318475366E+03    0.18806E-03   -0.10063E-03  5385   0.396E-02    0.490E-02
RMM:   8    -0.413318441888E+03    0.33477E-04   -0.28091E-04  5381   0.201E-02    0.336E-02
RMM:   9    -0.413318425528E+03    0.16360E-04   -0.15322E-04  4445   0.161E-02    0.118E-02
RMM:  10    -0.413318431742E+03   -0.62135E-05   -0.44766E-05  5503   0.786E-03    0.745E-03
RMM:  11    -0.413318432424E+03   -0.68209E-06   -0.90974E-06  3681   0.407E-03
  146 T=    91. E= -.41286947E+03 F= -.41331843E+03 E0= -.41329798E+03  EK= 0.44897E+00 SP= 0.00E+00 SK= 0.00E+00
       N       E                     dE             d eps       ncg     rms          rms(c)
RMM:   1    -0.413302135059E+03    0.16297E-01   -0.74152E+00  4264   0.523E+00    0.526E-01
RMM:   2    -0.413296093369E+03    0.60417E-02   -0.17184E-01  5358   0.501E-01    0.530E-01
RMM:   3    -0.413300862825E+03   -0.47695E-02   -0.29816E-02  5755   0.184E-01    0.569E-01
RMM:   4    -0.413292861756E+03    0.80011E-02   -0.98156E-03  5307   0.118E-01    0.314E-01
RMM:   5    -0.413292446352E+03    0.41540E-03   -0.61714E-03  4341   0.112E-01    0.116E-01
RMM:   6    -0.413292300237E+03    0.14612E-03   -0.22166E-03  5011   0.615E-02    0.572E-02
RMM:   7    -0.413292212571E+03    0.87666E-04   -0.57642E-04  5471   0.289E-02    0.345E-02
RMM:   8    -0.413292202024E+03    0.10547E-04   -0.17530E-04  5392   0.152E-02    0.250E-02
RMM:   9    -0.413292186058E+03    0.15966E-04   -0.93636E-05  4527   0.128E-02    0.965E-03
RMM:  10    -0.413292187875E+03   -0.18172E-05   -0.25054E-05  4942   0.603E-03    0.598E-03
RMM:  11    -0.413292185731E+03    0.21442E-05   -0.48223E-06  3052   0.325E-03    0.277E-03
RMM:  12    -0.413292184793E+03    0.93815E-06   -0.12212E-06  2531   0.194E-03
  147 T=    86. E= -.41286910E+03 F= -.41329218E+03 E0= -.41327162E+03  EK= 0.42308E+00 SP= 0.00E+00 SK= 0.00E+00
       N       E                     dE             d eps       ncg     rms          rms(c)
RMM:   1    -0.413333269173E+03   -0.41083E-01   -0.74094E+00  4265   0.524E+00    0.551E-01
RMM:   2    -0.413326201435E+03    0.70677E-02   -0.16663E-01  5316   0.499E-01    0.494E-01
RMM:   3    -0.413327878351E+03   -0.16769E-02   -0.23548E-02  5671   0.175E-01    0.384E-01
RMM:   4    -0.413337327187E+03   -0.94488E-02   -0.17517E-02  5461   0.128E-01    0.515E-01
RMM:   5    -0.413326455258E+03    0.10872E-01   -0.12155E-02  4777   0.137E-01    0.122E-01
RMM:   6    -0.413326215073E+03    0.24019E-03   -0.51454E-03  5351   0.830E-02    0.780E-02
RMM:   7    -0.413325800044E+03    0.41503E-03   -0.99930E-04  4978   0.404E-02    0.327E-02
RMM:   8    -0.413325794432E+03    0.56124E-05   -0.26507E-04  5721   0.188E-02    0.232E-02
RMM:   9    -0.413325780393E+03    0.14039E-04   -0.69085E-05  4813   0.108E-02    0.107E-02
RMM:  10    -0.413325778841E+03    0.15525E-05   -0.21472E-05  4701   0.573E-03    0.521E-03
RMM:  11    -0.413325778696E+03    0.14456E-06   -0.47700E-06  3015   0.307E-03
  148 T=    92. E= -.41287183E+03 F= -.41332578E+03 E0= -.41330508E+03  EK= 0.45395E+00 SP= 0.00E+00 SK= 0.00E+00
       N       E                     dE             d eps       ncg     rms          rms(c)
RMM:   1    -0.413388446974E+03   -0.62668E-01   -0.85310E+00  4265   0.558E+00    0.672E-01
RMM:   2    -0.413379926311E+03    0.85207E-02   -0.21937E-01  5285   0.556E-01    0.591E-01
RMM:   3    -0.413392334083E+03   -0.12408E-01   -0.38630E-02  5676   0.217E-01    0.633E-01
RMM:   4    -0.413383353954E+03    0.89801E-02   -0.19668E-02  5282   0.151E-01    0.420E-01
RMM:   5    -0.413380319438E+03    0.30345E-02   -0.14322E-02  4779   0.157E-01    0.136E-01
RMM:   6    -0.413379799218E+03    0.52022E-03   -0.58741E-03  5156   0.915E-02    0.887E-02
RMM:   7    -0.413379207693E+03    0.59153E-03   -0.93680E-04  4662   0.441E-02    0.325E-02
RMM:   8    -0.413379199022E+03    0.86708E-05   -0.37002E-04  5755   0.227E-02    0.237E-02
RMM:   9    -0.413379182788E+03    0.16233E-04   -0.95674E-05  5208   0.120E-02    0.146E-02
RMM:  10    -0.413379178427E+03    0.43615E-05   -0.27717E-05  5129   0.664E-03    0.630E-03
RMM:  11    -0.413379180628E+03   -0.22015E-05   -0.10373E-05  3979   0.404E-03    0.404E-03
RMM:  12    -0.413379183998E+03   -0.33700E-05   -0.20898E-06  2647   0.254E-03    0.205E-03
RMM:  13    -0.413379188745E+03   -0.47464E-05   -0.15193E-06  2593   0.194E-03    0.986E-04
RMM:  14    -0.413379193743E+03   -0.49984E-05   -0.10165E-06  2532   0.146E-03    0.587E-04
RMM:  15    -0.413379198761E+03   -0.50179E-05   -0.10166E-06  2408   0.129E-03    0.436E-04
RMM:  16    -0.413379204745E+03   -0.59842E-05   -0.14928E-06  2536   0.144E-03    0.294E-04
RMM:  17    -0.413379208365E+03   -0.36197E-05   -0.10448E-06  1995   0.112E-03    0.188E-04
RMM:  18    -0.413379210860E+03   -0.24952E-05   -0.55691E-07  1856   0.918E-04    0.147E-04
RMM:  19    -0.413379213157E+03   -0.22966E-05   -0.37766E-07  1661   0.790E-04    0.885E-05
RMM:  20    -0.413379214500E+03   -0.13432E-05   -0.17719E-07  1193   0.627E-04    0.494E-05
RMM:  21    -0.413379215636E+03   -0.11359E-05   -0.10597E-07  1098   0.587E-04    0.352E-05
RMM:  22    -0.413379216295E+03   -0.65879E-06   -0.58145E-08   989   0.552E-04
  149 T=   103. E= -.41287532E+03 F= -.41337922E+03 E0= -.41335832E+03  EK= 0.50390E+00 SP= 0.00E+00 SK= 0.00E+00
       N       E                     dE             d eps       ncg     rms          rms(c)
RMM:   1    -0.413416301639E+03   -0.37086E-01   -0.95475E+00  4265   0.583E+00    0.833E-01
RMM:   2    -0.413405876093E+03    0.10426E-01   -0.28817E-01  5279   0.608E-01    0.701E-01
RMM:   3    -0.413425080995E+03   -0.19205E-01   -0.54434E-02  5591   0.262E-01    0.748E-01
RMM:   4    -0.413415087560E+03    0.99934E-02   -0.34867E-02  5253   0.197E-01    0.542E-01
RMM:   5    -0.413406510169E+03    0.85774E-02   -0.21215E-02  4925   0.187E-01    0.148E-01
RMM:   6    -0.413406045622E+03    0.46455E-03   -0.84613E-03  5359   0.108E-01    0.107E-01
RMM:   7    -0.413405200723E+03    0.84490E-03   -0.13317E-03  4656   0.518E-02    0.370E-02
RMM:   8    -0.413405192732E+03    0.79906E-05   -0.58150E-04  5770   0.278E-02    0.253E-02
RMM:   9    -0.413405174656E+03    0.18077E-04   -0.13053E-04  5517   0.135E-02    0.182E-02
RMM:  10    -0.413405163865E+03    0.10790E-04   -0.37886E-05  5274   0.784E-03    0.727E-03
RMM:  11    -0.413405163915E+03   -0.49171E-07   -0.19799E-05  4771   0.498E-03    0.548E-03
RMM:  12    -0.413405163965E+03   -0.50615E-07   -0.25509E-06  2708   0.275E-03
  150 T=   108. E= -.41287583E+03 F= -.41340516E+03 E0= -.41338399E+03  EK= 0.52933E+00 SP= 0.00E+00 SK= 0.00E+00
