       N       E                     dE             d eps       ncg     rms          rms(c)
RMM:   1     0.220122120318E+04    0.22012E+04   -0.52440E+04  2132   0.654E+02
RMM:   2     0.705308185919E+03   -0.14959E+04   -0.16260E+04  2132   0.177E+02
RMM:   3     0.137532466147E+03   -0.56778E+03   -0.65701E+03  2132   0.117E+02
RMM:   4    -0.159141653763E+03   -0.29667E+03   -0.27848E+03  2132   0.936E+01
RMM:   5    -0.287470637955E+03   -0.12833E+03   -0.11461E+03  2132   0.595E+01
RMM:   6    -0.349760037693E+03   -0.62289E+02   -0.55121E+02  2132   0.423E+01
RMM:   7    -0.382640464961E+03   -0.32880E+02   -0.30402E+02  2132   0.293E+01
RMM:   8    -0.404059749423E+03   -0.21419E+02   -0.18469E+02  2132   0.233E+01
RMM:   9    -0.435994075948E+03   -0.31934E+02   -0.30869E+02  6107   0.173E+01
RMM:  10    -0.441293489793E+03   -0.52994E+01   -0.63260E+01  6398   0.540E+00
RMM:  11    -0.442494444825E+03   -0.12010E+01   -0.11143E+01  6215   0.173E+00
RMM:  12    -0.442871231751E+03   -0.37679E+00   -0.26877E+00  6363   0.601E-01    0.134E+02
RMM:  13    -0.425583390595E+03    0.17288E+02   -0.81389E+01  4676   0.119E+01    0.712E+01
RMM:  14    -0.499339785418E+03   -0.73756E+02   -0.53961E+02  5418   0.232E+01    0.307E+01
RMM:  15    -0.418727716075E+03    0.80612E+02   -0.20653E+02  5120   0.164E+01    0.895E+00
RMM:  16    -0.414001601345E+03    0.47261E+01   -0.40923E+01  6090   0.627E+00    0.433E+00
RMM:  17    -0.413199355138E+03    0.80225E+00   -0.29150E+00  5446   0.199E+00    0.243E+00
RMM:  18    -0.413180824310E+03    0.18531E-01   -0.74034E-01  6024   0.866E-01    0.174E+00
RMM:  19    -0.413183613485E+03   -0.27892E-02   -0.23561E-01  5624   0.538E-01    0.102E+00
RMM:  20    -0.413202539479E+03   -0.18926E-01   -0.43477E-01  5591   0.663E-01    0.777E-01
RMM:  21    -0.413172110974E+03    0.30429E-01   -0.42499E-02  4962   0.274E-01    0.395E-01
RMM:  22    -0.413165093866E+03    0.70171E-02   -0.41698E-02  5707   0.205E-01    0.157E-01
RMM:  23    -0.413164491910E+03    0.60196E-03   -0.61385E-03  5761   0.736E-02    0.906E-02
RMM:  24    -0.413163445754E+03    0.10462E-02   -0.20454E-03  5414   0.433E-02    0.583E-02
RMM:  25    -0.413162674111E+03    0.77164E-03   -0.10177E-03  5013   0.314E-02    0.386E-02
RMM:  26    -0.413162797031E+03   -0.12292E-03   -0.12545E-03  5860   0.348E-02    0.347E-02
RMM:  27    -0.413163263018E+03   -0.46599E-03   -0.23039E-04  4593   0.204E-02    0.218E-02
RMM:  28    -0.413163632878E+03   -0.36986E-03   -0.16642E-04  5155   0.159E-02    0.902E-03
RMM:  29    -0.413164052803E+03   -0.41992E-03   -0.10484E-04  4613   0.155E-02    0.448E-03
RMM:  30    -0.413164363631E+03   -0.31083E-03   -0.10133E-04  4319   0.129E-02    0.415E-03
RMM:  31    -0.413164506692E+03   -0.14306E-03   -0.64707E-05  3446   0.761E-03    0.367E-03
RMM:  32    -0.413164534351E+03   -0.27659E-04   -0.22276E-05  2987   0.317E-03    0.258E-03
RMM:  33    -0.413164550159E+03   -0.15808E-04   -0.96150E-06  2821   0.247E-03    0.104E-03
RMM:  34    -0.413164551263E+03   -0.11035E-05   -0.57072E-06  2610   0.151E-03    0.506E-04
RMM:  35    -0.413164552246E+03   -0.98304E-06   -0.22610E-06  2482   0.139E-03
    1 T=    61. E= -.41286676E+03 F= -.41316455E+03 E0= -.41314205E+03  EK= 0.29779E+00 SP= 0.00E+00 SK= 0.00E+00
       N       E                     dE             d eps       ncg     rms          rms(c)
RMM:   1    -0.413158004058E+03    0.65472E-02   -0.10323E+01  4006   0.667E-01    0.885E-01
RMM:   2    -0.413166879219E+03   -0.88752E-02   -0.12647E-01  3979   0.944E-02    0.645E-01
RMM:   3    -0.413164394493E+03    0.24847E-02   -0.92714E-03  4654   0.390E-02    0.117E-01
RMM:   4    -0.413178496308E+03   -0.14102E-01   -0.14822E-02  5211   0.101E-01    0.498E-01
RMM:   5    -0.413164179481E+03    0.14317E-01   -0.71416E-03  4858   0.834E-02    0.366E-02
RMM:   6    -0.413164272846E+03   -0.93365E-04   -0.12329E-03  5807   0.339E-02    0.253E-02
RMM:   7    -0.413164277573E+03   -0.47267E-05   -0.23915E-04  5675   0.142E-02    0.145E-02
RMM:   8    -0.413164279587E+03   -0.20141E-05   -0.27710E-05  4457   0.575E-03    0.617E-03
RMM:   9    -0.413164283595E+03   -0.40076E-05   -0.58514E-06  3038   0.268E-03    0.486E-03
RMM:  10    -0.413164288606E+03   -0.50117E-05   -0.13580E-06  2530   0.177E-03    0.300E-03
RMM:  11    -0.413164295124E+03   -0.65177E-05   -0.12294E-06  2514   0.161E-03    0.131E-03
RMM:  12    -0.413164301033E+03   -0.59090E-05   -0.96668E-07  2429   0.136E-03    0.582E-04
RMM:  13    -0.413164301791E+03   -0.75774E-06   -0.39506E-07  1951   0.908E-04
    2 T=    61. E= -.41286653E+03 F= -.41316430E+03 E0= -.41314180E+03  EK= 0.29777E+00 SP= 0.00E+00 SK= 0.00E+00
       N       E                     dE             d eps       ncg     rms          rms(c)
RMM:   1    -0.413159067604E+03    0.52334E-02   -0.10345E+01  4189   0.672E-01    0.908E-01
RMM:   2    -0.413166866943E+03   -0.77993E-02   -0.12437E-01  4008   0.934E-02    0.639E-01
RMM:   3    -0.413165013174E+03    0.18538E-02   -0.93676E-03  4796   0.398E-02    0.136E-01
RMM:   4    -0.413187445111E+03   -0.22432E-01   -0.22923E-02  5182   0.126E-01    0.626E-01
RMM:   5    -0.413164698513E+03    0.22747E-01   -0.11103E-02  4833   0.105E-01    0.414E-02
RMM:   6    -0.413164847336E+03   -0.14882E-03   -0.18959E-03  5802   0.422E-02    0.272E-02
RMM:   7    -0.413164848165E+03   -0.82935E-06   -0.30582E-04  5748   0.161E-02    0.170E-02
RMM:   8    -0.413164843285E+03    0.48800E-05   -0.48401E-05  4970   0.735E-03    0.791E-03
RMM:   9    -0.413164842131E+03    0.11540E-05   -0.97757E-06  3568   0.352E-03    0.611E-03
RMM:  10    -0.413164842661E+03   -0.52973E-06   -0.14743E-06  2551   0.196E-03
    3 T=    61. E= -.41286679E+03 F= -.41316484E+03 E0= -.41314235E+03  EK= 0.29806E+00 SP= 0.00E+00 SK= 0.00E+00
       N       E                     dE             d eps       ncg     rms          rms(c)
RMM:   1    -0.413158541100E+03    0.63010E-02   -0.10263E+01  4221   0.673E-01    0.892E-01
RMM:   2    -0.413166699426E+03   -0.81583E-02   -0.12367E-01  4136   0.944E-02    0.633E-01
RMM:   3    -0.413167209836E+03   -0.51041E-03   -0.10993E-02  5122   0.620E-02    0.247E-01
RMM:   4    -0.413200055976E+03   -0.32846E-01   -0.44417E-02  5138   0.177E-01    0.778E-01
RMM:   5    -0.413164483220E+03    0.35573E-01   -0.15451E-02  4762   0.129E-01    0.575E-02
RMM:   6    -0.413164595462E+03   -0.11224E-03   -0.26674E-03  5619   0.514E-02    0.269E-02
RMM:   7    -0.413164618136E+03   -0.22673E-04   -0.39894E-04  6047   0.168E-02    0.172E-02
RMM:   8    -0.413164618218E+03   -0.82138E-07   -0.66183E-05  5272   0.855E-03    0.785E-03
RMM:   9    -0.413164616244E+03    0.19740E-05   -0.10746E-05  3526   0.373E-03    0.384E-03
RMM:  10    -0.413164617567E+03   -0.13230E-05   -0.25424E-06  2625   0.224E-03    0.267E-03
RMM:  11    -0.413164619193E+03   -0.16264E-05   -0.13329E-06  2532   0.179E-03    0.143E-03
RMM:  12    -0.413164620253E+03   -0.10596E-05   -0.76826E-07  2485   0.138E-03    0.470E-04
RMM:  13    -0.413164620815E+03   -0.56186E-06   -0.37891E-07  2018   0.978E-04
    4 T=    61. E= -.41286656E+03 F= -.41316462E+03 E0= -.41314213E+03  EK= 0.29806E+00 SP= 0.00E+00 SK= 0.00E+00
       N       E                     dE             d eps       ncg     rms          rms(c)
RMM:   1    -0.413158421481E+03    0.61988E-02   -0.10311E+01  4237   0.680E-01    0.883E-01
RMM:   2    -0.413167266404E+03   -0.88449E-02   -0.12656E-01  4002   0.932E-02    0.644E-01
RMM:   3    -0.413165037542E+03    0.22289E-02   -0.93259E-03  4872   0.407E-02    0.130E-01
RMM:   4    -0.413192126299E+03   -0.27089E-01   -0.27864E-02  5160   0.139E-01    0.687E-01
RMM:   5    -0.413164582858E+03    0.27543E-01   -0.13324E-02  4821   0.115E-01    0.424E-02
RMM:   6    -0.413164766348E+03   -0.18349E-03   -0.22701E-03  5782   0.457E-02    0.267E-02
RMM:   7    -0.413164776331E+03   -0.99831E-05   -0.33346E-04  5804   0.162E-02    0.172E-02
RMM:   8    -0.413164777755E+03   -0.14240E-05   -0.53307E-05  4983   0.752E-03    0.814E-03
RMM:   9    -0.413164779620E+03   -0.18651E-05   -0.11089E-05  3720   0.376E-03    0.611E-03
RMM:  10    -0.413164783767E+03   -0.41473E-05   -0.15758E-06  2556   0.197E-03    0.400E-03
RMM:  11    -0.413164789278E+03   -0.55102E-05   -0.14780E-06  2548   0.186E-03    0.187E-03
RMM:  12    -0.413164794860E+03   -0.55822E-05   -0.13706E-06  2536   0.168E-03    0.760E-04
RMM:  13    -0.413164795334E+03   -0.47400E-06   -0.36133E-07  2168   0.104E-03
    5 T=    61. E= -.41286660E+03 F= -.41316480E+03 E0= -.41314232E+03  EK= 0.29819E+00 SP= 0.00E+00 SK= 0.00E+00
       N       E                     dE             d eps       ncg     rms          rms(c)
RMM:   1    -0.413159375837E+03    0.54190E-02   -0.10342E+01  4250   0.685E-01    0.903E-01
RMM:   2    -0.413167343881E+03   -0.79680E-02   -0.12459E-01  4071   0.946E-02    0.641E-01
RMM:   3    -0.413165438487E+03    0.19054E-02   -0.93539E-03  4755   0.396E-02    0.132E-01
RMM:   4    -0.413186200207E+03   -0.20762E-01   -0.21099E-02  5161   0.121E-01    0.604E-01
RMM:   5    -0.413165102448E+03    0.21098E-01   -0.10347E-02  4827   0.100E-01    0.401E-02
RMM:   6    -0.413165238705E+03   -0.13626E-03   -0.17650E-03  5808   0.401E-02    0.259E-02
RMM:   7    -0.413165241382E+03   -0.26762E-05   -0.27824E-04  5731   0.155E-02    0.164E-02
RMM:   8    -0.413165236058E+03    0.53231E-05   -0.47508E-05  4894   0.734E-03    0.789E-03
RMM:   9    -0.413165234809E+03    0.12492E-05   -0.95196E-06  3564   0.355E-03    0.619E-03
RMM:  10    -0.413165235300E+03   -0.49071E-06   -0.13803E-06  2538   0.197E-03
    6 T=    61. E= -.41286677E+03 F= -.41316524E+03 E0= -.41314277E+03  EK= 0.29846E+00 SP= 0.00E+00 SK= 0.00E+00
       N       E                     dE             d eps       ncg     rms          rms(c)
RMM:   1    -0.413159106501E+03    0.61283E-02   -0.10287E+01  4256   0.687E-01    0.899E-01
RMM:   2    -0.413167016702E+03   -0.79102E-02   -0.12378E-01  4188   0.939E-02    0.634E-01
RMM:   3    -0.413167402056E+03   -0.38535E-03   -0.10999E-02  5093   0.603E-02    0.241E-01
RMM:   4    -0.413201129139E+03   -0.33727E-01   -0.44591E-02  5127   0.177E-01    0.785E-01
RMM:   5    -0.413164883446E+03    0.36246E-01   -0.15924E-02  4772   0.130E-01    0.569E-02
RMM:   6    -0.413165006797E+03   -0.12335E-03   -0.27108E-03  5617   0.516E-02    0.275E-02
RMM:   7    -0.413165026247E+03   -0.19450E-04   -0.40164E-04  6036   0.169E-02    0.175E-02
RMM:   8    -0.413165024032E+03    0.22153E-05   -0.65654E-05  5256   0.849E-03    0.793E-03
RMM:   9    -0.413165020252E+03    0.37804E-05   -0.10880E-05  3545   0.373E-03    0.395E-03
RMM:  10    -0.413165020193E+03    0.58659E-07   -0.25627E-06  2621   0.224E-03
    7 T=    61. E= -.41286650E+03 F= -.41316502E+03 E0= -.41314257E+03  EK= 0.29852E+00 SP= 0.00E+00 SK= 0.00E+00
       N       E                     dE             d eps       ncg     rms          rms(c)
RMM:   1    -0.413159328483E+03    0.56918E-02   -0.10291E+01  4266   0.694E-01    0.882E-01
RMM:   2    -0.413168056280E+03   -0.87278E-02   -0.12593E-01  4173   0.937E-02    0.641E-01
RMM:   3    -0.413166747442E+03    0.13088E-02   -0.99857E-03  5044   0.518E-02    0.183E-01
RMM:   4    -0.413209401899E+03   -0.42654E-01   -0.48222E-02  5144   0.183E-01    0.862E-01
RMM:   5    -0.413165329019E+03    0.44073E-01   -0.20554E-02  4807   0.144E-01    0.527E-02
RMM:   6    -0.413165542032E+03   -0.21301E-03   -0.33767E-03  5747   0.571E-02    0.280E-02
RMM:   7    -0.413165562127E+03   -0.20095E-04   -0.46373E-04  5979   0.182E-02    0.191E-02
RMM:   8    -0.413165564588E+03   -0.24612E-05   -0.73583E-05  5240   0.855E-03    0.923E-03
RMM:   9    -0.413165564370E+03    0.21881E-06   -0.14657E-05  3951   0.415E-03    0.542E-03
RMM:  10    -0.413165567743E+03   -0.33733E-05   -0.27033E-06  2629   0.221E-03    0.365E-03
RMM:  11    -0.413165570959E+03   -0.32163E-05   -0.12140E-06  2525   0.170E-03    0.188E-03
RMM:  12    -0.413165574621E+03   -0.36620E-05   -0.12424E-06  2531   0.164E-03    0.559E-04
RMM:  13    -0.413165575952E+03   -0.13304E-05   -0.53323E-07  2238   0.115E-03    0.477E-04
RMM:  14    -0.413165575898E+03    0.54053E-07   -0.22261E-07  1684   0.808E-04
    8 T=    61. E= -.41286676E+03 F= -.41316558E+03 E0= -.41314315E+03  EK= 0.29882E+00 SP= 0.00E+00 SK= 0.00E+00
       N       E                     dE             d eps       ncg     rms          rms(c)
RMM:   1    -0.413159759875E+03    0.58161E-02   -0.10342E+01  4282   0.699E-01    0.898E-01
RMM:   2    -0.413168121455E+03   -0.83616E-02   -0.12537E-01  4177   0.952E-02    0.643E-01
RMM:   3    -0.413166072646E+03    0.20488E-02   -0.94586E-03  4830   0.414E-02    0.135E-01
RMM:   4    -0.413192571142E+03   -0.26498E-01   -0.27275E-02  5153   0.137E-01    0.680E-01
RMM:   5    -0.413165592904E+03    0.26978E-01   -0.13165E-02  4818   0.113E-01    0.430E-02
RMM:   6    -0.413165765599E+03   -0.17270E-03   -0.22294E-03  5789   0.453E-02    0.277E-02
RMM:   7    -0.413165768615E+03   -0.30155E-05   -0.33573E-04  5755   0.164E-02    0.175E-02
RMM:   8    -0.413165765010E+03    0.36047E-05   -0.52020E-05  4981   0.752E-03    0.827E-03
RMM:   9    -0.413165763564E+03    0.14463E-05   -0.10649E-05  3664   0.370E-03    0.620E-03
RMM:  10    -0.413165764272E+03   -0.70801E-06   -0.15252E-06  2549   0.197E-03
    9 T=    61. E= -.41286668E+03 F= -.41316576E+03 E0= -.41314336E+03  EK= 0.29908E+00 SP= 0.00E+00 SK= 0.00E+00
       N       E                     dE             d eps       ncg     rms          rms(c)
RMM:   1    -0.413160087241E+03    0.56763E-02   -0.10320E+01  4297   0.701E-01    0.906E-01
RMM:   2    -0.413167766551E+03   -0.76793E-02   -0.12388E-01  4268   0.946E-02    0.635E-01
RMM:   3    -0.413168521863E+03   -0.75531E-03   -0.11398E-02  5084   0.645E-02    0.254E-01
RMM:   4    -0.413199930909E+03   -0.31409E-01   -0.43436E-02  5117   0.175E-01    0.764E-01
RMM:   5    -0.413165706770E+03    0.34224E-01   -0.14884E-02  4753   0.127E-01    0.564E-02
RMM:   6    -0.413165816054E+03   -0.10928E-03   -0.25477E-03  5599   0.501E-02    0.277E-02
RMM:   7    -0.413165829708E+03   -0.13654E-04   -0.38110E-04  6015   0.167E-02    0.175E-02
RMM:   8    -0.413165825740E+03    0.39679E-05   -0.64717E-05  5234   0.854E-03    0.786E-03
RMM:   9    -0.413165820594E+03    0.51460E-05   -0.10368E-05  3494   0.373E-03    0.387E-03
RMM:  10    -0.413165819369E+03    0.12250E-05   -0.24328E-06  2608   0.222E-03    0.268E-03
RMM:  11    -0.413165817605E+03    0.17639E-05   -0.12492E-06  2519   0.176E-03    0.140E-03
RMM:  12    -0.413165815698E+03    0.19073E-05   -0.75015E-07  2463   0.137E-03    0.445E-04
RMM:  13    -0.413165814810E+03    0.88738E-06   -0.36745E-07  2043   0.977E-04
   10 T=    61. E= -.41286647E+03 F= -.41316581E+03 E0= -.41314343E+03  EK= 0.29934E+00 SP= 0.00E+00 SK= 0.00E+00
       N       E                     dE             d eps       ncg     rms          rms(c)
RMM:   1    -0.413160326272E+03    0.54894E-02   -0.10277E+01  4289   0.704E-01    0.883E-01
RMM:   2    -0.413168896037E+03   -0.85698E-02   -0.12531E-01  4227   0.946E-02    0.639E-01
RMM:   3    -0.413166959048E+03    0.19370E-02   -0.93098E-03  4865   0.437E-02    0.138E-01
RMM:   4    -0.413197717180E+03   -0.30758E-01   -0.31895E-02  5139   0.148E-01    0.731E-01
RMM:   5    -0.413166364881E+03    0.31352E-01   -0.15166E-02  4804   0.122E-01    0.447E-02
RMM:   6    -0.413166563033E+03   -0.19815E-03   -0.25889E-03  5777   0.486E-02    0.279E-02
RMM:   7    -0.413166570009E+03   -0.69766E-05   -0.36975E-04  5781   0.170E-02    0.181E-02
RMM:   8    -0.413166567270E+03    0.27399E-05   -0.59034E-05  5029   0.787E-03    0.877E-03
RMM:   9    -0.413166565848E+03    0.14211E-05   -0.12475E-05  3838   0.396E-03    0.640E-03
RMM:  10    -0.413166567032E+03   -0.11837E-05   -0.17687E-06  2565   0.203E-03    0.419E-03
RMM:  11    -0.413166568720E+03   -0.16880E-05   -0.16524E-06  2558   0.196E-03    0.189E-03
RMM:  12    -0.413166570127E+03   -0.14069E-05   -0.13419E-06  2530   0.172E-03    0.765E-04
RMM:  13    -0.413166570233E+03   -0.10567E-06   -0.37856E-07  2192   0.107E-03
   11 T=    61. E= -.41286676E+03 F= -.41316657E+03 E0= -.41314421E+03  EK= 0.29981E+00 SP= 0.00E+00 SK= 0.00E+00
       N       E                     dE             d eps       ncg     rms          rms(c)
RMM:   1    -0.413160473674E+03    0.60965E-02   -0.10350E+01  4293   0.714E-01    0.894E-01
RMM:   2    -0.413168941721E+03   -0.84680E-02   -0.12632E-01  4241   0.961E-02    0.646E-01
RMM:   3    -0.413166773120E+03    0.21686E-02   -0.94525E-03  4796   0.417E-02    0.131E-01
RMM:   4    -0.413192461620E+03   -0.25689E-01   -0.26391E-02  5144   0.135E-01    0.669E-01
RMM:   5    -0.413166360864E+03    0.26101E-01   -0.12727E-02  4810   0.111E-01    0.419E-02
RMM:   6    -0.413166529645E+03   -0.16878E-03   -0.21794E-03  5801   0.442E-02    0.265E-02
RMM:   7    -0.413166535954E+03   -0.63085E-05   -0.31309E-04  5743   0.161E-02    0.170E-02
RMM:   8    -0.413166532294E+03    0.36599E-05   -0.55983E-05  4984   0.773E-03    0.852E-03
RMM:   9    -0.413166530657E+03    0.16371E-05   -0.11594E-05  3810   0.388E-03    0.645E-03
RMM:  10    -0.413166531630E+03   -0.97292E-06   -0.15470E-06  2547   0.199E-03
   12 T=    61. E= -.41286647E+03 F= -.41316653E+03 E0= -.41314420E+03  EK= 0.30006E+00 SP= 0.00E+00 SK= 0.00E+00
       N       E                     dE             d eps       ncg     rms          rms(c)
RMM:   1    -0.413161522103E+03    0.50086E-02   -0.10352E+01  4305   0.714E-01    0.911E-01
RMM:   2    -0.413168941240E+03   -0.74191E-02   -0.12420E-01  4289   0.929E-02    0.638E-01
RMM:   3    -0.413170081439E+03   -0.11402E-02   -0.11748E-02  5126   0.630E-02    0.263E-01
RMM:   4    -0.413200096522E+03   -0.30015E-01   -0.43213E-02  5113   0.175E-01    0.751E-01
RMM:   5    -0.413166970313E+03    0.33126E-01   -0.14122E-02  4739   0.124E-01    0.565E-02
RMM:   6    -0.413167074025E+03   -0.10371E-03   -0.24757E-03  5590   0.491E-02    0.279E-02
RMM:   7    -0.413167084963E+03   -0.10938E-04   -0.37487E-04  6014   0.166E-02    0.177E-02
RMM:   8    -0.413167079666E+03    0.52972E-05   -0.64291E-05  5231   0.854E-03    0.790E-03
RMM:   9    -0.413167073291E+03    0.63754E-05   -0.10118E-05  3486   0.373E-03    0.383E-03
RMM:  10    -0.413167071242E+03    0.20486E-05   -0.23345E-06  2593   0.220E-03    0.263E-03
RMM:  11    -0.413167068212E+03    0.30298E-05   -0.12598E-06  2517   0.177E-03    0.140E-03
RMM:  12    -0.413167065297E+03    0.29158E-05   -0.73669E-07  2459   0.137E-03    0.449E-04
RMM:  13    -0.413167063912E+03    0.13850E-05   -0.35532E-07  2029   0.974E-04    0.284E-04
RMM:  14    -0.413167062634E+03    0.12772E-05   -0.21550E-07  1542   0.791E-04    0.193E-04
RMM:  15    -0.413167060706E+03    0.19279E-05   -0.19413E-07  1416   0.745E-04    0.982E-05
RMM:  16    -0.413167058975E+03    0.17313E-05   -0.15288E-07  1410   0.702E-04    0.104E-04
RMM:  17    -0.413167057010E+03    0.19648E-05   -0.14510E-07  1380   0.666E-04    0.571E-05
RMM:  18    -0.413167055797E+03    0.12137E-05   -0.81994E-08  1086   0.587E-04    0.293E-05
RMM:  19    -0.413167055306E+03    0.49043E-06   -0.40714E-08   839   0.540E-04
   13 T=    61. E= -.41286649E+03 F= -.41316706E+03 E0= -.41314475E+03  EK= 0.30056E+00 SP= 0.00E+00 SK= 0.00E+00
       N       E                     dE             d eps       ncg     rms          rms(c)
RMM:   1    -0.413163034982E+03    0.40208E-02   -0.10292E+01  4295   0.726E-01    0.886E-01
RMM:   2    -0.413169996188E+03   -0.69612E-02   -0.12557E-01  4253   0.934E-02    0.637E-01
RMM:   3    -0.413168228725E+03    0.17675E-02   -0.94090E-03  4924   0.435E-02    0.148E-01
RMM:   4    -0.413202708765E+03   -0.34480E-01   -0.36262E-02  5139   0.158E-01    0.773E-01
RMM:   5    -0.413167549818E+03    0.35159E-01   -0.17042E-02  4798   0.129E-01    0.468E-02
RMM:   6    -0.413167756607E+03   -0.20679E-03   -0.28313E-03  5754   0.513E-02    0.289E-02
RMM:   7    -0.413167762446E+03   -0.58390E-05   -0.40148E-04  5765   0.176E-02    0.187E-02
RMM:   8    -0.413167758436E+03    0.40100E-05   -0.64034E-05  5115   0.817E-03    0.909E-03
RMM:   9    -0.413167755370E+03    0.30664E-05   -0.13755E-05  3964   0.411E-03    0.641E-03
RMM:  10    -0.413167755230E+03    0.14017E-06   -0.19482E-06  2573   0.208E-03
   14 T=    61. E= -.41286664E+03 F= -.41316776E+03 E0= -.41314549E+03  EK= 0.30111E+00 SP= 0.00E+00 SK= 0.00E+00
       N       E                     dE             d eps       ncg     rms          rms(c)
RMM:   1    -0.413161767492E+03    0.59879E-02   -0.10365E+01  4303   0.726E-01    0.891E-01
RMM:   2    -0.413170443990E+03   -0.86765E-02   -0.12714E-01  4305   0.971E-02    0.648E-01
RMM:   3    -0.413171823071E+03   -0.13791E-02   -0.12561E-02  5118   0.708E-02    0.292E-01
RMM:   4    -0.413200464156E+03   -0.28641E-01   -0.45457E-02  5102   0.180E-01    0.746E-01
RMM:   5    -0.413167665831E+03    0.32798E-01   -0.13544E-02  4719   0.123E-01    0.564E-02
RMM:   6    -0.413167751990E+03   -0.86159E-04   -0.23804E-03  5580   0.482E-02    0.260E-02
RMM:   7    -0.413167771354E+03   -0.19364E-04   -0.35711E-04  6008   0.164E-02    0.169E-02
RMM:   8    -0.413167772316E+03   -0.96241E-06   -0.65452E-05  5243   0.855E-03    0.776E-03
RMM:   9    -0.413167770291E+03    0.20250E-05   -0.10353E-05  3482   0.378E-03    0.360E-03
RMM:  10    -0.413167771547E+03   -0.12554E-05   -0.22253E-06  2576   0.215E-03    0.241E-03
RMM:  11    -0.413167773099E+03   -0.15521E-05   -0.14222E-06  2528   0.182E-03    0.142E-03
RMM:  12    -0.413167773678E+03   -0.57958E-06   -0.71631E-07  2456   0.137E-03
   15 T=    61. E= -.41286635E+03 F= -.41316777E+03 E0= -.41314554E+03  EK= 0.30142E+00 SP= 0.00E+00 SK= 0.00E+00
       N       E                     dE             d eps       ncg     rms          rms(c)
RMM:   1    -0.413163223214E+03    0.45499E-02   -0.10380E+01  4300   0.726E-01    0.913E-01
RMM:   2    -0.413170911909E+03   -0.76887E-02   -0.12492E-01  4262   0.965E-02    0.641E-01
RMM:   3    -0.413169382255E+03    0.15297E-02   -0.98712E-03  4942   0.450E-02    0.157E-01
RMM:   4    -0.413205801542E+03   -0.36419E-01   -0.38589E-02  5138   0.163E-01    0.794E-01
RMM:   5    -0.413168611737E+03    0.37190E-01   -0.18008E-02  4796   0.133E-01    0.486E-02
RMM:   6    -0.413168820778E+03   -0.20904E-03   -0.29976E-03  5763   0.530E-02    0.303E-02
RMM:   7    -0.413168820767E+03    0.10365E-07   -0.42319E-04  5795   0.183E-02    0.198E-02
RMM:   8    -0.413168812152E+03    0.86158E-05   -0.70184E-05  5154   0.858E-03    0.988E-03
RMM:   9    -0.413168805370E+03    0.67814E-05   -0.14232E-05  4034   0.424E-03    0.683E-03
RMM:  10    -0.413168801532E+03    0.38383E-05   -0.21189E-06  2591   0.216E-03    0.440E-03
RMM:  11    -0.413168797845E+03    0.36867E-05   -0.14207E-06  2531   0.185E-03    0.223E-03
RMM:  12    -0.413168792562E+03    0.52833E-05   -0.15410E-06  2550   0.188E-03    0.813E-04
RMM:  13    -0.413168791148E+03    0.14138E-05   -0.46223E-07  2299   0.120E-03    0.557E-04
RMM:  14    -0.413168791172E+03   -0.24080E-07   -0.21237E-07  1780   0.818E-04
   16 T=    62. E= -.41286671E+03 F= -.41316879E+03 E0= -.41314659E+03  EK= 0.30208E+00 SP= 0.00E+00 SK= 0.00E+00
       N       E                     dE             d eps       ncg     rms          rms(c)
RMM:   1    -0.413163268831E+03    0.55223E-02   -0.10297E+01  4295   0.726E-01    0.892E-01
RMM:   2    -0.413171546566E+03   -0.82777E-02   -0.12513E-01  4266   0.958E-02    0.637E-01
RMM:   3    -0.413169598956E+03    0.19476E-02   -0.93440E-03  4859   0.421E-02    0.141E-01
RMM:   4    -0.413198971795E+03   -0.29373E-01   -0.30484E-02  5137   0.145E-01    0.714E-01
RMM:   5    -0.413169092723E+03    0.29879E-01   -0.14622E-02  4801   0.119E-01    0.446E-02
RMM:   6    -0.413169271957E+03   -0.17923E-03   -0.24578E-03  5774   0.476E-02    0.284E-02
RMM:   7    -0.413169273083E+03   -0.11264E-05   -0.35933E-04  5745   0.171E-02    0.182E-02
RMM:   8    -0.413169265838E+03    0.72450E-05   -0.59950E-05  5042   0.800E-03    0.889E-03
RMM:   9    -0.413169261111E+03    0.47268E-05   -0.12294E-05  3840   0.397E-03    0.654E-03
RMM:  10    -0.413169258963E+03    0.21486E-05   -0.16822E-06  2553   0.203E-03    0.423E-03
RMM:  11    -0.413169256277E+03    0.26856E-05   -0.15253E-06  2536   0.193E-03    0.195E-03
RMM:  12    -0.413169253166E+03    0.31109E-05   -0.12730E-06  2513   0.172E-03    0.759E-04
RMM:  13    -0.413169252721E+03    0.44568E-06   -0.37473E-07  2190   0.108E-03
   17 T=    62. E= -.41286660E+03 F= -.41316925E+03 E0= -.41314709E+03  EK= 0.30265E+00 SP= 0.00E+00 SK= 0.00E+00
       N       E                     dE             d eps       ncg     rms          rms(c)
RMM:   1    -0.413170529714E+03   -0.12765E-02   -0.10444E+01  4299   0.775E-01    0.887E-01
RMM:   2    -0.413172416000E+03   -0.18863E-02   -0.14195E-01  4273   0.101E-01    0.651E-01
RMM:   3    -0.413170005270E+03    0.24107E-02   -0.89625E-03  4796   0.412E-02    0.146E-01
RMM:   4    -0.413195621726E+03   -0.25616E-01   -0.26434E-02  5144   0.135E-01    0.668E-01
RMM:   5    -0.413169563766E+03    0.26058E-01   -0.12858E-02  4809   0.111E-01    0.417E-02
RMM:   6    -0.413169716090E+03   -0.15232E-03   -0.21089E-03  5809   0.439E-02    0.259E-02
RMM:   7    -0.413169722427E+03   -0.63367E-05   -0.29153E-04  5752   0.158E-02    0.163E-02
RMM:   8    -0.413169718812E+03    0.36147E-05   -0.60087E-05  4993   0.794E-03    0.855E-03
RMM:   9    -0.413169716006E+03    0.28064E-05   -0.12352E-05  3958   0.403E-03    0.639E-03
RMM:  10    -0.413169716336E+03   -0.32999E-06   -0.15492E-06  2543   0.199E-03
   18 T=    62. E= -.41286645E+03 F= -.41316972E+03 E0= -.41314760E+03  EK= 0.30326E+00 SP= 0.00E+00 SK= 0.00E+00
       N       E                     dE             d eps       ncg     rms          rms(c)
RMM:   1    -0.413165304267E+03    0.44117E-02   -0.10407E+01  4298   0.737E-01    0.912E-01
RMM:   2    -0.413173089808E+03   -0.77855E-02   -0.12595E-01  4310   0.999E-02    0.645E-01
RMM:   3    -0.413173710947E+03   -0.62114E-03   -0.11643E-02  5079   0.638E-02    0.254E-01
RMM:   4    -0.413207141836E+03   -0.33431E-01   -0.46033E-02  5101   0.180E-01    0.785E-01
RMM:   5    -0.413170860427E+03    0.36281E-01   -0.15954E-02  4747   0.130E-01    0.556E-02
RMM:   6    -0.413170977159E+03   -0.11673E-03   -0.26851E-03  5631   0.515E-02    0.281E-02
RMM:   7    -0.413170985172E+03   -0.80134E-05   -0.38945E-04  5986   0.169E-02    0.180E-02
RMM:   8    -0.413170978574E+03    0.65982E-05   -0.66700E-05  5212   0.855E-03    0.816E-03
RMM:   9    -0.413170971319E+03    0.72549E-05   -0.11587E-05  3647   0.388E-03    0.401E-03
RMM:  10    -0.413170968427E+03    0.28918E-05   -0.24947E-06  2602   0.222E-03    0.282E-03
RMM:  11    -0.413170964754E+03    0.36738E-05   -0.11133E-06  2507   0.169E-03    0.145E-03
RMM:  12    -0.413170960702E+03    0.40511E-05   -0.69793E-07  2450   0.136E-03    0.436E-04
RMM:  13    -0.413170958768E+03    0.19348E-05   -0.34279E-07  2023   0.973E-04    0.281E-04
RMM:  14    -0.413170957393E+03    0.13745E-05   -0.19281E-07  1535   0.775E-04    0.193E-04
RMM:  15    -0.413170954962E+03    0.24309E-05   -0.15647E-07  1341   0.721E-04    0.911E-05
RMM:  16    -0.413170952593E+03    0.23695E-05   -0.12896E-07  1340   0.690E-04    0.106E-04
RMM:  17    -0.413170950422E+03    0.21702E-05   -0.10527E-07  1317   0.648E-04    0.650E-05
RMM:  18    -0.413170948426E+03    0.19965E-05   -0.78598E-08  1119   0.598E-04    0.291E-05
RMM:  19    -0.413170947821E+03    0.60526E-06   -0.36312E-08   853   0.541E-04
   19 T=    62. E= -.41286680E+03 F= -.41317095E+03 E0= -.41314887E+03  EK= 0.30414E+00 SP= 0.00E+00 SK= 0.00E+00
       N       E                     dE             d eps       ncg     rms          rms(c)
RMM:   1    -0.413165733092E+03    0.52153E-02   -0.10347E+01  4298   0.745E-01    0.901E-01
RMM:   2    -0.413173383354E+03   -0.76503E-02   -0.12536E-01  4272   0.973E-02    0.639E-01
RMM:   3    -0.413171901807E+03    0.14815E-02   -0.97012E-03  4936   0.452E-02    0.157E-01
RMM:   4    -0.413208769165E+03   -0.36867E-01   -0.39227E-02  5137   0.164E-01    0.799E-01
RMM:   5    -0.413171109340E+03    0.37660E-01   -0.18349E-02  4793   0.134E-01    0.488E-02
RMM:   6    -0.413171314472E+03   -0.20513E-03   -0.30473E-03  5759   0.536E-02    0.304E-02
RMM:   7    -0.413171314286E+03    0.18665E-06   -0.43026E-04  5776   0.184E-02    0.197E-02
RMM:   8    -0.413171305699E+03    0.85870E-05   -0.71053E-05  5175   0.862E-03    0.980E-03
RMM:   9    -0.413171298794E+03    0.69045E-05   -0.14920E-05  4114   0.431E-03    0.673E-03
RMM:  10    -0.413171295071E+03    0.37229E-05   -0.21339E-06  2591   0.214E-03    0.439E-03
RMM:  11    -0.413171291513E+03    0.35583E-05   -0.13152E-06  2510   0.182E-03    0.224E-03
RMM:  12    -0.413171286596E+03    0.49167E-05   -0.13997E-06  2525   0.184E-03    0.776E-04
RMM:  13    -0.413171285269E+03    0.13269E-05   -0.44814E-07  2294   0.119E-03    0.548E-04
RMM:  14    -0.413171285301E+03   -0.31840E-07   -0.21088E-07  1788   0.814E-04
   20 T=    62. E= -.41286644E+03 F= -.41317129E+03 E0= -.41314925E+03  EK= 0.30484E+00 SP= 0.00E+00 SK= 0.00E+00
       N       E                     dE             d eps       ncg     rms          rms(c)
RMM:   1    -0.413166470469E+03    0.48148E-02   -0.10394E+01  4296   0.757E-01    0.889E-01
RMM:   2    -0.413175112551E+03   -0.86421E-02   -0.12865E-01  4283   0.982E-02    0.649E-01
RMM:   3    -0.413172753997E+03    0.23586E-02   -0.96977E-03  4850   0.431E-02    0.133E-01
RMM:   4    -0.413201511044E+03   -0.28757E-01   -0.29907E-02  5132   0.143E-01    0.707E-01
RMM:   5    -0.413172242184E+03    0.29269E-01   -0.14426E-02  4800   0.118E-01    0.436E-02
RMM:   6    -0.413172410176E+03   -0.16799E-03   -0.23701E-03  5789   0.470E-02    0.273E-02
RMM:   7    -0.413172415865E+03   -0.56889E-05   -0.33820E-04  5745   0.167E-02    0.174E-02
RMM:   8    -0.413172411158E+03    0.47073E-05   -0.62782E-05  5022   0.811E-03    0.896E-03
RMM:   9    -0.413172407375E+03    0.37824E-05   -0.12761E-05  3958   0.408E-03    0.653E-03
RMM:  10    -0.413172406762E+03    0.61376E-06   -0.17190E-06  2558   0.202E-03
   21 T=    62. E= -.41286659E+03 F= -.41317241E+03 E0= -.41315042E+03  EK= 0.30582E+00 SP= 0.00E+00 SK= 0.00E+00
       N       E                     dE             d eps       ncg     rms          rms(c)
RMM:   1    -0.413167887571E+03    0.45198E-02   -0.10449E+01  4300   0.754E-01    0.910E-01
RMM:   2    -0.413175920569E+03   -0.80330E-02   -0.12745E-01  4313   0.978E-02    0.649E-01
RMM:   3    -0.413176478652E+03   -0.55808E-03   -0.11901E-02  5087   0.651E-02    0.260E-01
RMM:   4    -0.413209977630E+03   -0.33499E-01   -0.47087E-02  5105   0.182E-01    0.787E-01
RMM:   5    -0.413173383672E+03    0.36594E-01   -0.15982E-02  4747   0.131E-01    0.559E-02
RMM:   6    -0.413173499605E+03   -0.11593E-03   -0.27285E-03  5629   0.518E-02    0.281E-02
RMM:   7    -0.413173507540E+03   -0.79350E-05   -0.39871E-04  5988   0.171E-02    0.183E-02
RMM:   8    -0.413173501272E+03    0.62674E-05   -0.69001E-05  5205   0.872E-03    0.832E-03
RMM:   9    -0.413173493992E+03    0.72806E-05   -0.11795E-05  3659   0.395E-03    0.405E-03
RMM:  10    -0.413173491245E+03    0.27464E-05   -0.25057E-06  2607   0.223E-03    0.283E-03
RMM:  11    -0.413173487528E+03    0.37168E-05   -0.11405E-06  2503   0.171E-03    0.144E-03
RMM:  12    -0.413173483567E+03    0.39617E-05   -0.69255E-07  2445   0.136E-03    0.423E-04
RMM:  13    -0.413173481631E+03    0.19354E-05   -0.33847E-07  2024   0.975E-04    0.276E-04
RMM:  14    -0.413173480261E+03    0.13707E-05   -0.19100E-07  1537   0.775E-04    0.189E-04
RMM:  15    -0.413173477662E+03    0.25983E-05   -0.15128E-07  1322   0.720E-04    0.927E-05
RMM:  16    -0.413173475348E+03    0.23149E-05   -0.12055E-07  1349   0.688E-04    0.108E-04
RMM:  17    -0.413173473106E+03    0.22416E-05   -0.96615E-08  1295   0.646E-04    0.648E-05
RMM:  18    -0.413173470915E+03    0.21908E-05   -0.74224E-08  1151   0.601E-04    0.307E-05
RMM:  19    -0.413173470239E+03    0.67640E-06   -0.33884E-08   844   0.540E-04
   22 T=    62. E= -.41286668E+03 F= -.41317347E+03 E0= -.41315153E+03  EK= 0.30679E+00 SP= 0.00E+00 SK= 0.00E+00
       N       E                     dE             d eps       ncg     rms          rms(c)
RMM:   1    -0.413168539897E+03    0.49310E-02   -0.10420E+01  4296   0.753E-01    0.911E-01
RMM:   2    -0.413176474352E+03   -0.79345E-02   -0.12651E-01  4283   0.999E-02    0.642E-01
RMM:   3    -0.413174687076E+03    0.17873E-02   -0.99152E-03  4874   0.469E-02    0.153E-01
RMM:   4    -0.413209398041E+03   -0.34711E-01   -0.36537E-02  5137   0.158E-01    0.775E-01
RMM:   5    -0.413174009854E+03    0.35388E-01   -0.17360E-02  4790   0.130E-01    0.480E-02
RMM:   6    -0.413174206323E+03   -0.19647E-03   -0.29527E-03  5778   0.520E-02    0.305E-02
RMM:   7    -0.413174205012E+03    0.13111E-05   -0.40373E-04  5738   0.183E-02    0.194E-02
RMM:   8    -0.413174195122E+03    0.98905E-05   -0.72937E-05  5137   0.873E-03    0.102E-02
RMM:   9    -0.413174186868E+03    0.82538E-05   -0.14928E-05  4149   0.438E-03    0.720E-03
RMM:  10    -0.413174181875E+03    0.49933E-05   -0.20819E-06  2580   0.217E-03    0.466E-03
RMM:  11    -0.413174176905E+03    0.49697E-05   -0.15019E-06  2523   0.193E-03    0.236E-03
RMM:  12    -0.413174170265E+03    0.66402E-05   -0.14870E-06  2520   0.191E-03    0.826E-04
RMM:  13    -0.413174168698E+03    0.15667E-05   -0.47952E-07  2305   0.123E-03    0.582E-04
RMM:  14    -0.413174168547E+03    0.15118E-06   -0.22516E-07  1832   0.838E-04
   23 T=    63. E= -.41286650E+03 F= -.41317417E+03 E0= -.41315227E+03  EK= 0.30767E+00 SP= 0.00E+00 SK= 0.00E+00
       N       E                     dE             d eps       ncg     rms          rms(c)
RMM:   1    -0.413174764690E+03   -0.59599E-03   -0.10471E+01  4292   0.812E-01    0.890E-01
RMM:   2    -0.413178623203E+03   -0.38585E-02   -0.13979E-01  4281   0.107E-01    0.650E-01
RMM:   3    -0.413175929066E+03    0.26941E-02   -0.91511E-03  4687   0.426E-02    0.139E-01
RMM:   4    -0.413195545838E+03   -0.19617E-01   -0.20193E-02  5144   0.118E-01    0.586E-01
RMM:   5    -0.413175655555E+03    0.19890E-01   -0.99461E-03  4812   0.974E-02    0.398E-02
RMM:   6    -0.413175757239E+03   -0.10168E-03   -0.16416E-03  5818   0.382E-02    0.244E-02
RMM:   7    -0.413175757848E+03   -0.60895E-06   -0.22094E-04  5702   0.143E-02    0.135E-02
RMM:   8    -0.413175754114E+03    0.37337E-05   -0.50731E-05  4945   0.730E-03    0.831E-03
RMM:   9    -0.413175749596E+03    0.45177E-05   -0.10249E-05  3799   0.377E-03    0.621E-03
RMM:  10    -0.413175748144E+03    0.14519E-05   -0.13259E-06  2528   0.195E-03    0.400E-03
RMM:  11    -0.413175745709E+03    0.24352E-05   -0.15890E-06  2528   0.203E-03    0.184E-03
RMM:  12    -0.413175743279E+03    0.24303E-05   -0.91703E-07  2439   0.154E-03    0.656E-04
RMM:  13    -0.413175742840E+03    0.43917E-06   -0.32270E-07  2056   0.975E-04
   24 T=    63. E= -.41286682E+03 F= -.41317574E+03 E0= -.41315390E+03  EK= 0.30893E+00 SP= 0.00E+00 SK= 0.00E+00
       N       E                     dE             d eps       ncg     rms          rms(c)
RMM:   1    -0.413177194506E+03   -0.14512E-02   -0.10567E+01  4298   0.818E-01    0.907E-01
RMM:   2    -0.413179464793E+03   -0.22703E-02   -0.13418E-01  4279   0.107E-01    0.655E-01
RMM:   3    -0.413176886950E+03    0.25778E-02   -0.96502E-03  4664   0.443E-02    0.133E-01
RMM:   4    -0.413194869718E+03   -0.17983E-01   -0.18480E-02  5140   0.113E-01    0.562E-01
RMM:   5    -0.413176621798E+03    0.18248E-01   -0.90955E-03  4814   0.932E-02    0.395E-02
RMM:   6    -0.413176707610E+03   -0.85812E-04   -0.15384E-03  5812   0.364E-02    0.236E-02
RMM:   7    -0.413176707153E+03    0.45709E-06   -0.17665E-04  5596   0.129E-02    0.109E-02
RMM:   8    -0.413176700329E+03    0.68241E-05   -0.29659E-05  4690   0.560E-03    0.716E-03
RMM:   9    -0.413176699341E+03    0.98758E-06   -0.73072E-06  3310   0.305E-03
   25 T=    63. E= -.41286659E+03 F= -.41317670E+03 E0= -.41315490E+03  EK= 0.31011E+00 SP= 0.00E+00 SK= 0.00E+00
       N       E                     dE             d eps       ncg     rms          rms(c)
RMM:   1    -0.413172599965E+03    0.41004E-02   -0.10516E+01  4292   0.771E-01    0.921E-01
RMM:   2    -0.413180242175E+03   -0.76422E-02   -0.12791E-01  4353   0.103E-01    0.648E-01
RMM:   3    -0.413186268112E+03   -0.60259E-02   -0.16541E-02  5126   0.935E-02    0.404E-01
RMM:   4    -0.413196642520E+03   -0.10374E-01   -0.36259E-02  5048   0.164E-01    0.567E-01
RMM:   5    -0.413178103502E+03    0.18539E-01   -0.64752E-03  4620   0.943E-02    0.537E-02
RMM:   6    -0.413178080331E+03    0.23171E-04   -0.13866E-03  5444   0.358E-02    0.283E-02
RMM:   7    -0.413178074589E+03    0.57423E-05   -0.24951E-04  5899   0.152E-02    0.171E-02
RMM:   8    -0.413178063153E+03    0.11436E-04   -0.54478E-05  5093   0.830E-03    0.697E-03
RMM:   9    -0.413178052935E+03    0.10218E-04   -0.77358E-06  3387   0.367E-03    0.349E-03
RMM:  10    -0.413178049136E+03    0.37987E-05   -0.12696E-06  2513   0.195E-03    0.215E-03
RMM:  11    -0.413178041035E+03    0.81014E-05   -0.10856E-06  2496   0.169E-03    0.136E-03
RMM:  12    -0.413178036016E+03    0.50182E-05   -0.48333E-07  2397   0.121E-03    0.466E-04
RMM:  13    -0.413178031744E+03    0.42726E-05   -0.24919E-07  1789   0.855E-04    0.257E-04
RMM:  14    -0.413178028315E+03    0.34290E-05   -0.14226E-07  1338   0.710E-04    0.159E-04
RMM:  15    -0.413178023456E+03    0.48591E-05   -0.13097E-07  1337   0.696E-04    0.111E-04
RMM:  16    -0.413178019146E+03    0.43095E-05   -0.11156E-07  1356   0.664E-04    0.109E-04
RMM:  17    -0.413178014628E+03    0.45181E-05   -0.10863E-07  1352   0.643E-04    0.499E-05
RMM:  18    -0.413178013447E+03    0.11814E-05   -0.42923E-08   869   0.534E-04    0.423E-05
RMM:  19    -0.413178012889E+03    0.55775E-06   -0.24038E-08   746   0.510E-04
   26 T=    63. E= -.41286653E+03 F= -.41317801E+03 E0= -.41315626E+03  EK= 0.31148E+00 SP= 0.00E+00 SK= 0.00E+00
       N       E                     dE             d eps       ncg     rms          rms(c)
RMM:   1    -0.413174009123E+03    0.40043E-02   -0.10479E+01  4289   0.792E-01    0.897E-01
RMM:   2    -0.413182294437E+03   -0.82853E-02   -0.12939E-01  4278   0.105E-01    0.650E-01
RMM:   3    -0.413180105914E+03    0.21885E-02   -0.98660E-03  4757   0.464E-02    0.135E-01
RMM:   4    -0.413205715591E+03   -0.25610E-01   -0.26320E-02  5145   0.135E-01    0.668E-01
RMM:   5    -0.413179709017E+03    0.26007E-01   -0.13042E-02  4813   0.111E-01    0.426E-02
RMM:   6    -0.413179833241E+03   -0.12422E-03   -0.20762E-03  5819   0.434E-02    0.265E-02
RMM:   7    -0.413179835116E+03   -0.18752E-05   -0.26859E-04  5724   0.157E-02    0.149E-02
RMM:   8    -0.413179830910E+03    0.42053E-05   -0.60187E-05  5014   0.779E-03    0.924E-03
RMM:   9    -0.413179824935E+03    0.59752E-05   -0.12434E-05  4017   0.408E-03    0.662E-03
RMM:  10    -0.413179822549E+03    0.23858E-05   -0.16202E-06  2550   0.206E-03    0.425E-03
RMM:  11    -0.413179819434E+03    0.31155E-05   -0.15759E-06  2528   0.200E-03    0.201E-03
RMM:  12    -0.413179815836E+03    0.35983E-05   -0.11148E-06  2479   0.169E-03    0.705E-04
RMM:  13    -0.413179815128E+03    0.70821E-06   -0.37301E-07  2173   0.107E-03
   27 T=    64. E= -.41286677E+03 F= -.41317982E+03 E0= -.41315812E+03  EK= 0.31305E+00 SP= 0.00E+00 SK= 0.00E+00
       N       E                     dE             d eps       ncg     rms          rms(c)
RMM:   1    -0.413182264726E+03   -0.24489E-02   -0.10661E+01  4292   0.846E-01    0.906E-01
RMM:   2    -0.413183623798E+03   -0.13591E-02   -0.13943E-01  4274   0.111E-01    0.661E-01
RMM:   3    -0.413181062148E+03    0.25616E-02   -0.97486E-03  4505   0.442E-02    0.130E-01
RMM:   4    -0.413191154687E+03   -0.10093E-01   -0.10586E-02  5147   0.868E-02    0.423E-01
RMM:   5    -0.413180951511E+03    0.10203E-01   -0.51518E-03  4829   0.694E-02    0.361E-02
RMM:   6    -0.413180979277E+03   -0.27766E-04   -0.87020E-04  5840   0.275E-02    0.217E-02
RMM:   7    -0.413180983803E+03   -0.45257E-05   -0.19275E-04  5489   0.137E-02    0.147E-02
RMM:   8    -0.413180968342E+03    0.15461E-04   -0.26922E-05  4551   0.616E-03    0.617E-03
RMM:   9    -0.413180966872E+03    0.14708E-05   -0.54994E-06  3085   0.290E-03    0.475E-03
RMM:  10    -0.413180964670E+03    0.22014E-05   -0.12317E-06  2495   0.192E-03    0.274E-03
RMM:  11    -0.413180961942E+03    0.27284E-05   -0.85357E-07  2471   0.155E-03    0.135E-03
RMM:  12    -0.413180959140E+03    0.28017E-05   -0.51346E-07  2305   0.118E-03    0.577E-04
RMM:  13    -0.413180958157E+03    0.98351E-06   -0.21767E-07  1791   0.822E-04
   28 T=    64. E= -.41286646E+03 F= -.41318096E+03 E0= -.41315931E+03  EK= 0.31450E+00 SP= 0.00E+00 SK= 0.00E+00
       N       E                     dE             d eps       ncg     rms          rms(c)
RMM:   1    -0.413177678013E+03    0.32811E-02   -0.10627E+01  4292   0.794E-01    0.929E-01
RMM:   2    -0.413185181542E+03   -0.75035E-02   -0.13020E-01  4276   0.106E-01    0.654E-01
RMM:   3    -0.413183044135E+03    0.21374E-02   -0.10300E-02  4464   0.472E-02    0.131E-01
RMM:   4    -0.413191582797E+03   -0.85387E-02   -0.89761E-03  5149   0.793E-02    0.390E-01
RMM:   5    -0.413182980597E+03    0.86022E-02   -0.44123E-03  4836   0.641E-02    0.373E-02
RMM:   6    -0.413182997721E+03   -0.17124E-04   -0.78869E-04  5809   0.264E-02    0.234E-02
RMM:   7    -0.413182990252E+03    0.74690E-05   -0.20907E-04  5391   0.144E-02    0.150E-02
RMM:   8    -0.413182974069E+03    0.16183E-04   -0.21460E-05  4387   0.584E-03    0.637E-03
RMM:   9    -0.413182970334E+03    0.37351E-05   -0.43246E-06  2924   0.262E-03    0.460E-03
RMM:  10    -0.413182964375E+03    0.59592E-05   -0.13290E-06  2494   0.194E-03    0.251E-03
RMM:  11    -0.413182957694E+03    0.66806E-05   -0.84663E-07  2465   0.157E-03    0.121E-03
RMM:  12    -0.413182952196E+03    0.54977E-05   -0.45406E-07  2260   0.116E-03    0.574E-04
RMM:  13    -0.413182949841E+03    0.23552E-05   -0.21934E-07  1811   0.828E-04    0.270E-04
RMM:  14    -0.413182946513E+03    0.33283E-05   -0.13027E-07  1394   0.703E-04    0.170E-04
RMM:  15    -0.413182941609E+03    0.49033E-05   -0.10717E-07  1342   0.681E-04    0.970E-05
RMM:  16    -0.413182939700E+03    0.19091E-05   -0.54117E-08  1008   0.601E-04    0.790E-05
RMM:  17    -0.413182935652E+03    0.40484E-05   -0.70804E-08  1241   0.628E-04    0.455E-05
RMM:  18    -0.413182933402E+03    0.22499E-05   -0.42134E-08  1006   0.565E-04    0.222E-05
RMM:  19    -0.413182933039E+03    0.36337E-06   -0.13935E-08   695   0.511E-04
   29 T=    64. E= -.41286665E+03 F= -.41318293E+03 E0= -.41316133E+03  EK= 0.31629E+00 SP= 0.00E+00 SK= 0.00E+00
       N       E                     dE             d eps       ncg     rms          rms(c)
RMM:   1    -0.413179057222E+03    0.38762E-02   -0.10574E+01  4286   0.803E-01    0.907E-01
RMM:   2    -0.413187522684E+03   -0.84655E-02   -0.13143E-01  4273   0.112E-01    0.653E-01
RMM:   3    -0.413184974225E+03    0.25485E-02   -0.10099E-02  4430   0.492E-02    0.125E-01
RMM:   4    -0.413192619937E+03   -0.76457E-02   -0.81392E-03  5153   0.760E-02    0.370E-01
RMM:   5    -0.413184889833E+03    0.77301E-02   -0.39526E-03  4830   0.607E-02    0.363E-02
RMM:   6    -0.413184908020E+03   -0.18187E-04   -0.71707E-04  5805   0.253E-02    0.234E-02
RMM:   7    -0.413184902502E+03    0.55172E-05   -0.20787E-04  5370   0.142E-02    0.148E-02
RMM:   8    -0.413184888528E+03    0.13974E-04   -0.19911E-05  4330   0.568E-03    0.625E-03
RMM:   9    -0.413184886264E+03    0.22640E-05   -0.36932E-06  2833   0.250E-03    0.435E-03
RMM:  10    -0.413184882536E+03    0.37283E-05   -0.12816E-06  2490   0.185E-03    0.236E-03
RMM:  11    -0.413184878611E+03    0.39246E-05   -0.79662E-07  2454   0.150E-03    0.113E-03
RMM:  12    -0.413184875376E+03    0.32353E-05   -0.42821E-07  2215   0.111E-03    0.537E-04
RMM:  13    -0.413184873796E+03    0.15800E-05   -0.20644E-07  1696   0.803E-04    0.247E-04
RMM:  14    -0.413184871660E+03    0.21355E-05   -0.12127E-07  1281   0.694E-04    0.148E-04
RMM:  15    -0.413184868693E+03    0.29667E-05   -0.92579E-08  1198   0.665E-04    0.737E-05
RMM:  16    -0.413184867477E+03    0.12166E-05   -0.50226E-08   955   0.604E-04    0.597E-05
RMM:  17    -0.413184864965E+03    0.25115E-05   -0.58134E-08  1104   0.614E-04    0.363E-05
RMM:  18    -0.413184863247E+03    0.17185E-05   -0.39808E-08   987   0.575E-04    0.277E-05
RMM:  19    -0.413184862723E+03    0.52428E-06   -0.16987E-08   701   0.528E-04
   30 T=    65. E= -.41286679E+03 F= -.41318486E+03 E0= -.41316331E+03  EK= 0.31808E+00 SP= 0.00E+00 SK= 0.00E+00
       N       E                     dE             d eps       ncg     rms          rms(c)
RMM:   1    -0.413185380399E+03   -0.51715E-03   -0.10740E+01  4290   0.866E-01    0.908E-01
RMM:   2    -0.413189879543E+03   -0.44991E-02   -0.14457E-01  4276   0.122E-01    0.667E-01
RMM:   3    -0.413186509868E+03    0.33697E-02   -0.10046E-02  4369   0.518E-02    0.130E-01
RMM:   4    -0.413191503774E+03   -0.49939E-02   -0.56428E-03  5149   0.637E-02    0.297E-01
RMM:   5    -0.413186536292E+03    0.49675E-02   -0.25086E-03  4822   0.489E-02    0.347E-02
RMM:   6    -0.413186547145E+03   -0.10853E-04   -0.50894E-04  5759   0.217E-02    0.232E-02
RMM:   7    -0.413186540263E+03    0.68817E-05   -0.19017E-04  5249   0.136E-02    0.138E-02
RMM:   8    -0.413186530346E+03    0.99177E-05   -0.14859E-05  4063   0.510E-03    0.589E-03
RMM:   9    -0.413186529213E+03    0.11325E-05   -0.24356E-06  2644   0.216E-03    0.373E-03
RMM:  10    -0.413186527013E+03    0.21999E-05   -0.11498E-06  2479   0.171E-03    0.192E-03
RMM:  11    -0.413186525148E+03    0.18648E-05   -0.64502E-07  2392   0.131E-03    0.911E-04
RMM:  12    -0.413186523355E+03    0.17930E-05   -0.34966E-07  2061   0.986E-04    0.406E-04
RMM:  13    -0.413186522155E+03    0.12006E-05   -0.17331E-07  1449   0.749E-04    0.223E-04
RMM:  14    -0.413186520701E+03    0.14533E-05   -0.10884E-07  1163   0.672E-04    0.148E-04
RMM:  15    -0.413186518382E+03    0.23200E-05   -0.95694E-08  1177   0.663E-04    0.709E-05
RMM:  16    -0.413186517584E+03    0.79766E-06   -0.46783E-08   917   0.593E-04
   31 T=    65. E= -.41286663E+03 F= -.41318652E+03 E0= -.41316502E+03  EK= 0.31988E+00 SP= 0.00E+00 SK= 0.00E+00
       N       E                     dE             d eps       ncg     rms          rms(c)
RMM:   1    -0.413183935756E+03    0.25826E-02   -0.10751E+01  4292   0.832E-01    0.934E-01
RMM:   2    -0.413191810493E+03   -0.78747E-02   -0.13416E-01  4286   0.123E-01    0.662E-01
RMM:   3    -0.413189185074E+03    0.26254E-02   -0.10616E-02  4338   0.539E-02    0.129E-01
RMM:   4    -0.413192486684E+03   -0.33016E-02   -0.39612E-03  5150   0.533E-02    0.242E-01
RMM:   5    -0.413189213553E+03    0.32731E-02   -0.16755E-03  4827   0.402E-02    0.363E-02
RMM:   6    -0.413189221156E+03   -0.76032E-05   -0.43573E-04  5650   0.206E-02    0.259E-02
RMM:   7    -0.413189195333E+03    0.25824E-04   -0.19243E-04  5128   0.138E-02    0.137E-02
RMM:   8    -0.413189187581E+03    0.77516E-05   -0.14565E-05  3977   0.484E-03    0.566E-03
RMM:   9    -0.413189185139E+03    0.24419E-05   -0.20160E-06  2550   0.205E-03    0.345E-03
RMM:  10    -0.413189178298E+03    0.68411E-05   -0.95202E-07  2473   0.160E-03    0.173E-03
RMM:  11    -0.413189173649E+03    0.46493E-05   -0.50856E-07  2291   0.115E-03    0.817E-04
RMM:  12    -0.413189168634E+03    0.50150E-05   -0.30093E-07  1993   0.930E-04    0.311E-04
RMM:  13    -0.413189165622E+03    0.30113E-05   -0.15187E-07  1399   0.725E-04    0.192E-04
RMM:  14    -0.413189161899E+03    0.37239E-05   -0.92617E-08  1142   0.661E-04    0.140E-04
RMM:  15    -0.413189157176E+03    0.47227E-05   -0.87375E-08  1233   0.658E-04    0.785E-05
RMM:  16    -0.413189155369E+03    0.18067E-05   -0.48141E-08   973   0.588E-04    0.662E-05
RMM:  17    -0.413189151649E+03    0.37206E-05   -0.60136E-08  1198   0.605E-04    0.318E-05
RMM:  18    -0.413189150600E+03    0.10484E-05   -0.25963E-08   804   0.521E-04    0.208E-05
RMM:  19    -0.413189150242E+03    0.35793E-06   -0.12823E-08   641   0.497E-04
   32 T=    66. E= -.41286700E+03 F= -.41318915E+03 E0= -.41316770E+03  EK= 0.32215E+00 SP= 0.00E+00 SK= 0.00E+00
       N       E                     dE             d eps       ncg     rms          rms(c)
RMM:   1    -0.413185662780E+03    0.34878E-02   -0.10716E+01  4290   0.846E-01    0.921E-01
RMM:   2    -0.413193829304E+03   -0.81665E-02   -0.13511E-01  4286   0.127E-01    0.658E-01
RMM:   3    -0.413191018557E+03    0.28107E-02   -0.10315E-02  4236   0.495E-02    0.128E-01
RMM:   4    -0.413191433667E+03   -0.41511E-03   -0.12618E-03  4993   0.279E-02    0.812E-02
RMM:   5    -0.413191130160E+03    0.30351E-03   -0.21704E-04  4734   0.150E-02    0.368E-02
RMM:   6    -0.413191124159E+03    0.60011E-05   -0.22345E-04  5310   0.151E-02    0.258E-02
RMM:   7    -0.413191096046E+03    0.28113E-04   -0.16307E-04  4811   0.120E-02    0.145E-02
RMM:   8    -0.413191091589E+03    0.44578E-05   -0.13755E-05  3725   0.432E-03    0.515E-03
RMM:   9    -0.413191090276E+03    0.13123E-05   -0.25526E-06  2360   0.198E-03    0.213E-03
RMM:  10    -0.413191082832E+03    0.74443E-05   -0.85372E-07  2274   0.139E-03    0.783E-04
RMM:  11    -0.413191079098E+03    0.37340E-05   -0.27703E-07  1803   0.875E-04    0.338E-04
RMM:  12    -0.413191075244E+03    0.38537E-05   -0.16166E-07  1448   0.742E-04    0.192E-04
RMM:  13    -0.413191071841E+03    0.34027E-05   -0.89007E-08  1069   0.643E-04    0.116E-04
RMM:  14    -0.413191067380E+03    0.44611E-05   -0.66156E-08   933   0.622E-04    0.982E-05
RMM:  15    -0.413191063247E+03    0.41333E-05   -0.60199E-08  1028   0.614E-04    0.517E-05
RMM:  16    -0.413191060978E+03    0.22695E-05   -0.35784E-08   805   0.553E-04    0.357E-05
RMM:  17    -0.413191059697E+03    0.12809E-05   -0.16157E-08   575   0.513E-04    0.219E-05
RMM:  18    -0.413191059165E+03    0.53133E-06   -0.10037E-08   503   0.502E-04
   33 T=    66. E= -.41286677E+03 F= -.41319106E+03 E0= -.41316966E+03  EK= 0.32429E+00 SP= 0.00E+00 SK= 0.00E+00
       N       E                     dE             d eps       ncg     rms          rms(c)
RMM:   1    -0.413194644345E+03   -0.35846E-02   -0.10887E+01  4297   0.933E-01    0.913E-01
RMM:   2    -0.413196455297E+03   -0.18110E-02   -0.14964E-01  4282   0.135E-01    0.672E-01
RMM:   3    -0.413193495064E+03    0.29602E-02   -0.10197E-02  4230   0.557E-02    0.132E-01
RMM:   4    -0.413193937994E+03   -0.44293E-03   -0.14291E-03  4998   0.292E-02    0.886E-02
RMM:   5    -0.413193558158E+03    0.37984E-03   -0.24367E-04  4726   0.159E-02    0.354E-02
RMM:   6    -0.413193556678E+03    0.14798E-05   -0.21791E-04  5352   0.149E-02    0.245E-02
RMM:   7    -0.413193536284E+03    0.20394E-04   -0.16352E-04  4832   0.121E-02    0.151E-02
RMM:   8    -0.413193531687E+03    0.45964E-05   -0.13633E-05  3590   0.424E-03    0.519E-03
RMM:   9    -0.413193531187E+03    0.50082E-06   -0.24001E-06  2398   0.197E-03
   34 T=    67. E= -.41286676E+03 F= -.41319353E+03 E0= -.41317218E+03  EK= 0.32677E+00 SP= 0.00E+00 SK= 0.00E+00
       N       E                     dE             d eps       ncg     rms          rms(c)
RMM:   1    -0.413191634124E+03    0.18976E-02   -0.10913E+01  4302   0.887E-01    0.939E-01
RMM:   2    -0.413198973143E+03   -0.73390E-02   -0.14006E-01  4272   0.130E-01    0.672E-01
RMM:   3    -0.413196277485E+03    0.26957E-02   -0.10648E-02  4336   0.549E-02    0.130E-01
RMM:   4    -0.413197626818E+03   -0.13493E-02   -0.22578E-03  5148   0.385E-02    0.155E-01
RMM:   5    -0.413196334177E+03    0.12926E-02   -0.69453E-04  4802   0.265E-02    0.377E-02
RMM:   6    -0.413196323192E+03    0.10986E-04   -0.27661E-04  5492   0.169E-02    0.280E-02
RMM:   7    -0.413196298853E+03    0.24338E-04   -0.18997E-04  4925   0.122E-02    0.156E-02
RMM:   8    -0.413196292171E+03    0.66824E-05   -0.15519E-05  4028   0.468E-03    0.609E-03
RMM:   9    -0.413196290443E+03    0.17278E-05   -0.29601E-06  2486   0.195E-03    0.265E-03
RMM:  10    -0.413196281422E+03    0.90211E-05   -0.92578E-07  2415   0.148E-03    0.114E-03
RMM:  11    -0.413196276519E+03    0.49030E-05   -0.36786E-07  1971   0.973E-04    0.423E-04
RMM:  12    -0.413196271850E+03    0.46685E-05   -0.20734E-07  1617   0.801E-04    0.231E-04
RMM:  13    -0.413196267691E+03    0.41590E-05   -0.11526E-07  1166   0.679E-04    0.158E-04
RMM:  14    -0.413196260741E+03    0.69509E-05   -0.11630E-07  1264   0.684E-04    0.123E-04
RMM:  15    -0.413196254959E+03    0.57814E-05   -0.93915E-08  1282   0.645E-04    0.889E-05
RMM:  16    -0.413196252733E+03    0.22257E-05   -0.44938E-08   826   0.540E-04    0.513E-05
RMM:  17    -0.413196250879E+03    0.18542E-05   -0.30434E-08   716   0.528E-04    0.259E-05
RMM:  18    -0.413196250257E+03    0.62196E-06   -0.18233E-08   596   0.505E-04
   35 T=    67. E= -.41286690E+03 F= -.41319625E+03 E0= -.41317494E+03  EK= 0.32935E+00 SP= 0.00E+00 SK= 0.00E+00
       N       E                     dE             d eps       ncg     rms          rms(c)
RMM:   1    -0.413193532918E+03    0.27180E-02   -0.10905E+01  4299   0.910E-01    0.938E-01
RMM:   2    -0.413200757117E+03   -0.72242E-02   -0.14017E-01  4263   0.130E-01    0.666E-01
RMM:   3    -0.413198456396E+03    0.23007E-02   -0.10786E-02  4596   0.568E-02    0.146E-01
RMM:   4    -0.413217717941E+03   -0.19262E-01   -0.19525E-02  5168   0.118E-01    0.582E-01
RMM:   5    -0.413198305780E+03    0.19412E-01   -0.98572E-03  4806   0.968E-02    0.433E-02
RMM:   6    -0.413198314865E+03   -0.90846E-05   -0.16709E-03  5842   0.389E-02    0.281E-02
RMM:   7    -0.413198320098E+03   -0.52328E-05   -0.29156E-04  5571   0.163E-02    0.171E-02
RMM:   8    -0.413198303376E+03    0.16721E-04   -0.50306E-05  4957   0.778E-03    0.832E-03
RMM:   9    -0.413198300037E+03    0.33391E-05   -0.99080E-06  3691   0.385E-03    0.586E-03
RMM:  10    -0.413198293861E+03    0.61766E-05   -0.15003E-06  2540   0.211E-03    0.338E-03
RMM:  11    -0.413198288526E+03    0.53350E-05   -0.93935E-07  2488   0.160E-03    0.184E-03
RMM:  12    -0.413198280087E+03    0.84390E-05   -0.99630E-07  2474   0.162E-03    0.892E-04
RMM:  13    -0.413198276746E+03    0.33406E-05   -0.37361E-07  2192   0.107E-03    0.495E-04
RMM:  14    -0.413198275787E+03    0.95884E-06   -0.17008E-07  1568   0.756E-04
   36 T=    68. E= -.41286653E+03 F= -.41319828E+03 E0= -.41317701E+03  EK= 0.33175E+00 SP= 0.00E+00 SK= 0.00E+00
       N       E                     dE             d eps       ncg     rms          rms(c)
RMM:   1    -0.413217247621E+03   -0.18971E-01   -0.11178E+01  4305   0.108E+00    0.921E-01
RMM:   2    -0.413204687866E+03    0.12560E-01   -0.16425E-01  4260   0.142E-01    0.679E-01
RMM:   3    -0.413201548933E+03    0.31389E-02   -0.99499E-03  4614   0.558E-02    0.164E-01
RMM:   4    -0.413222663837E+03   -0.21115E-01   -0.21578E-02  5163   0.124E-01    0.609E-01
RMM:   5    -0.413201360058E+03    0.21304E-01   -0.10799E-02  4806   0.101E-01    0.436E-02
RMM:   6    -0.413201373121E+03   -0.13063E-04   -0.17799E-03  5849   0.400E-02    0.279E-02
RMM:   7    -0.413201382620E+03   -0.94996E-05   -0.29221E-04  5608   0.160E-02    0.164E-02
RMM:   8    -0.413201368910E+03    0.13710E-04   -0.56043E-05  4993   0.806E-03    0.837E-03
RMM:   9    -0.413201366851E+03    0.20588E-05   -0.11665E-05  3924   0.413E-03    0.566E-03
RMM:  10    -0.413201362855E+03    0.39961E-05   -0.16113E-06  2565   0.211E-03    0.340E-03
RMM:  11    -0.413201359376E+03    0.34789E-05   -0.97591E-07  2494   0.161E-03    0.187E-03
RMM:  12    -0.413201353446E+03    0.59301E-05   -0.10721E-06  2484   0.164E-03    0.870E-04
RMM:  13    -0.413201351048E+03    0.23986E-05   -0.39833E-07  2189   0.109E-03    0.509E-04
RMM:  14    -0.413201350427E+03    0.62104E-06   -0.18023E-07  1579   0.764E-04
   37 T=    68. E= -.41286685E+03 F= -.41320135E+03 E0= -.41318013E+03  EK= 0.33450E+00 SP= 0.00E+00 SK= 0.00E+00
       N       E                     dE             d eps       ncg     rms          rms(c)
RMM:   1    -0.413209257597E+03   -0.79065E-02   -0.11181E+01  4307   0.106E+00    0.942E-01
RMM:   2    -0.413207221246E+03    0.20364E-02   -0.15507E-01  4262   0.132E-01    0.683E-01
RMM:   3    -0.413204049325E+03    0.31719E-02   -0.10780E-02  4744   0.555E-02    0.164E-01
RMM:   4    -0.413237274125E+03   -0.33225E-01   -0.34032E-02  5152   0.154E-01    0.759E-01
RMM:   5    -0.413203624383E+03    0.33650E-01   -0.17108E-02  4804   0.127E-01    0.485E-02
RMM:   6    -0.413203680052E+03   -0.55668E-04   -0.27029E-03  5844   0.492E-02    0.302E-02
RMM:   7    -0.413203690074E+03   -0.10022E-04   -0.35554E-04  5729   0.173E-02    0.166E-02
RMM:   8    -0.413203680182E+03    0.98915E-05   -0.65927E-05  5045   0.833E-03    0.997E-03
RMM:   9    -0.413203677006E+03    0.31757E-05   -0.19437E-05  4496   0.494E-03    0.668E-03
RMM:  10    -0.413203671254E+03    0.57527E-05   -0.25706E-06  2648   0.247E-03    0.399E-03
RMM:  11    -0.413203667484E+03    0.37698E-05   -0.12278E-06  2497   0.180E-03    0.239E-03
RMM:  12    -0.413203658928E+03    0.85564E-05   -0.15019E-06  2512   0.200E-03    0.111E-03
RMM:  13    -0.413203655088E+03    0.38400E-05   -0.54981E-07  2349   0.132E-03    0.748E-04
RMM:  14    -0.413203654947E+03    0.14060E-06   -0.22789E-07  1910   0.857E-04
   38 T=    69. E= -.41286667E+03 F= -.41320365E+03 E0= -.41318247E+03  EK= 0.33699E+00 SP= 0.00E+00 SK= 0.00E+00
       N       E                     dE             d eps       ncg     rms          rms(c)
RMM:   1    -0.413203621781E+03    0.33306E-04   -0.11119E+01  4304   0.102E+00    0.955E-01
RMM:   2    -0.413209320882E+03   -0.56991E-02   -0.14605E-01  4265   0.123E-01    0.676E-01
RMM:   3    -0.413206946805E+03    0.23741E-02   -0.11457E-02  4937   0.557E-02    0.183E-01
RMM:   4    -0.413252190082E+03   -0.45243E-01   -0.48381E-02  5134   0.183E-01    0.883E-01
RMM:   5    -0.413206095755E+03    0.46094E-01   -0.22935E-02  4792   0.148E-01    0.548E-02
RMM:   6    -0.413206214371E+03   -0.11862E-03   -0.37132E-03  5826   0.573E-02    0.330E-02
RMM:   7    -0.413206222697E+03   -0.83260E-05   -0.42818E-04  5714   0.187E-02    0.174E-02
RMM:   8    -0.413206214255E+03    0.84423E-05   -0.55953E-05  4880   0.729E-03    0.921E-03
RMM:   9    -0.413206206540E+03    0.77149E-05   -0.16594E-05  4176   0.421E-03    0.648E-03
RMM:  10    -0.413206202355E+03    0.41849E-05   -0.43408E-06  2888   0.271E-03    0.419E-03
RMM:  11    -0.413206195957E+03    0.63983E-05   -0.15052E-06  2500   0.205E-03    0.245E-03
RMM:  12    -0.413206183770E+03    0.12187E-04   -0.14961E-06  2505   0.205E-03    0.939E-04
RMM:  13    -0.413206179917E+03    0.38531E-05   -0.50456E-07  2383   0.131E-03    0.716E-04
RMM:  14    -0.413206179835E+03    0.81745E-07   -0.22388E-07  1944   0.859E-04
   39 T=    69. E= -.41286667E+03 F= -.41320618E+03 E0= -.41318504E+03  EK= 0.33951E+00 SP= 0.00E+00 SK= 0.00E+00
       N       E                     dE             d eps       ncg     rms          rms(c)
RMM:   1    -0.413219121135E+03   -0.12941E-01   -0.11250E+01  4312   0.115E+00    0.932E-01
RMM:   2    -0.413212862530E+03    0.62586E-02   -0.16237E-01  4267   0.134E-01    0.682E-01
RMM:   3    -0.413210167816E+03    0.26947E-02   -0.10911E-02  4976   0.574E-02    0.205E-01
RMM:   4    -0.413262560780E+03   -0.52393E-01   -0.57276E-02  5131   0.199E-01    0.948E-01
RMM:   5    -0.413208967990E+03    0.53593E-01   -0.26449E-02  4788   0.160E-01    0.576E-02
RMM:   6    -0.413209122173E+03   -0.15418E-03   -0.42705E-03  5823   0.614E-02    0.335E-02
RMM:   7    -0.413209135720E+03   -0.13547E-04   -0.49286E-04  5808   0.197E-02    0.191E-02
RMM:   8    -0.413209136306E+03   -0.58640E-06   -0.98938E-05  5209   0.953E-03    0.124E-02
RMM:   9    -0.413209125195E+03    0.11111E-04   -0.28397E-05  4711   0.580E-03    0.695E-03
RMM:  10    -0.413209120689E+03    0.45060E-05   -0.45432E-06  2817   0.295E-03    0.424E-03
RMM:  11    -0.413209116862E+03    0.38274E-05   -0.16796E-06  2504   0.212E-03    0.252E-03
RMM:  12    -0.413209109375E+03    0.74868E-05   -0.13931E-06  2498   0.199E-03    0.850E-04
RMM:  13    -0.413209105738E+03    0.36371E-05   -0.59892E-07  2394   0.136E-03    0.614E-04
RMM:  14    -0.413209104821E+03    0.91634E-06   -0.26336E-07  1997   0.913E-04
   40 T=    70. E= -.41286692E+03 F= -.41320910E+03 E0= -.41318800E+03  EK= 0.34218E+00 SP= 0.00E+00 SK= 0.00E+00
       N       E                     dE             d eps       ncg     rms          rms(c)
RMM:   1    -0.413232173615E+03   -0.23068E-01   -0.11488E+01  4310   0.123E+00    0.944E-01
RMM:   2    -0.413214992642E+03    0.17181E-01   -0.18173E-01  4272   0.145E-01    0.695E-01
RMM:   3    -0.413212941515E+03    0.20511E-02   -0.11111E-02  5040   0.620E-02    0.253E-01
RMM:   4    -0.413270495881E+03   -0.57554E-01   -0.66411E-02  5125   0.215E-01    0.998E-01
RMM:   5    -0.413210987469E+03    0.59508E-01   -0.28901E-02  4777   0.168E-01    0.622E-02
RMM:   6    -0.413211157308E+03   -0.16984E-03   -0.46738E-03  5811   0.646E-02    0.347E-02
RMM:   7    -0.413211174322E+03   -0.17014E-04   -0.56748E-04  5851   0.210E-02    0.225E-02
RMM:   8    -0.413211174158E+03    0.16447E-06   -0.12972E-04  5282   0.112E-02    0.138E-02
RMM:   9    -0.413211160134E+03    0.14023E-04   -0.27323E-05  4659   0.610E-03    0.609E-03
RMM:  10    -0.413211155996E+03    0.41384E-05   -0.59542E-06  3015   0.302E-03    0.385E-03
RMM:  11    -0.413211152445E+03    0.35508E-05   -0.15051E-06  2506   0.202E-03    0.224E-03
RMM:  12    -0.413211146225E+03    0.62207E-05   -0.10845E-06  2482   0.176E-03    0.740E-04
RMM:  13    -0.413211142682E+03    0.35429E-05   -0.52301E-07  2372   0.125E-03    0.444E-04
RMM:  14    -0.413211141384E+03    0.12972E-05   -0.25232E-07  1941   0.883E-04    0.310E-04
RMM:  15    -0.413211138700E+03    0.26847E-05   -0.14201E-07  1413   0.717E-04    0.136E-04
RMM:  16    -0.413211135302E+03    0.33978E-05   -0.10153E-07  1208   0.671E-04    0.114E-04
RMM:  17    -0.413211133172E+03    0.21297E-05   -0.64845E-08  1057   0.627E-04    0.716E-05
RMM:  18    -0.413211130240E+03    0.29326E-05   -0.60298E-08  1165   0.634E-04    0.522E-05
RMM:  19    -0.413211128309E+03    0.19310E-05   -0.42378E-08  1077   0.599E-04    0.327E-05
RMM:  20    -0.413211127710E+03    0.59871E-06   -0.22418E-08   838   0.551E-04
   41 T=    70. E= -.41286664E+03 F= -.41321113E+03 E0= -.41319006E+03  EK= 0.34449E+00 SP= 0.00E+00 SK= 0.00E+00
       N       E                     dE             d eps       ncg     rms          rms(c)
RMM:   1    -0.413223962422E+03   -0.12834E-01   -0.11406E+01  4310   0.122E+00    0.969E-01
RMM:   2    -0.413216735155E+03    0.72273E-02   -0.15155E-01  4288   0.137E-01    0.686E-01
RMM:   3    -0.413217461875E+03   -0.72672E-03   -0.14434E-02  5081   0.761E-02    0.298E-01
RMM:   4    -0.413253268728E+03   -0.35807E-01   -0.52201E-02  5090   0.192E-01    0.821E-01
RMM:   5    -0.413213644872E+03    0.39624E-01   -0.17553E-02  4739   0.137E-01    0.587E-02
RMM:   6    -0.413213709873E+03   -0.65001E-04   -0.30811E-03  5762   0.526E-02    0.337E-02
RMM:   7    -0.413213714225E+03   -0.43516E-05   -0.43670E-04  5759   0.190E-02    0.217E-02
RMM:   8    -0.413213709436E+03    0.47884E-05   -0.11667E-04  5194   0.110E-02    0.121E-02
RMM:   9    -0.413213695393E+03    0.14043E-04   -0.19579E-05  4408   0.550E-03    0.501E-03
RMM:  10    -0.413213690121E+03    0.52725E-05   -0.41470E-06  2815   0.262E-03    0.318E-03
RMM:  11    -0.413213684626E+03    0.54949E-05   -0.11920E-06  2491   0.184E-03    0.172E-03
RMM:  12    -0.413213676528E+03    0.80981E-05   -0.76884E-07  2457   0.152E-03    0.644E-04
RMM:  13    -0.413213672081E+03    0.44467E-05   -0.37479E-07  2170   0.107E-03    0.318E-04
RMM:  14    -0.413213669806E+03    0.22755E-05   -0.19900E-07  1683   0.801E-04    0.213E-04
RMM:  15    -0.413213664413E+03    0.53922E-05   -0.13163E-07  1350   0.717E-04    0.132E-04
RMM:  16    -0.413213661734E+03    0.26791E-05   -0.83660E-08  1163   0.654E-04    0.968E-05
RMM:  17    -0.413213658467E+03    0.32676E-05   -0.67694E-08  1181   0.640E-04    0.693E-05
RMM:  18    -0.413213655595E+03    0.28712E-05   -0.54950E-08  1157   0.614E-04    0.426E-05
RMM:  19    -0.413213653297E+03    0.22985E-05   -0.40078E-08  1046   0.584E-04    0.330E-05
RMM:  20    -0.413213652912E+03    0.38464E-06   -0.19124E-08   761   0.535E-04
   42 T=    71. E= -.41286685E+03 F= -.41321365E+03 E0= -.41319261E+03  EK= 0.34680E+00 SP= 0.00E+00 SK= 0.00E+00
       N       E                     dE             d eps       ncg     rms          rms(c)
RMM:   1    -0.413242126661E+03   -0.28473E-01   -0.11514E+01  4312   0.136E+00    0.945E-01
RMM:   2    -0.413218893126E+03    0.23234E-01   -0.16539E-01  4293   0.149E-01    0.686E-01
RMM:   3    -0.413220478416E+03   -0.15853E-02   -0.14612E-02  5082   0.827E-02    0.333E-01
RMM:   4    -0.413254014282E+03   -0.33536E-01   -0.53020E-02  5082   0.195E-01    0.808E-01
RMM:   5    -0.413215675510E+03    0.38339E-01   -0.16628E-02  4716   0.135E-01    0.593E-02
RMM:   6    -0.413215727116E+03   -0.51606E-04   -0.29590E-03  5750   0.516E-02    0.332E-02
RMM:   7    -0.413215729450E+03   -0.23341E-05   -0.42237E-04  5771   0.187E-02    0.220E-02
RMM:   8    -0.413215724914E+03    0.45363E-05   -0.11334E-04  5177   0.109E-02    0.115E-02
RMM:   9    -0.413215712855E+03    0.12059E-04   -0.19665E-05  4420   0.552E-03    0.454E-03
RMM:  10    -0.413215709360E+03    0.34956E-05   -0.39175E-06  2780   0.254E-03    0.285E-03
RMM:  11    -0.413215705053E+03    0.43069E-05   -0.12452E-06  2494   0.184E-03    0.153E-03
RMM:  12    -0.413215699632E+03    0.54208E-05   -0.70327E-07  2436   0.143E-03    0.593E-04
RMM:  13    -0.413215696547E+03    0.30852E-05   -0.34855E-07  2047   0.101E-03    0.279E-04
RMM:  14    -0.413215694264E+03    0.22824E-05   -0.19304E-07  1550   0.781E-04    0.173E-04
RMM:  15    -0.413215689882E+03    0.43824E-05   -0.14098E-07  1297   0.718E-04    0.112E-04
RMM:  16    -0.413215688032E+03    0.18502E-05   -0.87482E-08  1131   0.658E-04    0.787E-05
RMM:  17    -0.413215685128E+03    0.29038E-05   -0.74906E-08  1202   0.654E-04    0.519E-05
RMM:  18    -0.413215682878E+03    0.22502E-05   -0.59321E-08  1157   0.620E-04    0.394E-05
RMM:  19    -0.413215681550E+03    0.13272E-05   -0.33973E-08   901   0.568E-04    0.206E-05
RMM:  20    -0.413215680956E+03    0.59472E-06   -0.22743E-08   793   0.547E-04
   43 T=    71. E= -.41286695E+03 F= -.41321568E+03 E0= -.41319467E+03  EK= 0.34873E+00 SP= 0.00E+00 SK= 0.00E+00
       N       E                     dE             d eps       ncg     rms          rms(c)
RMM:   1    -0.413235479918E+03   -0.19798E-01   -0.11541E+01  4312   0.138E+00    0.948E-01
RMM:   2    -0.413220443939E+03    0.15036E-01   -0.17455E-01  4292   0.165E-01    0.701E-01
RMM:   3    -0.413222921618E+03   -0.24777E-02   -0.15724E-02  5082   0.912E-02    0.369E-01
RMM:   4    -0.413254291525E+03   -0.31370E-01   -0.54476E-02  5063   0.198E-01    0.799E-01
RMM:   5    -0.413216879870E+03    0.37412E-01   -0.15827E-02  4707   0.133E-01    0.602E-02
RMM:   6    -0.413216912685E+03   -0.32815E-04   -0.28275E-03  5717   0.506E-02    0.327E-02
RMM:   7    -0.413216913301E+03   -0.61632E-06   -0.40503E-04  5798   0.184E-02    0.220E-02
RMM:   8    -0.413216908935E+03    0.43656E-05   -0.10843E-04  5163   0.107E-02    0.110E-02
RMM:   9    -0.413216898455E+03    0.10480E-04   -0.20010E-05  4419   0.555E-03    0.429E-03
RMM:  10    -0.413216896085E+03    0.23697E-05   -0.38445E-06  2771   0.248E-03    0.264E-03
RMM:  11    -0.413216892773E+03    0.33129E-05   -0.13709E-06  2514   0.185E-03    0.145E-03
RMM:  12    -0.413216889142E+03    0.36308E-05   -0.66306E-07  2434   0.138E-03    0.609E-04
RMM:  13    -0.413216886836E+03    0.23062E-05   -0.33140E-07  1925   0.958E-04    0.273E-04
RMM:  14    -0.413216884723E+03    0.21129E-05   -0.19593E-07  1493   0.770E-04    0.159E-04
RMM:  15    -0.413216881526E+03    0.31971E-05   -0.14726E-07  1282   0.712E-04    0.977E-05
RMM:  16    -0.413216879810E+03    0.17156E-05   -0.91877E-08  1109   0.655E-04    0.732E-05
RMM:  17    -0.413216877115E+03    0.26949E-05   -0.83848E-08  1224   0.657E-04    0.458E-05
RMM:  18    -0.413216875390E+03    0.17253E-05   -0.56698E-08  1094   0.612E-04    0.414E-05
RMM:  19    -0.413216874418E+03    0.97212E-06   -0.34195E-08   890   0.566E-04
   44 T=    71. E= -.41286672E+03 F= -.41321687E+03 E0= -.41319589E+03  EK= 0.35015E+00 SP= 0.00E+00 SK= 0.00E+00
       N       E                     dE             d eps       ncg     rms          rms(c)
RMM:   1    -0.413237124169E+03   -0.20249E-01   -0.11535E+01  4310   0.147E+00    0.974E-01
RMM:   2    -0.413221290447E+03    0.15834E-01   -0.16791E-01  4328   0.169E-01    0.695E-01
RMM:   3    -0.413229015639E+03   -0.77252E-02   -0.20290E-02  5124   0.110E-01    0.468E-01
RMM:   4    -0.413240245274E+03   -0.11230E-01   -0.43540E-02  5039   0.181E-01    0.620E-01
RMM:   5    -0.413218439179E+03    0.21806E-01   -0.81251E-03  4620   0.105E-01    0.558E-02
RMM:   6    -0.413218410643E+03    0.28536E-04   -0.16683E-03  5544   0.395E-02    0.315E-02
RMM:   7    -0.413218405206E+03    0.54362E-05   -0.28361E-04  5589   0.164E-02    0.210E-02
RMM:   8    -0.413218393878E+03    0.11328E-04   -0.10924E-04  5063   0.109E-02    0.973E-03
RMM:   9    -0.413218380546E+03    0.13332E-04   -0.14891E-05  4221   0.525E-03    0.399E-03
RMM:  10    -0.413218376677E+03    0.38693E-05   -0.25378E-06  2675   0.220E-03    0.232E-03
RMM:  11    -0.413218370079E+03    0.65979E-05   -0.11149E-06  2479   0.173E-03    0.127E-03
RMM:  12    -0.413218364011E+03    0.60685E-05   -0.55145E-07  2399   0.129E-03    0.602E-04
RMM:  13    -0.413218360357E+03    0.36539E-05   -0.26024E-07  1799   0.883E-04    0.293E-04
RMM:  14    -0.413218356798E+03    0.35590E-05   -0.14736E-07  1330   0.711E-04    0.155E-04
RMM:  15    -0.413218351551E+03    0.52462E-05   -0.11925E-07  1267   0.690E-04    0.123E-04
RMM:  16    -0.413218348870E+03    0.26810E-05   -0.73968E-08  1083   0.632E-04    0.996E-05
RMM:  17    -0.413218344147E+03    0.47232E-05   -0.80311E-08  1349   0.657E-04    0.681E-05
RMM:  18    -0.413218341807E+03    0.23397E-05   -0.46965E-08  1056   0.576E-04    0.438E-05
RMM:  19    -0.413218340893E+03    0.91482E-06   -0.27687E-08   848   0.529E-04
   45 T=    72. E= -.41286704E+03 F= -.41321834E+03 E0= -.41319737E+03  EK= 0.35130E+00 SP= 0.00E+00 SK= 0.00E+00
       N       E                     dE             d eps       ncg     rms          rms(c)
RMM:   1    -0.413252782726E+03   -0.34441E-01   -0.11576E+01  4310   0.161E+00    0.955E-01
RMM:   2    -0.413221304179E+03    0.31479E-01   -0.17878E-01  4348   0.184E-01    0.691E-01
RMM:   3    -0.413231681959E+03   -0.10378E-01   -0.21931E-02  5122   0.120E-01    0.524E-01
RMM:   4    -0.413236479681E+03   -0.47977E-02   -0.42185E-02  5014   0.179E-01    0.572E-01
RMM:   5    -0.413218383029E+03    0.18097E-01   -0.67006E-03  4587   0.986E-02    0.554E-02
RMM:   6    -0.413218330548E+03    0.52481E-04   -0.13038E-03  5389   0.359E-02    0.304E-02
RMM:   7    -0.413218325318E+03    0.52305E-05   -0.22777E-04  5560   0.150E-02    0.203E-02
RMM:   8    -0.413218315967E+03    0.93503E-05   -0.11883E-04  5075   0.112E-02    0.994E-03
RMM:   9    -0.413218302072E+03    0.13896E-04   -0.15756E-05  4296   0.546E-03    0.399E-03
RMM:  10    -0.413218299058E+03    0.30138E-05   -0.26423E-06  2687   0.219E-03    0.228E-03
RMM:  11    -0.413218292991E+03    0.60674E-05   -0.12422E-06  2494   0.179E-03    0.125E-03
RMM:  12    -0.413218288426E+03    0.45646E-05   -0.55136E-07  2401   0.130E-03    0.672E-04
RMM:  13    -0.413218284831E+03    0.35952E-05   -0.26043E-07  1770   0.887E-04    0.325E-04
RMM:  14    -0.413218281393E+03    0.34380E-05   -0.14180E-07  1291   0.702E-04    0.168E-04
RMM:  15    -0.413218277352E+03    0.40413E-05   -0.10905E-07  1217   0.669E-04    0.117E-04
RMM:  16    -0.413218274802E+03    0.25492E-05   -0.71138E-08  1059   0.620E-04    0.106E-04
RMM:  17    -0.413218271116E+03    0.36870E-05   -0.68386E-08  1186   0.625E-04    0.622E-05
RMM:  18    -0.413218268526E+03    0.25897E-05   -0.47441E-08  1051   0.581E-04    0.503E-05
RMM:  19    -0.413218267782E+03    0.74344E-06   -0.21524E-08   732   0.520E-04
   46 T=    72. E= -.41286683E+03 F= -.41321827E+03 E0= -.41319732E+03  EK= 0.35144E+00 SP= 0.00E+00 SK= 0.00E+00
       N       E                     dE             d eps       ncg     rms          rms(c)
RMM:   1    -0.413239223940E+03   -0.20955E-01   -0.11458E+01  4310   0.164E+00    0.944E-01
RMM:   2    -0.413220992448E+03    0.18231E-01   -0.18432E-01  4365   0.196E-01    0.704E-01
RMM:   3    -0.413232511105E+03   -0.11519E-01   -0.23233E-02  5124   0.128E-01    0.553E-01
RMM:   4    -0.413236172456E+03   -0.36614E-02   -0.44822E-02  5008   0.185E-01    0.578E-01
RMM:   5    -0.413217477692E+03    0.18695E-01   -0.68752E-03  4580   0.101E-01    0.570E-02
RMM:   6    -0.413217412225E+03    0.65467E-04   -0.13039E-03  5345   0.362E-02    0.303E-02
RMM:   7    -0.413217407254E+03    0.49717E-05   -0.22612E-04  5606   0.149E-02    0.207E-02
RMM:   8    -0.413217398395E+03    0.88592E-05   -0.12360E-04  5127   0.114E-02    0.103E-02
RMM:   9    -0.413217385353E+03    0.13041E-04   -0.17190E-05  4346   0.568E-03    0.404E-03
RMM:  10    -0.413217383369E+03    0.19848E-05   -0.29232E-06  2724   0.225E-03    0.233E-03
RMM:  11    -0.413217379306E+03    0.40627E-05   -0.13655E-06  2499   0.185E-03    0.129E-03
RMM:  12    -0.413217376371E+03    0.29347E-05   -0.58359E-07  2414   0.133E-03    0.708E-04
RMM:  13    -0.413217373657E+03    0.27140E-05   -0.29010E-07  1797   0.920E-04    0.345E-04
RMM:  14    -0.413217371126E+03    0.25316E-05   -0.16124E-07  1354   0.730E-04    0.177E-04
RMM:  15    -0.413217368412E+03    0.27137E-05   -0.11572E-07  1175   0.677E-04    0.107E-04
RMM:  16    -0.413217366343E+03    0.20691E-05   -0.81038E-08  1103   0.635E-04    0.983E-05
RMM:  17    -0.413217364084E+03    0.22592E-05   -0.66626E-08  1111   0.615E-04    0.538E-05
RMM:  18    -0.413217361737E+03    0.23462E-05   -0.57560E-08  1077   0.596E-04    0.462E-05
RMM:  19    -0.413217361277E+03    0.45993E-06   -0.20758E-08   687   0.521E-04
   47 T=    71. E= -.41286674E+03 F= -.41321736E+03 E0= -.41319643E+03  EK= 0.35062E+00 SP= 0.00E+00 SK= 0.00E+00
       N       E                     dE             d eps       ncg     rms          rms(c)
RMM:   1    -0.413250005428E+03   -0.32644E-01   -0.11493E+01  4306   0.178E+00    0.967E-01
RMM:   2    -0.413218724460E+03    0.31281E-01   -0.18380E-01  4421   0.204E-01    0.699E-01
RMM:   3    -0.413238866774E+03   -0.20142E-01   -0.30745E-02  5146   0.150E-01    0.673E-01
RMM:   4    -0.413226534323E+03    0.12332E-01   -0.41252E-02  4965   0.182E-01    0.456E-01
RMM:   5    -0.413215730021E+03    0.10804E-01   -0.44684E-03  4518   0.892E-02    0.581E-02
RMM:   6    -0.413215600916E+03    0.12911E-03   -0.56992E-04  4811   0.289E-02    0.302E-02
RMM:   7    -0.413215595083E+03    0.58332E-05   -0.20366E-04  5904   0.145E-02    0.160E-02
RMM:   8    -0.413215584943E+03    0.10140E-04   -0.10169E-04  5177   0.111E-02    0.117E-02
RMM:   9    -0.413215574276E+03    0.10667E-04   -0.18106E-05  4429   0.543E-03    0.455E-03
RMM:  10    -0.413215570568E+03    0.37080E-05   -0.29035E-06  2671   0.260E-03    0.233E-03
RMM:  11    -0.413215564905E+03    0.56627E-05   -0.19196E-06  2522   0.218E-03    0.157E-03
RMM:  12    -0.413215560915E+03    0.39899E-05   -0.68989E-07  2405   0.150E-03    0.913E-04
RMM:  13    -0.413215557123E+03    0.37923E-05   -0.31467E-07  2050   0.989E-04    0.530E-04
RMM:  14    -0.413215551261E+03    0.58621E-05   -0.23653E-07  1966   0.863E-04    0.472E-04
RMM:  15    -0.413215547667E+03    0.35932E-05   -0.10289E-07  1078   0.617E-04    0.185E-04
RMM:  16    -0.413215545264E+03    0.24036E-05   -0.70908E-08  1020   0.592E-04    0.968E-05
RMM:  17    -0.413215542110E+03    0.31536E-05   -0.63596E-08  1059   0.603E-04    0.714E-05
RMM:  18    -0.413215540358E+03    0.17522E-05   -0.39399E-08   922   0.568E-04    0.691E-05
RMM:  19    -0.413215538954E+03    0.14044E-05   -0.25451E-08   829   0.544E-04    0.478E-05
RMM:  20    -0.413215537475E+03    0.14783E-05   -0.26144E-08   866   0.538E-04    0.270E-05
RMM:  21    -0.413215537129E+03    0.34649E-06   -0.10044E-08   613   0.488E-04
   48 T=    71. E= -.41286699E+03 F= -.41321554E+03 E0= -.41319461E+03  EK= 0.34855E+00 SP= 0.00E+00 SK= 0.00E+00
       N       E                     dE             d eps       ncg     rms          rms(c)
RMM:   1    -0.413250080058E+03   -0.34543E-01   -0.11307E+01  4306   0.189E+00    0.956E-01
RMM:   2    -0.413214376061E+03    0.35704E-01   -0.18278E-01  4481   0.215E-01    0.688E-01
RMM:   3    -0.413242250599E+03   -0.27875E-01   -0.37245E-02  5157   0.168E-01    0.767E-01
RMM:   4    -0.413218650569E+03    0.23600E-01   -0.40839E-02  4944   0.184E-01    0.386E-01
RMM:   5    -0.413211543697E+03    0.71069E-02   -0.44788E-03  4706   0.896E-02    0.674E-02
RMM:   6    -0.413211327344E+03    0.21635E-03   -0.46383E-04  4652   0.302E-02    0.338E-02
RMM:   7    -0.413211332955E+03   -0.56106E-05   -0.25894E-04  5733   0.172E-02    0.246E-02
RMM:   8    -0.413211300511E+03    0.32443E-04   -0.87847E-05  4970   0.107E-02    0.933E-03
RMM:   9    -0.413211292905E+03    0.76064E-05   -0.17912E-05  4485   0.531E-03    0.440E-03
RMM:  10    -0.413211288315E+03    0.45897E-05   -0.23845E-06  2645   0.238E-03    0.260E-03
RMM:  11    -0.413211281808E+03    0.65075E-05   -0.99550E-07  2489   0.170E-03    0.158E-03
RMM:  12    -0.413211278069E+03    0.37387E-05   -0.37020E-07  2296   0.110E-03    0.800E-04
RMM:  13    -0.413211272664E+03    0.54046E-05   -0.33765E-07  2163   0.946E-04    0.458E-04
RMM:  14    -0.413211268665E+03    0.39997E-05   -0.16565E-07  1355   0.722E-04    0.288E-04
RMM:  15    -0.413211263835E+03    0.48302E-05   -0.13488E-07  1239   0.689E-04    0.133E-04
RMM:  16    -0.413211261004E+03    0.28308E-05   -0.85951E-08  1157   0.636E-04    0.891E-05
RMM:  17    -0.413211256926E+03    0.40777E-05   -0.88517E-08  1338   0.645E-04    0.849E-05
RMM:  18    -0.413211255903E+03    0.10233E-05   -0.41877E-08   979   0.541E-04    0.727E-05
RMM:  19    -0.413211254527E+03    0.13758E-05   -0.31033E-08   898   0.523E-04    0.277E-05
RMM:  20    -0.413211253678E+03    0.84892E-06   -0.24230E-08   833   0.506E-04
   49 T=    70. E= -.41286669E+03 F= -.41321125E+03 E0= -.41319033E+03  EK= 0.34456E+00 SP= 0.00E+00 SK= 0.00E+00
       N       E                     dE             d eps       ncg     rms          rms(c)
RMM:   1    -0.413230932895E+03   -0.19678E-01   -0.10984E+01  4306   0.192E+00    0.927E-01
RMM:   2    -0.413209640086E+03    0.21293E-01   -0.18170E-01  4511   0.222E-01    0.693E-01
RMM:   3    -0.413238395371E+03   -0.28755E-01   -0.38079E-02  5158   0.173E-01    0.785E-01
RMM:   4    -0.413213389650E+03    0.25006E-01   -0.42248E-02  4938   0.189E-01    0.384E-01
RMM:   5    -0.413206205672E+03    0.71840E-02   -0.49884E-03  4784   0.940E-02    0.723E-02
RMM:   6    -0.413205939946E+03    0.26573E-03   -0.50884E-04  4632   0.320E-02    0.345E-02
RMM:   7    -0.413205941253E+03   -0.13067E-05   -0.25231E-04  5727   0.171E-02    0.244E-02
RMM:   8    -0.413205911466E+03    0.29786E-04   -0.85679E-05  5021   0.104E-02    0.992E-03
RMM:   9    -0.413205904850E+03    0.66156E-05   -0.17531E-05  4376   0.527E-03    0.426E-03
[...]
RMM:  12    -0.413594381325E+03   -0.10325E-04   -0.15701E-05  3934   0.485E-03    0.395E-03
RMM:  13    -0.413594388536E+03   -0.72110E-05   -0.37918E-06  2891   0.276E-03    0.301E-03
RMM:  14    -0.413594391533E+03   -0.29969E-05   -0.31164E-06  2801   0.227E-03    0.147E-03
RMM:  15    -0.413594393758E+03   -0.22253E-05   -0.35529E-06  2856   0.238E-03    0.809E-04
RMM:  16    -0.413594393228E+03    0.53009E-06   -0.22187E-06  2561   0.187E-03
  139 T=   147. E= -.41287425E+03 F= -.41359439E+03 E0= -.41357543E+03  EK= 0.72014E+00 SP= 0.00E+00 SK= 0.00E+00
       N       E                     dE             d eps       ncg     rms          rms(c)
RMM:   1    -0.413618107654E+03   -0.23714E-01   -0.15584E+01  4299   0.775E+00    0.103E+00
RMM:   2    -0.413583896514E+03    0.34211E-01   -0.37887E-01  5232   0.744E-01    0.103E+00
RMM:   3    -0.413579481688E+03    0.44148E-02   -0.94672E-02  5687   0.317E-01    0.988E-01
RMM:   4    -0.413556059738E+03    0.23422E-01   -0.30402E-02  5132   0.206E-01    0.532E-01
RMM:   5    -0.413558259086E+03   -0.21993E-02   -0.45184E-02  5095   0.249E-01    0.344E-01
RMM:   6    -0.413555448906E+03    0.28102E-02   -0.23594E-02  5219   0.177E-01    0.196E-01
RMM:   7    -0.413554406222E+03    0.10427E-02   -0.26125E-03  5234   0.713E-02    0.136E-01
RMM:   8    -0.413553948336E+03    0.45789E-03   -0.14995E-03  5015   0.445E-02    0.666E-02
RMM:   9    -0.413553954308E+03   -0.59723E-05   -0.14474E-03  5123   0.387E-02    0.216E-02
RMM:  10    -0.413553968279E+03   -0.13971E-04   -0.13092E-04  5687   0.138E-02    0.142E-02
RMM:  11    -0.413553971282E+03   -0.30030E-05   -0.36012E-05  4712   0.757E-03    0.689E-03
RMM:  12    -0.413553981754E+03   -0.10472E-04   -0.13190E-05  3910   0.462E-03    0.372E-03
RMM:  13    -0.413553987999E+03   -0.62447E-05   -0.37690E-06  2898   0.286E-03    0.214E-03
RMM:  14    -0.413553990452E+03   -0.24526E-05   -0.19310E-06  2628   0.197E-03    0.146E-03
RMM:  15    -0.413553991586E+03   -0.11346E-05   -0.21660E-06  2640   0.193E-03    0.811E-04
RMM:  16    -0.413553990309E+03    0.12777E-05   -0.19352E-06  2556   0.172E-03    0.577E-04
RMM:  17    -0.413553986282E+03    0.40267E-05   -0.17508E-06  2424   0.157E-03    0.388E-04
RMM:  18    -0.413553982183E+03    0.40986E-05   -0.95794E-07  2072   0.114E-03    0.273E-04
RMM:  19    -0.413553978089E+03    0.40940E-05   -0.51739E-07  1838   0.913E-04    0.160E-04
RMM:  20    -0.413553974342E+03    0.37470E-05   -0.30763E-07  1591   0.770E-04    0.868E-05
RMM:  21    -0.413553971789E+03    0.25532E-05   -0.17710E-07  1347   0.666E-04    0.583E-05
RMM:  22    -0.413553970100E+03    0.16888E-05   -0.10376E-07  1157   0.606E-04    0.454E-05
RMM:  23    -0.413553969079E+03    0.10216E-05   -0.66627E-08  1078   0.575E-04    0.330E-05
RMM:  24    -0.413553968718E+03    0.36020E-06   -0.32999E-08   904   0.538E-04
  140 T=   138. E= -.41287531E+03 F= -.41355397E+03 E0= -.41353484E+03  EK= 0.67865E+00 SP= 0.00E+00 SK= 0.00E+00
       N       E                     dE             d eps       ncg     rms          rms(c)
RMM:   1    -0.413597120841E+03   -0.43152E-01   -0.14991E+01  4295   0.770E+00    0.869E-01
RMM:   2    -0.413562690937E+03    0.34430E-01   -0.33194E-01  5170   0.720E-01    0.851E-01
RMM:   3    -0.413569462880E+03   -0.67719E-02   -0.77599E-02  5792   0.281E-01    0.885E-01
RMM:   4    -0.413550666706E+03    0.18796E-01   -0.21952E-02  5190   0.173E-01    0.505E-01
RMM:   5    -0.413552163377E+03   -0.14967E-02   -0.33611E-02  4953   0.223E-01    0.276E-01
RMM:   6    -0.413550719172E+03    0.14442E-02   -0.16758E-02  5240   0.150E-01    0.175E-01
RMM:   7    -0.413549780453E+03    0.93872E-03   -0.19939E-03  5186   0.615E-02    0.125E-01
RMM:   8    -0.413549377329E+03    0.40312E-03   -0.13034E-03  4811   0.419E-02    0.586E-02
RMM:   9    -0.413549370907E+03    0.64224E-05   -0.11163E-03  5224   0.351E-02    0.199E-02
RMM:  10    -0.413549377748E+03   -0.68409E-05   -0.10445E-04  5676   0.126E-02    0.116E-02
RMM:  11    -0.413549381532E+03   -0.37837E-05   -0.27954E-05  4876   0.666E-03    0.620E-03
RMM:  12    -0.413549387969E+03   -0.64374E-05   -0.67886E-06  3326   0.365E-03    0.328E-03
RMM:  13    -0.413549391002E+03   -0.30334E-05   -0.23917E-06  2683   0.240E-03    0.220E-03
RMM:  14    -0.413549391925E+03   -0.92309E-06   -0.13292E-06  2527   0.179E-03
  141 T=   137. E= -.41287464E+03 F= -.41354939E+03 E0= -.41353026E+03  EK= 0.67475E+00 SP= 0.00E+00 SK= 0.00E+00
       N       E                     dE             d eps       ncg     rms          rms(c)
RMM:   1    -0.413631721584E+03   -0.82331E-01   -0.15502E+01  4271   0.786E+00    0.767E-01
RMM:   2    -0.413586135140E+03    0.45586E-01   -0.33223E-01  5129   0.731E-01    0.712E-01
RMM:   3    -0.413598518109E+03   -0.12383E-01   -0.64094E-02  5919   0.250E-01    0.735E-01
RMM:   4    -0.413588210451E+03    0.10308E-01   -0.18773E-02  5399   0.144E-01    0.524E-01
RMM:   5    -0.413587120264E+03    0.10902E-02   -0.30519E-02  4487   0.231E-01    0.215E-01
RMM:   6    -0.413586048591E+03    0.10717E-02   -0.60298E-03  5057   0.100E-01    0.152E-01
RMM:   7    -0.413585591379E+03    0.45721E-03   -0.13441E-03  5455   0.460E-02    0.109E-01
RMM:   8    -0.413585243037E+03    0.34834E-03   -0.12187E-03  4619   0.425E-02    0.452E-02
RMM:   9    -0.413585234536E+03    0.85004E-05   -0.63184E-04  5445   0.280E-02    0.192E-02
RMM:  10    -0.413585236799E+03   -0.22629E-05   -0.72244E-05  5481   0.109E-02    0.937E-03
RMM:  11    -0.413585241009E+03   -0.42100E-05   -0.21560E-05  4701   0.569E-03    0.621E-03
RMM:  12    -0.413585242582E+03   -0.15731E-05   -0.44307E-06  3006   0.315E-03    0.434E-03
RMM:  13    -0.413585243029E+03   -0.44708E-06   -0.18211E-06  2589   0.216E-03
  142 T=   144. E= -.41287840E+03 F= -.41358524E+03 E0= -.41356617E+03  EK= 0.70685E+00 SP= 0.00E+00 SK= 0.00E+00
       N       E                     dE             d eps       ncg     rms          rms(c)
RMM:   1    -0.413662503269E+03   -0.77261E-01   -0.16854E+01  4264   0.820E+00    0.992E-01
RMM:   2    -0.413605712257E+03    0.56791E-01   -0.35758E-01  5141   0.782E-01    0.916E-01
RMM:   3    -0.413628768801E+03   -0.23057E-01   -0.87296E-02  5879   0.290E-01    0.965E-01
RMM:   4    -0.413606829516E+03    0.21939E-01   -0.29358E-02  5152   0.191E-01    0.562E-01
RMM:   5    -0.413607000435E+03   -0.17092E-03   -0.38552E-02  4577   0.262E-01    0.253E-01
RMM:   6    -0.413604540682E+03    0.24598E-02   -0.46497E-03  4620   0.997E-02    0.132E-01
RMM:   7    -0.413604222010E+03    0.31867E-03   -0.15529E-03  5512   0.494E-02    0.880E-02
RMM:   8    -0.413603999187E+03    0.22282E-03   -0.10835E-03  4755   0.404E-02    0.353E-02
RMM:   9    -0.413603989634E+03    0.95526E-05   -0.35530E-04  5541   0.226E-02    0.169E-02
RMM:  10    -0.413603990938E+03   -0.13035E-05   -0.72775E-05  5687   0.101E-02    0.963E-03
RMM:  11    -0.413603993576E+03   -0.26387E-05   -0.14840E-05  4244   0.478E-03    0.697E-03
RMM:  12    -0.413603997232E+03   -0.36560E-05   -0.50256E-06  3109   0.346E-03    0.439E-03
RMM:  13    -0.413604001196E+03   -0.39638E-05   -0.22680E-06  2705   0.244E-03    0.210E-03
RMM:  14    -0.413604004283E+03   -0.30872E-05   -0.12926E-06  2509   0.182E-03    0.914E-04
RMM:  15    -0.413604007635E+03   -0.33518E-05   -0.73425E-07  2383   0.138E-03    0.500E-04
RMM:  16    -0.413604010414E+03   -0.27792E-05   -0.43887E-07  2074   0.103E-03    0.298E-04
RMM:  17    -0.413604013983E+03   -0.35683E-05   -0.39746E-07  1878   0.929E-04    0.183E-04
RMM:  18    -0.413604017186E+03   -0.32031E-05   -0.32578E-07  1750   0.824E-04    0.113E-04
RMM:  19    -0.413604020499E+03   -0.33132E-05   -0.30560E-07  1721   0.787E-04    0.886E-05
RMM:  20    -0.413604022280E+03   -0.17814E-05   -0.14702E-07  1252   0.637E-04    0.637E-05
RMM:  21    -0.413604023882E+03   -0.16015E-05   -0.93085E-08  1106   0.599E-04    0.336E-05
RMM:  22    -0.413604024661E+03   -0.77893E-06   -0.52690E-08   967   0.564E-04
  143 T=   146. E= -.41288747E+03 F= -.41360402E+03 E0= -.41358497E+03  EK= 0.71656E+00 SP= 0.00E+00 SK= 0.00E+00
       N       E                     dE             d eps       ncg     rms          rms(c)
RMM:   1    -0.413545077765E+03    0.58946E-01   -0.16392E+01  4264   0.812E+00    0.133E+00
RMM:   2    -0.413500255771E+03    0.44822E-01   -0.40236E-01  5215   0.814E-01    0.123E+00
RMM:   3    -0.413529085699E+03   -0.28830E-01   -0.11643E-01  5770   0.340E-01    0.129E+00
RMM:   4    -0.413492304101E+03    0.36782E-01   -0.50918E-02  4927   0.279E-01    0.492E-01
RMM:   5    -0.413493637928E+03   -0.13338E-02   -0.43798E-02  4970   0.263E-01    0.273E-01
RMM:   6    -0.413490187683E+03    0.34502E-02   -0.77101E-03  4826   0.118E-01    0.130E-01
RMM:   7    -0.413489787343E+03    0.40034E-03   -0.14195E-03  5310   0.506E-02    0.803E-02
RMM:   8    -0.413489623210E+03    0.16413E-03   -0.12232E-03  4687   0.440E-02    0.276E-02
RMM:   9    -0.413489632695E+03   -0.94858E-05   -0.34975E-04  5862   0.211E-02    0.187E-02
RMM:  10    -0.413489626417E+03    0.62786E-05   -0.58722E-05  5367   0.925E-03    0.980E-03
RMM:  11    -0.413489628795E+03   -0.23782E-05   -0.15367E-05  4282   0.472E-03    0.636E-03
RMM:  12    -0.413489636068E+03   -0.72734E-05   -0.44049E-06  3027   0.355E-03    0.344E-03
RMM:  13    -0.413489643285E+03   -0.72163E-05   -0.16964E-06  2616   0.217E-03    0.186E-03
RMM:  14    -0.413489648994E+03   -0.57094E-05   -0.11135E-06  2519   0.167E-03    0.852E-04
RMM:  15    -0.413489654401E+03   -0.54068E-05   -0.79820E-07  2369   0.134E-03    0.469E-04
RMM:  16    -0.413489660240E+03   -0.58392E-05   -0.74239E-07  2306   0.119E-03    0.345E-04
RMM:  17    -0.413489666851E+03   -0.66109E-05   -0.84731E-07  2197   0.115E-03    0.252E-04
RMM:  18    -0.413489671855E+03   -0.50040E-05   -0.60940E-07  1926   0.968E-04    0.147E-04
RMM:  19    -0.413489676009E+03   -0.41535E-05   -0.43563E-07  1785   0.862E-04    0.116E-04
RMM:  20    -0.413489678040E+03   -0.20313E-05   -0.19653E-07  1327   0.676E-04    0.807E-05
RMM:  21    -0.413489679592E+03   -0.15523E-05   -0.11135E-07  1126   0.612E-04    0.427E-05
RMM:  22    -0.413489680512E+03   -0.91992E-06   -0.66977E-08  1024   0.582E-04
  144 T=   123. E= -.41288753E+03 F= -.41348968E+03 E0= -.41347051E+03  EK= 0.60216E+00 SP= 0.00E+00 SK= 0.00E+00
       N       E                     dE             d eps       ncg     rms          rms(c)
RMM:   1    -0.413302125285E+03    0.18755E+00   -0.11698E+01  4264   0.688E+00    0.110E+00
RMM:   2    -0.413280141871E+03    0.21983E-01   -0.29283E-01  5305   0.672E-01    0.101E+00
RMM:   3    -0.413300305645E+03   -0.20164E-01   -0.82860E-02  5750   0.283E-01    0.107E+00
RMM:   4    -0.413274426311E+03    0.25879E-01   -0.35922E-02  4904   0.237E-01    0.373E-01
RMM:   5    -0.413275492806E+03   -0.10665E-02   -0.30431E-02  5019   0.215E-01    0.223E-01
RMM:   6    -0.413272876835E+03    0.26160E-02   -0.57783E-03  4847   0.101E-01    0.988E-02
RMM:   7    -0.413272628546E+03    0.24829E-03   -0.10366E-03  5337   0.425E-02    0.575E-02
RMM:   8    -0.413272551193E+03    0.77353E-04   -0.69610E-04  4688   0.340E-02    0.188E-02
RMM:   9    -0.413272557447E+03   -0.62537E-05   -0.18954E-04  5932   0.153E-02    0.139E-02
RMM:  10    -0.413272554432E+03    0.30150E-05   -0.30894E-05  4935   0.673E-03    0.752E-03
RMM:  11    -0.413272556545E+03   -0.21134E-05   -0.91630E-06  3711   0.397E-03    0.463E-03
RMM:  12    -0.413272561438E+03   -0.48925E-05   -0.25431E-06  2715   0.285E-03    0.231E-03
RMM:  13    -0.413272565759E+03   -0.43214E-05   -0.10743E-06  2517   0.173E-03    0.129E-03
RMM:  14    -0.413272569484E+03   -0.37248E-05   -0.73114E-07  2407   0.135E-03    0.634E-04
RMM:  15    -0.413272572862E+03   -0.33783E-05   -0.54623E-07  2144   0.109E-03    0.353E-04
RMM:  16    -0.413272576587E+03   -0.37244E-05   -0.51218E-07  2100   0.102E-03    0.233E-04
RMM:  17    -0.413272580998E+03   -0.44113E-05   -0.56855E-07  2062   0.100E-03    0.175E-04
RMM:  18    -0.413272584410E+03   -0.34126E-05   -0.40480E-07  1699   0.854E-04    0.107E-04
RMM:  19    -0.413272586646E+03   -0.22351E-05   -0.25610E-07  1560   0.748E-04    0.746E-05
RMM:  20    -0.413272588271E+03   -0.16254E-05   -0.14108E-07  1245   0.643E-04    0.550E-05
RMM:  21    -0.413272589224E+03   -0.95352E-06   -0.79489E-08  1055   0.589E-04
  145 T=    82. E= -.41286789E+03 F= -.41327259E+03 E0= -.41325320E+03  EK= 0.40470E+00 SP= 0.00E+00 SK= 0.00E+00
       N       E                     dE             d eps       ncg     rms          rms(c)
RMM:   1    -0.413219888258E+03    0.52700E-01   -0.73656E+00  4264   0.553E+00    0.646E-01
RMM:   2    -0.413211010024E+03    0.88782E-02   -0.16589E-01  5388   0.482E-01    0.544E-01
RMM:   3    -0.413224245120E+03   -0.13235E-01   -0.42639E-02  5776   0.206E-01    0.679E-01
RMM:   4    -0.413208914684E+03    0.15330E-01   -0.14958E-02  4887   0.154E-01    0.223E-01
RMM:   5    -0.413209492456E+03   -0.57777E-03   -0.11362E-02  4990   0.134E-01    0.131E-01
RMM:   6    -0.413208605494E+03    0.88696E-03   -0.27489E-03  5010   0.664E-02    0.612E-02
RMM:   7    -0.413208531682E+03    0.73812E-04   -0.53239E-04  5503   0.288E-02    0.359E-02
RMM:   8    -0.413208502358E+03    0.29324E-04   -0.20189E-04  4746   0.185E-02    0.142E-02
RMM:   9    -0.413208507278E+03   -0.49196E-05   -0.69887E-05  5567   0.943E-03    0.104E-02
RMM:  10    -0.413208506519E+03    0.75907E-06   -0.12591E-05  4065   0.450E-03    0.496E-03
RMM:  11    -0.413208507404E+03   -0.88492E-06   -0.40209E-06  2957   0.300E-03
  146 T=    69. E= -.41286999E+03 F= -.41320851E+03 E0= -.41318896E+03  EK= 0.33851E+00 SP= 0.00E+00 SK= 0.00E+00
       N       E                     dE             d eps       ncg     rms          rms(c)
RMM:   1    -0.413299432028E+03   -0.90926E-01   -0.84120E+00  4296   0.588E+00    0.122E+00
RMM:   2    -0.413338761794E+03   -0.39330E-01   -0.26871E-01  5364   0.626E-01    0.128E+00
RMM:   3    -0.413301699164E+03    0.37063E-01   -0.10056E-01  5370   0.351E-01    0.103E+00
RMM:   4    -0.413283626881E+03    0.18072E-01   -0.73077E-02  5273   0.310E-01    0.493E-01
RMM:   5    -0.413279503327E+03    0.41236E-02   -0.36738E-02  4914   0.242E-01    0.227E-01
RMM:   6    -0.413277236701E+03    0.22666E-02   -0.12129E-02  5116   0.138E-01    0.118E-01
RMM:   7    -0.413276785876E+03    0.45083E-03   -0.81097E-04  4474   0.472E-02    0.510E-02
RMM:   8    -0.413276760828E+03    0.25048E-04   -0.40782E-04  5281   0.256E-02    0.252E-02
RMM:   9    -0.413276767356E+03   -0.65285E-05   -0.14838E-04  5565   0.147E-02    0.176E-02
RMM:  10    -0.413276761410E+03    0.59461E-05   -0.33282E-05  5164   0.717E-03    0.766E-03
RMM:  11    -0.413276763900E+03   -0.24903E-05   -0.24409E-05  5003   0.549E-03    0.503E-03
RMM:  12    -0.413276765099E+03   -0.11991E-05   -0.26376E-06  2712   0.266E-03    0.264E-03
RMM:  13    -0.413276765498E+03   -0.39881E-06   -0.99219E-07  2497   0.172E-03
  147 T=    80. E= -.41288614E+03 F= -.41327677E+03 E0= -.41325723E+03  EK= 0.39062E+00 SP= 0.00E+00 SK= 0.00E+00
       N       E                     dE             d eps       ncg     rms          rms(c)
RMM:   1    -0.413290735562E+03   -0.13970E-01   -0.91892E+00  4299   0.598E+00    0.140E+00
RMM:   2    -0.413377627675E+03   -0.86892E-01   -0.40911E-01  5375   0.746E-01    0.164E+00
RMM:   3    -0.413290343855E+03    0.87284E-01   -0.14664E-01  5255   0.429E-01    0.117E+00
RMM:   4    -0.413266892533E+03    0.23451E-01   -0.10090E-01  5323   0.364E-01    0.593E-01
RMM:   5    -0.413263633960E+03    0.32586E-02   -0.46175E-02  5011   0.268E-01    0.307E-01
RMM:   6    -0.413259962123E+03    0.36718E-02   -0.19364E-02  5078   0.172E-01    0.151E-01
RMM:   7    -0.413259233760E+03    0.72836E-03   -0.13714E-03  4444   0.617E-02    0.567E-02
RMM:   8    -0.413259204909E+03    0.28851E-04   -0.43278E-04  5235   0.269E-02    0.300E-02
RMM:   9    -0.413259215043E+03   -0.10135E-04   -0.19760E-04  5380   0.171E-02    0.180E-02
RMM:  10    -0.413259210868E+03    0.41748E-05   -0.37325E-05  5197   0.757E-03    0.919E-03
RMM:  11    -0.413259212655E+03   -0.17863E-05   -0.28248E-05  5131   0.602E-03    0.518E-03
RMM:  12    -0.413259214480E+03   -0.18251E-05   -0.40144E-06  2909   0.304E-03    0.307E-03
RMM:  13    -0.413259214890E+03   -0.41060E-06   -0.13651E-06  2546   0.194E-03
  148 T=    77. E= -.41288179E+03 F= -.41325921E+03 E0= -.41323978E+03  EK= 0.37742E+00 SP= 0.00E+00 SK= 0.00E+00
       N       E                     dE             d eps       ncg     rms          rms(c)
RMM:   1    -0.413198359635E+03    0.60855E-01   -0.71546E+00  4297   0.512E+00    0.103E+00
RMM:   2    -0.413274961755E+03   -0.76602E-01   -0.35529E-01  5407   0.669E-01    0.140E+00
RMM:   3    -0.413198177725E+03    0.76784E-01   -0.10344E-01  5238   0.364E-01    0.891E-01
RMM:   4    -0.413182724849E+03    0.15453E-01   -0.57451E-02  5375   0.279E-01    0.458E-01
RMM:   5    -0.413182559104E+03    0.16574E-03   -0.24033E-02  5118   0.193E-01    0.262E-01
RMM:   6    -0.413180490150E+03    0.20690E-02   -0.13830E-02  5065   0.141E-01    0.134E-01
RMM:   7    -0.413179884309E+03    0.60584E-03   -0.12299E-03  4453   0.565E-02    0.490E-02
RMM:   8    -0.413179873578E+03    0.10731E-04   -0.37546E-04  5350   0.239E-02    0.278E-02
RMM:   9    -0.413179876331E+03   -0.27534E-05   -0.13400E-04  5056   0.143E-02    0.143E-02
RMM:  10    -0.413179873805E+03    0.25263E-05   -0.28931E-05  4946   0.663E-03    0.771E-03
RMM:  11    -0.413179873673E+03    0.13154E-06   -0.19160E-05  4823   0.515E-03    0.459E-03
RMM:  12    -0.413179873419E+03    0.25381E-06   -0.28918E-06  2748   0.270E-03
  149 T=    62. E= -.41287367E+03 F= -.41317987E+03 E0= -.41316040E+03  EK= 0.30620E+00 SP= 0.00E+00 SK= 0.00E+00
       N       E                     dE             d eps       ncg     rms          rms(c)
RMM:   1    -0.413159624410E+03    0.20249E-01   -0.52918E+00  4279   0.417E+00    0.655E-01
RMM:   2    -0.413194692270E+03   -0.35068E-01   -0.24015E-01  5431   0.532E-01    0.950E-01
RMM:   3    -0.413159873348E+03    0.34819E-01   -0.51307E-02  5273   0.257E-01    0.602E-01
RMM:   4    -0.413152024450E+03    0.78489E-02   -0.23166E-02  5380   0.183E-01    0.314E-01
RMM:   5    -0.413152292532E+03   -0.26808E-03   -0.88974E-03  5087   0.122E-01    0.171E-01
RMM:   6    -0.413151805448E+03    0.48708E-03   -0.71577E-03  5099   0.987E-02    0.986E-02
RMM:   7    -0.413151356588E+03    0.44886E-03   -0.89376E-04  4575   0.451E-02    0.362E-02
RMM:   8    -0.413151364002E+03   -0.74139E-05   -0.29099E-04  5739   0.199E-02    0.225E-02
RMM:   9    -0.413151360846E+03    0.31558E-05   -0.67696E-05  4834   0.106E-02    0.932E-03
RMM:  10    -0.413151358929E+03    0.19173E-05   -0.17517E-05  4482   0.509E-03    0.537E-03
RMM:  11    -0.413151357179E+03    0.17495E-05   -0.75867E-06  3714   0.370E-03    0.338E-03
RMM:  12    -0.413151355349E+03    0.18310E-05   -0.16210E-06  2541   0.225E-03    0.221E-03
RMM:  13    -0.413151353771E+03    0.15776E-05   -0.77656E-07  2469   0.148E-03    0.908E-04
RMM:  14    -0.413151351985E+03    0.17857E-05   -0.51039E-07  2103   0.110E-03    0.556E-04
RMM:  15    -0.413151348397E+03    0.35878E-05   -0.56019E-07  2016   0.104E-03    0.322E-04
RMM:  16    -0.413151345817E+03    0.25805E-05   -0.31107E-07  1563   0.811E-04    0.195E-04
RMM:  17    -0.413151340610E+03    0.52072E-05   -0.48000E-07  1928   0.933E-04    0.196E-04
RMM:  18    -0.413151337402E+03    0.32073E-05   -0.24765E-07  1362   0.720E-04    0.106E-04
RMM:  19    -0.413151333865E+03    0.35376E-05   -0.22514E-07  1495   0.712E-04    0.888E-05
RMM:  20    -0.413151332587E+03    0.12775E-05   -0.97058E-08  1120   0.597E-04    0.499E-05
RMM:  21    -0.413151331924E+03    0.66311E-06   -0.49202E-08   955   0.553E-04
  150 T=    57. E= -.41287046E+03 F= -.41315133E+03 E0= -.41313160E+03  EK= 0.28087E+00 SP= 0.00E+00 SK= 0.00E+00
