       N       E                     dE             d eps       ncg     rms          rms(c)
RMM:   1     0.220129032217E+04    0.22013E+04   -0.52444E+04  2132   0.654E+02
RMM:   2     0.705358519906E+03   -0.14959E+04   -0.16264E+04  2132   0.177E+02
RMM:   3     0.137598271764E+03   -0.56776E+03   -0.65734E+03  2132   0.117E+02
RMM:   4    -0.159279011206E+03   -0.29688E+03   -0.27866E+03  2132   0.936E+01
RMM:   5    -0.287251143143E+03   -0.12797E+03   -0.11433E+03  2132   0.595E+01
RMM:   6    -0.349659184825E+03   -0.62408E+02   -0.55187E+02  2132   0.423E+01
RMM:   7    -0.382666548461E+03   -0.33007E+02   -0.30496E+02  2132   0.293E+01
RMM:   8    -0.404153411071E+03   -0.21487E+02   -0.18459E+02  2132   0.234E+01
RMM:   9    -0.435999780632E+03   -0.31846E+02   -0.30737E+02  6107   0.173E+01
RMM:  10    -0.441296278373E+03   -0.52965E+01   -0.63117E+01  6395   0.540E+00
RMM:  11    -0.442498003580E+03   -0.12017E+01   -0.11033E+01  6213   0.172E+00
RMM:  12    -0.442881408151E+03   -0.38340E+00   -0.26578E+00  6372   0.600E-01    0.134E+02
RMM:  13    -0.425652295338E+03    0.17229E+02   -0.81167E+01  4675   0.119E+01    0.712E+01
RMM:  14    -0.500626707243E+03   -0.74974E+02   -0.54499E+02  5412   0.233E+01    0.309E+01
RMM:  15    -0.416623102774E+03    0.84004E+02   -0.20119E+02  5098   0.164E+01    0.752E+00
RMM:  16    -0.413994411413E+03    0.26287E+01   -0.40096E+01  6088   0.616E+00    0.427E+00
RMM:  17    -0.413203030137E+03    0.79138E+00   -0.25928E+00  5415   0.191E+00    0.241E+00
RMM:  18    -0.413180480724E+03    0.22549E-01   -0.72829E-01  6001   0.872E-01    0.170E+00
RMM:  19    -0.413172492403E+03    0.79883E-02   -0.26853E-01  5634   0.568E-01    0.892E-01
RMM:  20    -0.413191496055E+03   -0.19004E-01   -0.29271E-01  5583   0.561E-01    0.635E-01
RMM:  21    -0.413169317977E+03    0.22178E-01   -0.36135E-02  4981   0.251E-01    0.280E-01
RMM:  22    -0.413166229809E+03    0.30882E-02   -0.20770E-02  5940   0.137E-01    0.134E-01
RMM:  23    -0.413165103642E+03    0.11262E-02   -0.52289E-03  6016   0.650E-02    0.852E-02
RMM:  24    -0.413163687308E+03    0.14163E-02   -0.15536E-03  5269   0.412E-02    0.556E-02
RMM:  25    -0.413162901144E+03    0.78616E-03   -0.89506E-04  5236   0.313E-02    0.382E-02
RMM:  26    -0.413162973235E+03   -0.72090E-04   -0.10735E-03  5858   0.330E-02    0.362E-02
RMM:  27    -0.413163348599E+03   -0.37536E-03   -0.19631E-04  4584   0.208E-02    0.219E-02
RMM:  28    -0.413163758776E+03   -0.41018E-03   -0.17645E-04  5258   0.187E-02    0.957E-03
RMM:  29    -0.413164147390E+03   -0.38861E-03   -0.11110E-04  4563   0.163E-02    0.456E-03
RMM:  30    -0.413164378623E+03   -0.23123E-03   -0.81490E-05  4460   0.108E-02    0.468E-03
RMM:  31    -0.413164511663E+03   -0.13304E-03   -0.57742E-05  3260   0.744E-03    0.394E-03
RMM:  32    -0.413164532518E+03   -0.20854E-04   -0.21396E-05  2999   0.325E-03    0.200E-03
RMM:  33    -0.413164541311E+03   -0.87939E-05   -0.86539E-06  2806   0.238E-03    0.701E-04
RMM:  34    -0.413164541423E+03   -0.11153E-06   -0.48836E-06  2631   0.169E-03
    1 T=    61. E= -.41286674E+03 F= -.41316454E+03 E0= -.41314204E+03  EK= 0.29780E+00 SP= 0.00E+00 SK= 0.00E+00
       N       E                     dE             d eps       ncg     rms          rms(c)
RMM:   1    -0.413171741742E+03   -0.72004E-02   -0.67637E+00  3987   0.516E-01    0.901E-01
RMM:   2    -0.413170962435E+03    0.77931E-03   -0.86142E-02  3866   0.755E-02    0.662E-01
RMM:   3    -0.413166265184E+03    0.46973E-02   -0.42555E-02  4988   0.686E-02    0.246E-01
RMM:   4    -0.413188313665E+03   -0.22048E-01   -0.28650E-02  5179   0.143E-01    0.647E-01
RMM:   5    -0.413164044139E+03    0.24270E-01   -0.11826E-02  4807   0.110E-01    0.484E-02
RMM:   6    -0.413164217937E+03   -0.17380E-03   -0.21427E-03  5721   0.454E-02    0.328E-02
RMM:   7    -0.413164232980E+03   -0.15043E-04   -0.38776E-04  5739   0.178E-02    0.208E-02
RMM:   8    -0.413164232011E+03    0.96898E-06   -0.45152E-05  5029   0.746E-03    0.792E-03
RMM:   9    -0.413164235338E+03   -0.33274E-05   -0.98486E-06  3382   0.328E-03    0.552E-03
RMM:  10    -0.413164240882E+03   -0.55434E-05   -0.20284E-06  2572   0.212E-03    0.325E-03
RMM:  11    -0.413164245028E+03   -0.41460E-05   -0.11674E-06  2514   0.155E-03    0.166E-03
RMM:  12    -0.413164250989E+03   -0.59611E-05   -0.12429E-06  2520   0.153E-03    0.778E-04
RMM:  13    -0.413164253740E+03   -0.27511E-05   -0.59535E-07  2258   0.111E-03    0.528E-04
RMM:  14    -0.413164253914E+03   -0.17438E-06   -0.32165E-07  1702   0.785E-04
    2 T=    61. E= -.41286647E+03 F= -.41316425E+03 E0= -.41314175E+03  EK= 0.29778E+00 SP= 0.00E+00 SK= 0.00E+00
       N       E                     dE             d eps       ncg     rms          rms(c)
RMM:   1    -0.413172774475E+03   -0.85207E-02   -0.67243E+00  4191   0.515E-01    0.916E-01
RMM:   2    -0.413171203259E+03    0.15712E-02   -0.86361E-02  3927   0.746E-02    0.660E-01
RMM:   3    -0.413167264605E+03    0.39387E-02   -0.39556E-02  5068   0.692E-02    0.241E-01
RMM:   4    -0.413191872359E+03   -0.24608E-01   -0.33050E-02  5145   0.154E-01    0.685E-01
RMM:   5    -0.413164613145E+03    0.27259E-01   -0.12567E-02  4769   0.115E-01    0.494E-02
RMM:   6    -0.413164803253E+03   -0.19011E-03   -0.23105E-03  5696   0.475E-02    0.349E-02
RMM:   7    -0.413164802935E+03    0.31819E-06   -0.41258E-04  5661   0.190E-02    0.229E-02
RMM:   8    -0.413164793980E+03    0.89554E-05   -0.54364E-05  5222   0.856E-03    0.962E-03
RMM:   9    -0.413164792012E+03    0.19680E-05   -0.10955E-05  3606   0.373E-03    0.624E-03
RMM:  10    -0.413164792277E+03   -0.26585E-06   -0.20066E-06  2574   0.228E-03
    3 T=    61. E= -.41286674E+03 F= -.41316479E+03 E0= -.41314230E+03  EK= 0.29805E+00 SP= 0.00E+00 SK= 0.00E+00
       N       E                     dE             d eps       ncg     rms          rms(c)
RMM:   1    -0.413172147002E+03   -0.73550E-02   -0.66823E+00  4217   0.521E-01    0.902E-01
RMM:   2    -0.413170844978E+03    0.13020E-02   -0.85882E-02  4226   0.736E-02    0.654E-01
RMM:   3    -0.413173491124E+03   -0.26461E-02   -0.43921E-02  5173   0.101E-01    0.414E-01
RMM:   4    -0.413180270367E+03   -0.67792E-02   -0.31972E-02  5081   0.156E-01    0.531E-01
RMM:   5    -0.413164528070E+03    0.15742E-01   -0.65946E-03  4598   0.887E-02    0.502E-02
RMM:   6    -0.413164555694E+03   -0.27623E-04   -0.12228E-03  5369   0.347E-02    0.307E-02
RMM:   7    -0.413164571792E+03   -0.16098E-04   -0.24260E-04  5657   0.150E-02    0.183E-02
RMM:   8    -0.413164570285E+03    0.15067E-05   -0.36927E-05  4953   0.726E-03    0.672E-03
RMM:   9    -0.413164570255E+03    0.30414E-07   -0.44293E-06  2855   0.273E-03
    4 T=    61. E= -.41286650E+03 F= -.41316457E+03 E0= -.41314208E+03  EK= 0.29807E+00 SP= 0.00E+00 SK= 0.00E+00
       N       E                     dE             d eps       ncg     rms          rms(c)
RMM:   1    -0.413172104449E+03   -0.75342E-02   -0.67659E+00  4237   0.529E-01    0.899E-01
RMM:   2    -0.413171223461E+03    0.88099E-03   -0.86409E-02  4081   0.733E-02    0.661E-01
RMM:   3    -0.413170945640E+03    0.27782E-03   -0.45005E-02  5127   0.903E-02    0.364E-01
RMM:   4    -0.413185114482E+03   -0.14169E-01   -0.33136E-02  5095   0.157E-01    0.605E-01
RMM:   5    -0.413164622932E+03    0.20492E-01   -0.92939E-03  4674   0.101E-01    0.497E-02
RMM:   6    -0.413164719196E+03   -0.96264E-04   -0.16082E-03  5563   0.399E-02    0.307E-02
RMM:   7    -0.413164735269E+03   -0.16073E-04   -0.30341E-04  5715   0.161E-02    0.194E-02
RMM:   8    -0.413164735719E+03   -0.45003E-06   -0.40076E-05  4963   0.761E-03    0.710E-03
RMM:   9    -0.413164737941E+03   -0.22218E-05   -0.61553E-06  3051   0.298E-03    0.415E-03
RMM:  10    -0.413164742594E+03   -0.46525E-05   -0.15255E-06  2538   0.197E-03    0.253E-03
RMM:  11    -0.413164746104E+03   -0.35104E-05   -0.87137E-07  2488   0.145E-03    0.125E-03
RMM:  12    -0.413164750629E+03   -0.45252E-05   -0.93200E-07  2493   0.135E-03    0.610E-04
RMM:  13    -0.413164752947E+03   -0.23180E-05   -0.50615E-07  2062   0.102E-03    0.362E-04
RMM:  14    -0.413164753477E+03   -0.52981E-06   -0.22802E-07  1532   0.772E-04
    5 T=    61. E= -.41286651E+03 F= -.41316475E+03 E0= -.41314228E+03  EK= 0.29824E+00 SP= 0.00E+00 SK= 0.00E+00
       N       E                     dE             d eps       ncg     rms          rms(c)
RMM:   1    -0.413173060766E+03   -0.83078E-02   -0.67443E+00  4245   0.530E-01    0.914E-01
RMM:   2    -0.413171539069E+03    0.15217E-02   -0.86359E-02  4049   0.734E-02    0.661E-01
RMM:   3    -0.413168252037E+03    0.32870E-02   -0.40470E-02  5071   0.716E-02    0.264E-01
RMM:   4    -0.413191724154E+03   -0.23472E-01   -0.33825E-02  5124   0.156E-01    0.679E-01
RMM:   5    -0.413165045879E+03    0.26678E-01   -0.12261E-02  4741   0.114E-01    0.500E-02
RMM:   6    -0.413165214602E+03   -0.16872E-03   -0.21858E-03  5652   0.464E-02    0.339E-02
RMM:   7    -0.413165213153E+03    0.14490E-05   -0.38955E-04  5659   0.184E-02    0.222E-02
RMM:   8    -0.413165207209E+03    0.59441E-05   -0.53402E-05  5197   0.828E-03    0.907E-03
RMM:   9    -0.413165206247E+03    0.96208E-06   -0.95065E-06  3488   0.359E-03
    6 T=    61. E= -.41286670E+03 F= -.41316521E+03 E0= -.41314274E+03  EK= 0.29851E+00 SP= 0.00E+00 SK= 0.00E+00
       N       E                     dE             d eps       ncg     rms          rms(c)
RMM:   1    -0.413172632437E+03   -0.74252E-02   -0.67009E+00  4271   0.534E-01    0.908E-01
RMM:   2    -0.413171278991E+03    0.13534E-02   -0.86070E-02  4314   0.744E-02    0.656E-01
RMM:   3    -0.413175614222E+03   -0.43352E-02   -0.44438E-02  5169   0.107E-01    0.446E-01
RMM:   4    -0.413178846263E+03   -0.32320E-02   -0.31907E-02  5065   0.156E-01    0.499E-01
RMM:   5    -0.413164969896E+03    0.13876E-01   -0.57071E-03  4576   0.842E-02    0.503E-02
RMM:   6    -0.413164979119E+03   -0.92229E-05   -0.10430E-03  5320   0.323E-02    0.309E-02
RMM:   7    -0.413164994806E+03   -0.15687E-04   -0.21861E-04  5567   0.145E-02    0.177E-02
RMM:   8    -0.413164990089E+03    0.47171E-05   -0.34539E-05  4867   0.732E-03    0.633E-03
RMM:   9    -0.413164988505E+03    0.15842E-05   -0.42253E-06  2807   0.269E-03    0.328E-03
RMM:  10    -0.413164988226E+03    0.27929E-06   -0.11694E-06  2507   0.176E-03
    7 T=    61. E= -.41286646E+03 F= -.41316499E+03 E0= -.41314254E+03  EK= 0.29853E+00 SP= 0.00E+00 SK= 0.00E+00
       N       E                     dE             d eps       ncg     rms          rms(c)
RMM:   1    -0.413172887853E+03   -0.78993E-02   -0.67601E+00  4268   0.542E-01    0.897E-01
RMM:   2    -0.413172205723E+03    0.68213E-03   -0.86197E-02  4081   0.753E-02    0.659E-01
RMM:   3    -0.413168879697E+03    0.33260E-02   -0.42684E-02  5034   0.763E-02    0.285E-01
RMM:   4    -0.413191410338E+03   -0.22531E-01   -0.33136E-02  5111   0.155E-01    0.672E-01
RMM:   5    -0.413165407827E+03    0.26003E-01   -0.12165E-02  4739   0.113E-01    0.485E-02
RMM:   6    -0.413165590823E+03   -0.18300E-03   -0.21646E-03  5669   0.458E-02    0.332E-02
RMM:   7    -0.413165590461E+03    0.36231E-06   -0.38450E-04  5640   0.187E-02    0.218E-02
RMM:   8    -0.413165584100E+03    0.63611E-05   -0.51405E-05  5089   0.846E-03    0.898E-03
RMM:   9    -0.413165584404E+03   -0.30465E-06   -0.99744E-06  3463   0.362E-03
    8 T=    61. E= -.41286671E+03 F= -.41316558E+03 E0= -.41314316E+03  EK= 0.29887E+00 SP= 0.00E+00 SK= 0.00E+00
       N       E                     dE             d eps       ncg     rms          rms(c)
RMM:   1    -0.413173334268E+03   -0.77502E-02   -0.67729E+00  4290   0.545E-01    0.910E-01
RMM:   2    -0.413172307911E+03    0.10264E-02   -0.86373E-02  4333   0.789E-02    0.662E-01
RMM:   3    -0.413178087549E+03   -0.57796E-02   -0.47335E-02  5149   0.115E-01    0.482E-01
RMM:   4    -0.413178474633E+03   -0.38708E-03   -0.31978E-02  5042   0.158E-01    0.483E-01
RMM:   5    -0.413165734902E+03    0.12740E-01   -0.54688E-03  4545   0.822E-02    0.491E-02
RMM:   6    -0.413165734261E+03    0.64126E-06   -0.94437E-04  5273   0.306E-02    0.302E-02
RMM:   7    -0.413165750468E+03   -0.16208E-04   -0.20285E-04  5460   0.140E-02    0.169E-02
RMM:   8    -0.413165750566E+03   -0.98153E-07   -0.31922E-05  4783   0.711E-03    0.581E-03
RMM:   9    -0.413165750711E+03   -0.14504E-06   -0.38017E-06  2770   0.255E-03
    9 T=    61. E= -.41286660E+03 F= -.41316575E+03 E0= -.41314334E+03  EK= 0.29915E+00 SP= 0.00E+00 SK= 0.00E+00
       N       E                     dE             d eps       ncg     rms          rms(c)
RMM:   1    -0.413173761971E+03   -0.80114E-02   -0.67396E+00  4288   0.556E-01    0.914E-01
RMM:   2    -0.413172196459E+03    0.15655E-02   -0.86829E-02  4213   0.770E-02    0.658E-01
RMM:   3    -0.413170877832E+03    0.13186E-02   -0.40501E-02  5097   0.855E-02    0.319E-01
RMM:   4    -0.413188104195E+03   -0.17226E-01   -0.33793E-02  5089   0.157E-01    0.624E-01
RMM:   5    -0.413165720562E+03    0.22384E-01   -0.96328E-03  4697   0.103E-01    0.505E-02
RMM:   6    -0.413165833487E+03   -0.11293E-03   -0.18185E-03  5609   0.419E-02    0.331E-02
RMM:   7    -0.413165829715E+03    0.37723E-05   -0.33288E-04  5676   0.171E-02    0.210E-02
RMM:   8    -0.413165823071E+03    0.66436E-05   -0.44059E-05  5049   0.780E-03    0.803E-03
RMM:   9    -0.413165819805E+03    0.32659E-05   -0.70479E-06  3137   0.319E-03    0.468E-03
RMM:  10    -0.413165817702E+03    0.21033E-05   -0.16900E-06  2536   0.210E-03    0.280E-03
RMM:  11    -0.413165815980E+03    0.17216E-05   -0.89579E-07  2487   0.151E-03    0.143E-03
RMM:  12    -0.413165812909E+03    0.30717E-05   -0.99209E-07  2497   0.145E-03    0.710E-04
RMM:  13    -0.413165810384E+03    0.25243E-05   -0.52502E-07  2201   0.109E-03    0.456E-04
RMM:  14    -0.413165809610E+03    0.77426E-06   -0.21949E-07  1635   0.786E-04
   10 T=    61. E= -.41286640E+03 F= -.41316581E+03 E0= -.41314342E+03  EK= 0.29941E+00 SP= 0.00E+00 SK= 0.00E+00
       N       E                     dE             d eps       ncg     rms          rms(c)
RMM:   1    -0.413174638725E+03   -0.88283E-02   -0.67661E+00  4292   0.565E-01    0.897E-01
RMM:   2    -0.413173069060E+03    0.15697E-02   -0.87051E-02  4202   0.757E-02    0.657E-01
RMM:   3    -0.413169848220E+03    0.32208E-02   -0.41653E-02  5042   0.752E-02    0.279E-01
RMM:   4    -0.413192836349E+03   -0.22988E-01   -0.33815E-02  5109   0.156E-01    0.677E-01
RMM:   5    -0.413166400697E+03    0.26436E-01   -0.12320E-02  4739   0.113E-01    0.492E-02
RMM:   6    -0.413166564631E+03   -0.16393E-03   -0.21554E-03  5650   0.458E-02    0.333E-02
RMM:   7    -0.413166571296E+03   -0.66644E-05   -0.38258E-04  5619   0.182E-02    0.217E-02
RMM:   8    -0.413166568925E+03    0.23711E-05   -0.51120E-05  5152   0.817E-03    0.880E-03
RMM:   9    -0.413166568625E+03    0.29921E-06   -0.93523E-06  3467   0.353E-03
   11 T=    61. E= -.41286666E+03 F= -.41316657E+03 E0= -.41314421E+03  EK= 0.29991E+00 SP= 0.00E+00 SK= 0.00E+00
       N       E                     dE             d eps       ncg     rms          rms(c)
RMM:   1    -0.413174070856E+03   -0.75019E-02   -0.68146E+00  4299   0.559E-01    0.908E-01
RMM:   2    -0.413173004199E+03    0.10667E-02   -0.87022E-02  4357   0.748E-02    0.664E-01
RMM:   3    -0.413178726123E+03   -0.57219E-02   -0.47950E-02  5151   0.114E-01    0.481E-01
RMM:   4    -0.413179710924E+03   -0.98480E-03   -0.32575E-02  5036   0.158E-01    0.493E-01
RMM:   5    -0.413166516630E+03    0.13194E-01   -0.57922E-03  4544   0.835E-02    0.490E-02
RMM:   6    -0.413166522662E+03   -0.60312E-05   -0.98818E-04  5277   0.311E-02    0.300E-02
RMM:   7    -0.413166538219E+03   -0.15558E-04   -0.20786E-04  5448   0.143E-02    0.170E-02
RMM:   8    -0.413166537810E+03    0.40915E-06   -0.32837E-05  4831   0.697E-03    0.585E-03
RMM:   9    -0.413166538063E+03   -0.25271E-06   -0.37096E-06  2764   0.256E-03
   12 T=    61. E= -.41286635E+03 F= -.41316654E+03 E0= -.41314421E+03  EK= 0.30019E+00 SP= 0.00E+00 SK= 0.00E+00
       N       E                     dE             d eps       ncg     rms          rms(c)
RMM:   1    -0.413175034613E+03   -0.84968E-02   -0.67830E+00  4299   0.564E-01    0.918E-01
RMM:   2    -0.413173329980E+03    0.17046E-02   -0.87229E-02  4253   0.749E-02    0.661E-01
RMM:   3    -0.413172564975E+03    0.76501E-03   -0.40629E-02  5117   0.851E-02    0.327E-01
RMM:   4    -0.413188908783E+03   -0.16344E-01   -0.34091E-02  5085   0.158E-01    0.616E-01
RMM:   5    -0.413167066477E+03    0.21842E-01   -0.92767E-03  4685   0.102E-01    0.508E-02
RMM:   6    -0.413167169402E+03   -0.10293E-03   -0.17708E-03  5582   0.413E-02    0.330E-02
RMM:   7    -0.413167160247E+03    0.91546E-05   -0.32485E-04  5681   0.170E-02    0.210E-02
RMM:   8    -0.413167150548E+03    0.96993E-05   -0.44533E-05  5022   0.796E-03    0.802E-03
RMM:   9    -0.413167146671E+03    0.38768E-05   -0.71728E-06  3138   0.322E-03    0.459E-03
RMM:  10    -0.413167143727E+03    0.29442E-05   -0.16618E-06  2535   0.210E-03    0.274E-03
RMM:  11    -0.413167141282E+03    0.24454E-05   -0.89064E-07  2482   0.152E-03    0.140E-03
RMM:  12    -0.413167136923E+03    0.43588E-05   -0.94049E-07  2487   0.145E-03    0.690E-04
RMM:  13    -0.413167133770E+03    0.31525E-05   -0.47498E-07  2180   0.108E-03    0.436E-04
RMM:  14    -0.413167132635E+03    0.11355E-05   -0.21034E-07  1602   0.781E-04    0.288E-04
RMM:  15    -0.413167128557E+03    0.40778E-05   -0.27254E-07  1805   0.826E-04    0.344E-04
RMM:  16    -0.413167123712E+03    0.48453E-05   -0.27751E-07  1578   0.759E-04    0.357E-04
RMM:  17    -0.413167122610E+03    0.11015E-05   -0.83520E-08   968   0.561E-04    0.254E-04
RMM:  18    -0.413167120387E+03    0.22229E-05   -0.89195E-08  1128   0.594E-04    0.931E-05
RMM:  19    -0.413167119354E+03    0.10329E-05   -0.57366E-08  1026   0.566E-04    0.641E-05
RMM:  20    -0.413167118892E+03    0.46238E-06   -0.23416E-08   743   0.521E-04
   13 T=    61. E= -.41286648E+03 F= -.41316712E+03 E0= -.41314482E+03  EK= 0.30064E+00 SP= 0.00E+00 SK= 0.00E+00
       N       E                     dE             d eps       ncg     rms          rms(c)
RMM:   1    -0.413175078659E+03   -0.79593E-02   -0.67687E+00  4293   0.568E-01    0.899E-01
RMM:   2    -0.413174129821E+03    0.94884E-03   -0.86505E-02  4243   0.766E-02    0.657E-01
RMM:   3    -0.413171029411E+03    0.31004E-02   -0.40842E-02  5049   0.744E-02    0.274E-01
RMM:   4    -0.413194219742E+03   -0.23190E-01   -0.34131E-02  5099   0.156E-01    0.678E-01
RMM:   5    -0.413167628624E+03    0.26591E-01   -0.12278E-02  4732   0.113E-01    0.491E-02
RMM:   6    -0.413167803227E+03   -0.17460E-03   -0.21695E-03  5634   0.458E-02    0.339E-02
RMM:   7    -0.413167806881E+03   -0.36533E-05   -0.38413E-04  5564   0.185E-02    0.221E-02
RMM:   8    -0.413167800203E+03    0.66778E-05   -0.52822E-05  5174   0.833E-03    0.907E-03
RMM:   9    -0.413167798429E+03    0.17736E-05   -0.95067E-06  3503   0.362E-03    0.571E-03
RMM:  10    -0.413167799163E+03   -0.73431E-06   -0.17909E-06  2538   0.218E-03
   14 T=    61. E= -.41286669E+03 F= -.41316780E+03 E0= -.41314553E+03  EK= 0.30110E+00 SP= 0.00E+00 SK= 0.00E+00
       N       E                     dE             d eps       ncg     rms          rms(c)
RMM:   1    -0.413175228579E+03   -0.74301E-02   -0.68608E+00  4304   0.573E-01    0.906E-01
RMM:   2    -0.413174499787E+03    0.72879E-03   -0.87328E-02  4293   0.765E-02    0.665E-01
RMM:   3    -0.413176777935E+03   -0.22781E-02   -0.46342E-02  5129   0.103E-01    0.422E-01
RMM:   4    -0.413184651248E+03   -0.78733E-02   -0.33114E-02  5052   0.158E-01    0.552E-01
RMM:   5    -0.413167802805E+03    0.16848E-01   -0.74425E-03  4594   0.928E-02    0.495E-02
RMM:   6    -0.413167855796E+03   -0.52992E-04   -0.13387E-03  5401   0.353E-02    0.304E-02
RMM:   7    -0.413167862243E+03   -0.64461E-05   -0.25436E-04  5561   0.155E-02    0.183E-02
RMM:   8    -0.413167857380E+03    0.48625E-05   -0.37401E-05  4861   0.772E-03    0.655E-03
RMM:   9    -0.413167857706E+03   -0.32592E-06   -0.56732E-06  2914   0.301E-03
   15 T=    61. E= -.41286639E+03 F= -.41316786E+03 E0= -.41314562E+03  EK= 0.30147E+00 SP= 0.00E+00 SK= 0.00E+00
       N       E                     dE             d eps       ncg     rms          rms(c)
RMM:   1    -0.413176715778E+03   -0.88584E-02   -0.68289E+00  4301   0.573E-01    0.920E-01
RMM:   2    -0.413175368442E+03    0.13473E-02   -0.87633E-02  4271   0.771E-02    0.663E-01
RMM:   3    -0.413175209276E+03    0.15917E-03   -0.41337E-02  5110   0.913E-02    0.351E-01
RMM:   4    -0.413189105754E+03   -0.13896E-01   -0.33837E-02  5066   0.158E-01    0.595E-01
RMM:   5    -0.413168815387E+03    0.20290E-01   -0.85111E-03  4660   0.992E-02    0.507E-02
RMM:   6    -0.413168892071E+03   -0.76683E-04   -0.16207E-03  5540   0.395E-02    0.326E-02
RMM:   7    -0.413168893660E+03   -0.15890E-05   -0.30369E-04  5637   0.168E-02    0.202E-02
RMM:   8    -0.413168885793E+03    0.78663E-05   -0.43470E-05  5004   0.792E-03    0.759E-03
RMM:   9    -0.413168882351E+03    0.34428E-05   -0.66527E-06  3074   0.314E-03    0.426E-03
RMM:  10    -0.413168879361E+03    0.29896E-05   -0.16198E-06  2533   0.207E-03    0.255E-03
RMM:  11    -0.413168876676E+03    0.26851E-05   -0.84782E-07  2471   0.148E-03    0.128E-03
RMM:  12    -0.413168872099E+03    0.45771E-05   -0.83966E-07  2477   0.138E-03    0.645E-04
RMM:  13    -0.413168868371E+03    0.37275E-05   -0.43461E-07  2100   0.103E-03    0.394E-04
RMM:  14    -0.413168866919E+03    0.14522E-05   -0.19579E-07  1539   0.759E-04    0.250E-04
RMM:  15    -0.413168860454E+03    0.64651E-05   -0.34680E-07  1972   0.882E-04    0.468E-04
RMM:  16    -0.413168856576E+03    0.38778E-05   -0.16227E-07  1187   0.642E-04    0.312E-04
RMM:  17    -0.413168855186E+03    0.13905E-05   -0.76797E-08   947   0.569E-04    0.214E-04
RMM:  18    -0.413168853097E+03    0.20890E-05   -0.67595E-08  1008   0.589E-04    0.783E-05
RMM:  19    -0.413168851563E+03    0.15335E-05   -0.58605E-08  1085   0.600E-04    0.112E-04
RMM:  20    -0.413168851591E+03   -0.28173E-07   -0.17537E-08   687   0.533E-04
   16 T=    62. E= -.41286664E+03 F= -.41316885E+03 E0= -.41314665E+03  EK= 0.30221E+00 SP= 0.00E+00 SK= 0.00E+00
       N       E                     dE             d eps       ncg     rms          rms(c)
RMM:   1    -0.413176747454E+03   -0.78959E-02   -0.68021E+00  4298   0.578E-01    0.904E-01
RMM:   2    -0.413175829956E+03    0.91750E-03   -0.87300E-02  4246   0.810E-02    0.658E-01
RMM:   3    -0.413172383983E+03    0.34460E-02   -0.39896E-02  5020   0.751E-02    0.264E-01
RMM:   4    -0.413196432867E+03   -0.24049E-01   -0.34356E-02  5096   0.157E-01    0.685E-01
RMM:   5    -0.413169180717E+03    0.27252E-01   -0.12523E-02  4742   0.114E-01    0.492E-02
RMM:   6    -0.413169353045E+03   -0.17233E-03   -0.22484E-03  5660   0.466E-02    0.345E-02
RMM:   7    -0.413169338446E+03    0.14599E-04   -0.39849E-04  5563   0.190E-02    0.225E-02
RMM:   8    -0.413169330703E+03    0.77430E-05   -0.53872E-05  5150   0.858E-03    0.937E-03
RMM:   9    -0.413169327907E+03    0.27959E-05   -0.10360E-05  3546   0.369E-03    0.596E-03
RMM:  10    -0.413169327036E+03    0.87123E-06   -0.18281E-06  2535   0.222E-03
   17 T=    62. E= -.41286650E+03 F= -.41316933E+03 E0= -.41314717E+03  EK= 0.30283E+00 SP= 0.00E+00 SK= 0.00E+00
       N       E                     dE             d eps       ncg     rms          rms(c)
RMM:   1    -0.413177187509E+03   -0.78596E-02   -0.69090E+00  4302   0.587E-01    0.905E-01
RMM:   2    -0.413176507348E+03    0.68016E-03   -0.88260E-02  4313   0.781E-02    0.666E-01
RMM:   3    -0.413179377728E+03   -0.28704E-02   -0.46790E-02  5128   0.106E-01    0.433E-01
RMM:   4    -0.413186242709E+03   -0.68650E-02   -0.33318E-02  5046   0.158E-01    0.546E-01
RMM:   5    -0.413169797663E+03    0.16445E-01   -0.72462E-03  4590   0.908E-02    0.492E-02
RMM:   6    -0.413169840316E+03   -0.42653E-04   -0.12965E-03  5391   0.346E-02    0.304E-02
RMM:   7    -0.413169847858E+03   -0.75415E-05   -0.24660E-04  5551   0.151E-02    0.181E-02
RMM:   8    -0.413169846542E+03    0.13161E-05   -0.36203E-05  4884   0.725E-03    0.648E-03
RMM:   9    -0.413169846227E+03    0.31493E-06   -0.46255E-06  2860   0.277E-03
   18 T=    62. E= -.41286638E+03 F= -.41316985E+03 E0= -.41314773E+03  EK= 0.30346E+00 SP= 0.00E+00 SK= 0.00E+00
       N       E                     dE             d eps       ncg     rms          rms(c)
RMM:   1    -0.413178801174E+03   -0.89546E-02   -0.68897E+00  4296   0.587E-01    0.921E-01
RMM:   2    -0.413177423693E+03    0.13775E-02   -0.88486E-02  4277   0.783E-02    0.666E-01
RMM:   3    -0.413177330640E+03    0.93053E-04   -0.41678E-02  5111   0.905E-02    0.351E-01
RMM:   4    -0.413191799931E+03   -0.14469E-01   -0.34347E-02  5062   0.159E-01    0.603E-01
RMM:   5    -0.413170991670E+03    0.20808E-01   -0.87850E-03  4661   0.100E-01    0.507E-02
RMM:   6    -0.413171077280E+03   -0.85609E-04   -0.16573E-03  5564   0.397E-02    0.326E-02
RMM:   7    -0.413171073543E+03    0.37370E-05   -0.30998E-04  5640   0.167E-02    0.204E-02
RMM:   8    -0.413171065529E+03    0.80131E-05   -0.43195E-05  4980   0.807E-03    0.769E-03
RMM:   9    -0.413171061553E+03    0.39764E-05   -0.68516E-06  3106   0.320E-03    0.431E-03
RMM:  10    -0.413171058393E+03    0.31605E-05   -0.15886E-06  2529   0.205E-03    0.257E-03
RMM:  11    -0.413171055571E+03    0.28219E-05   -0.84403E-07  2466   0.148E-03    0.131E-03
RMM:  12    -0.413171050775E+03    0.47956E-05   -0.83122E-07  2480   0.137E-03    0.647E-04
RMM:  13    -0.413171047069E+03    0.37062E-05   -0.40212E-07  2073   0.102E-03    0.395E-04
RMM:  14    -0.413171045558E+03    0.15112E-05   -0.19080E-07  1547   0.757E-04    0.258E-04
RMM:  15    -0.413171039939E+03    0.56182E-05   -0.23488E-07  1735   0.796E-04    0.350E-04
RMM:  16    -0.413171034722E+03    0.52179E-05   -0.17133E-07  1305   0.676E-04    0.302E-04
RMM:  17    -0.413171033250E+03    0.14721E-05   -0.68184E-08   926   0.561E-04    0.203E-04
RMM:  18    -0.413171030602E+03    0.26474E-05   -0.65572E-08   988   0.580E-04    0.828E-05
RMM:  19    -0.413171029080E+03    0.15220E-05   -0.47484E-08   981   0.580E-04    0.655E-05
RMM:  20    -0.413171028790E+03    0.29033E-06   -0.17985E-08   715   0.536E-04
   19 T=    62. E= -.41286668E+03 F= -.41317103E+03 E0= -.41314895E+03  EK= 0.30435E+00 SP= 0.00E+00 SK= 0.00E+00
       N       E                     dE             d eps       ncg     rms          rms(c)
RMM:   1    -0.413178926809E+03   -0.78977E-02   -0.68622E+00  4294   0.592E-01    0.911E-01
RMM:   2    -0.413177712816E+03    0.12140E-02   -0.88181E-02  4255   0.788E-02    0.660E-01
RMM:   3    -0.413174485915E+03    0.32269E-02   -0.39094E-02  5051   0.724E-02    0.257E-01
RMM:   4    -0.413199074895E+03   -0.24589E-01   -0.35157E-02  5100   0.158E-01    0.691E-01
RMM:   5    -0.413171287983E+03    0.27787E-01   -0.12714E-02  4739   0.115E-01    0.499E-02
RMM:   6    -0.413171463297E+03   -0.17531E-03   -0.23026E-03  5672   0.472E-02    0.350E-02
RMM:   7    -0.413171456220E+03    0.70771E-05   -0.40509E-04  5556   0.192E-02    0.229E-02
RMM:   8    -0.413171446072E+03    0.10147E-04   -0.56520E-05  5139   0.900E-03    0.967E-03
RMM:   9    -0.413171442239E+03    0.38332E-05   -0.10998E-05  3607   0.387E-03    0.608E-03
RMM:  10    -0.413171439955E+03    0.22845E-05   -0.19732E-06  2556   0.229E-03    0.357E-03
RMM:  11    -0.413171438224E+03    0.17310E-05   -0.92517E-07  2494   0.157E-03    0.199E-03
RMM:  12    -0.413171434663E+03    0.35609E-05   -0.12617E-06  2514   0.171E-03    0.994E-04
RMM:  13    -0.413171431679E+03    0.29840E-05   -0.56335E-07  2336   0.123E-03    0.773E-04
RMM:  14    -0.413171431415E+03    0.26376E-06   -0.23148E-07  1844   0.839E-04
   20 T=    62. E= -.41286643E+03 F= -.41317143E+03 E0= -.41314940E+03  EK= 0.30500E+00 SP= 0.00E+00 SK= 0.00E+00
       N       E                     dE             d eps       ncg     rms          rms(c)
RMM:   1    -0.413179829065E+03   -0.83974E-02   -0.69516E+00  4294   0.599E-01    0.905E-01
RMM:   2    -0.413179093388E+03    0.73568E-03   -0.88657E-02  4266   0.786E-02    0.666E-01
RMM:   3    -0.413175491565E+03    0.36018E-02   -0.41992E-02  5036   0.707E-02    0.270E-01
RMM:   4    -0.413200014641E+03   -0.24523E-01   -0.33986E-02  5099   0.156E-01    0.690E-01
RMM:   5    -0.413172400020E+03    0.27615E-01   -0.13008E-02  4748   0.115E-01    0.485E-02
RMM:   6    -0.413172589370E+03   -0.18935E-03   -0.23175E-03  5697   0.470E-02    0.337E-02
RMM:   7    -0.413172596834E+03   -0.74646E-05   -0.39576E-04  5572   0.192E-02    0.222E-02
RMM:   8    -0.413172589394E+03    0.74405E-05   -0.57065E-05  5108   0.879E-03    0.966E-03
RMM:   9    -0.413172587074E+03    0.23201E-05   -0.11082E-05  3635   0.386E-03    0.629E-03
RMM:  10    -0.413172587474E+03   -0.40002E-06   -0.18737E-06  2542   0.224E-03
   21 T=    62. E= -.41286669E+03 F= -.41317259E+03 E0= -.41315060E+03  EK= 0.30590E+00 SP= 0.00E+00 SK= 0.00E+00
       N       E                     dE             d eps       ncg     rms          rms(c)
RMM:   1    -0.413181282503E+03   -0.86954E-02   -0.69650E+00  4296   0.600E-01    0.920E-01
RMM:   2    -0.413180214752E+03    0.10678E-02   -0.89088E-02  4325   0.795E-02    0.669E-01
RMM:   3    -0.413182785836E+03   -0.25711E-02   -0.44113E-02  5125   0.103E-01    0.415E-01
RMM:   4    -0.413190785090E+03   -0.79993E-02   -0.33903E-02  5044   0.160E-01    0.550E-01
RMM:   5    -0.413173671445E+03    0.17114E-01   -0.70285E-03  4592   0.929E-02    0.503E-02
RMM:   6    -0.413173734709E+03   -0.63264E-04   -0.13646E-03  5404   0.359E-02    0.316E-02
RMM:   7    -0.413173747367E+03   -0.12658E-04   -0.26267E-04  5558   0.158E-02    0.191E-02
RMM:   8    -0.413173736116E+03    0.11251E-04   -0.39787E-05  4856   0.839E-03    0.698E-03
RMM:   9    -0.413173732598E+03    0.35176E-05   -0.60887E-06  2943   0.308E-03    0.380E-03
RMM:  10    -0.413173730250E+03    0.23482E-05   -0.13851E-06  2514   0.192E-03    0.225E-03
RMM:  11    -0.413173727829E+03    0.24208E-05   -0.77509E-07  2441   0.141E-03    0.112E-03
RMM:  12    -0.413173723950E+03    0.38797E-05   -0.67848E-07  2416   0.124E-03    0.538E-04
RMM:  13    -0.413173721033E+03    0.29168E-05   -0.32120E-07  1883   0.919E-04    0.321E-04
RMM:  14    -0.413173719064E+03    0.19682E-05   -0.16835E-07  1387   0.720E-04    0.198E-04
RMM:  15    -0.413173713538E+03    0.55265E-05   -0.21459E-07  1587   0.766E-04    0.304E-04
RMM:  16    -0.413173709218E+03    0.43197E-05   -0.12638E-07  1114   0.637E-04    0.205E-04
RMM:  17    -0.413173707569E+03    0.16493E-05   -0.64984E-08   953   0.578E-04    0.127E-04
RMM:  18    -0.413173704803E+03    0.27658E-05   -0.60783E-08  1030   0.589E-04    0.426E-05
RMM:  19    -0.413173703613E+03    0.11898E-05   -0.33660E-08   866   0.555E-04    0.398E-05
RMM:  20    -0.413173703100E+03    0.51338E-06   -0.15133E-08   690   0.534E-04
   22 T=    62. E= -.41286678E+03 F= -.41317370E+03 E0= -.41315176E+03  EK= 0.30692E+00 SP= 0.00E+00 SK= 0.00E+00
       N       E                     dE             d eps       ncg     rms          rms(c)
RMM:   1    -0.413182156654E+03   -0.84530E-02   -0.69470E+00  4295   0.610E-01    0.920E-01
RMM:   2    -0.413180886129E+03    0.12705E-02   -0.89316E-02  4282   0.804E-02    0.664E-01
RMM:   3    -0.413177128973E+03    0.37572E-02   -0.38463E-02  5003   0.744E-02    0.243E-01
RMM:   4    -0.413203096317E+03   -0.25967E-01   -0.35294E-02  5100   0.159E-01    0.702E-01
RMM:   5    -0.413174269196E+03    0.28827E-01   -0.13227E-02  4749   0.117E-01    0.500E-02
RMM:   6    -0.413174450324E+03   -0.18113E-03   -0.24383E-03  5694   0.483E-02    0.357E-02
RMM:   7    -0.413174443681E+03    0.66430E-05   -0.41835E-04  5559   0.196E-02    0.234E-02
RMM:   8    -0.413174434161E+03    0.95193E-05   -0.59456E-05  5166   0.897E-03    0.102E-02
RMM:   9    -0.413174429442E+03    0.47191E-05   -0.11584E-05  3714   0.392E-03    0.654E-03
RMM:  10    -0.413174426189E+03    0.32530E-05   -0.19923E-06  2550   0.230E-03    0.387E-03
RMM:  11    -0.413174423763E+03    0.24258E-05   -0.96916E-07  2501   0.160E-03    0.218E-03
RMM:  12    -0.413174418877E+03    0.48860E-05   -0.13657E-06  2526   0.179E-03    0.105E-03
RMM:  13    -0.413174414808E+03    0.40695E-05   -0.62838E-07  2385   0.129E-03    0.887E-04
RMM:  14    -0.413174414766E+03    0.42030E-07   -0.24568E-07  1892   0.858E-04
   23 T=    63. E= -.41286646E+03 F= -.41317441E+03 E0= -.41315252E+03  EK= 0.30795E+00 SP= 0.00E+00 SK= 0.00E+00
       N       E                     dE             d eps       ncg     rms          rms(c)
RMM:   1    -0.413183344819E+03   -0.89300E-02   -0.70102E+00  4296   0.616E-01    0.907E-01
RMM:   2    -0.413182776360E+03    0.56846E-03   -0.89874E-02  4289   0.823E-02    0.666E-01
RMM:   3    -0.413178416033E+03    0.43603E-02   -0.41057E-02  4948   0.740E-02    0.247E-01
RMM:   4    -0.413203720168E+03   -0.25304E-01   -0.32543E-02  5103   0.153E-01    0.692E-01
RMM:   5    -0.413175837241E+03    0.27883E-01   -0.13222E-02  4762   0.116E-01    0.480E-02
RMM:   6    -0.413176030296E+03   -0.19306E-03   -0.24128E-03  5756   0.473E-02    0.336E-02
RMM:   7    -0.413176027683E+03    0.26128E-05   -0.39514E-04  5588   0.193E-02    0.224E-02
RMM:   8    -0.413176020360E+03    0.73233E-05   -0.59015E-05  5035   0.886E-03    0.103E-02
RMM:   9    -0.413176017410E+03    0.29501E-05   -0.11454E-05  3680   0.398E-03    0.690E-03
RMM:  10    -0.413176016782E+03    0.62765E-06   -0.19839E-06  2564   0.231E-03
   24 T=    63. E= -.41286668E+03 F= -.41317602E+03 E0= -.41315417E+03  EK= 0.30934E+00 SP= 0.00E+00 SK= 0.00E+00
       N       E                     dE             d eps       ncg     rms          rms(c)
RMM:   1    -0.413184710860E+03   -0.86935E-02   -0.70715E+00  4300   0.621E-01    0.920E-01
RMM:   2    -0.413183768140E+03    0.94272E-03   -0.90689E-02  4340   0.833E-02    0.673E-01
RMM:   3    -0.413186582697E+03   -0.28146E-02   -0.45165E-02  5109   0.109E-01    0.427E-01
RMM:   4    -0.413194054711E+03   -0.74720E-02   -0.34103E-02  5044   0.161E-01    0.552E-01
RMM:   5    -0.413176944222E+03    0.17110E-01   -0.69875E-03  4592   0.924E-02    0.498E-02
RMM:   6    -0.413176997107E+03   -0.52885E-04   -0.13857E-03  5461   0.358E-02    0.316E-02
RMM:   7    -0.413177000611E+03   -0.35031E-05   -0.26417E-04  5512   0.157E-02    0.189E-02
RMM:   8    -0.413176997328E+03    0.32823E-05   -0.38585E-05  4903   0.759E-03    0.687E-03
RMM:   9    -0.413176994928E+03    0.24004E-05   -0.52914E-06  2926   0.291E-03    0.381E-03
RMM:  10    -0.413176993134E+03    0.17943E-05   -0.12807E-06  2501   0.188E-03    0.229E-03
RMM:  11    -0.413176991135E+03    0.19983E-05   -0.72534E-07  2430   0.137E-03    0.115E-03
RMM:  12    -0.413176987728E+03    0.34074E-05   -0.66217E-07  2405   0.122E-03    0.554E-04
RMM:  13    -0.413176985241E+03    0.24872E-05   -0.30682E-07  1877   0.905E-04    0.346E-04
RMM:  14    -0.413176983348E+03    0.18922E-05   -0.16022E-07  1383   0.712E-04    0.213E-04
RMM:  15    -0.413176978496E+03    0.48520E-05   -0.17942E-07  1487   0.733E-04    0.270E-04
RMM:  16    -0.413176973812E+03    0.46846E-05   -0.13037E-07  1165   0.645E-04    0.201E-04
RMM:  17    -0.413176971818E+03    0.19939E-05   -0.64134E-08   951   0.577E-04    0.119E-04
RMM:  18    -0.413176969038E+03    0.27796E-05   -0.53774E-08   968   0.582E-04    0.419E-05
RMM:  19    -0.413176967835E+03    0.12033E-05   -0.27566E-08   809   0.554E-04    0.283E-05
RMM:  20    -0.413176967343E+03    0.49197E-06   -0.14777E-08   704   0.538E-04
   25 T=    63. E= -.41286643E+03 F= -.41317697E+03 E0= -.41315517E+03  EK= 0.31053E+00 SP= 0.00E+00 SK= 0.00E+00
       N       E                     dE             d eps       ncg     rms          rms(c)
RMM:   1    -0.413186362209E+03   -0.93944E-02   -0.70581E+00  4289   0.629E-01    0.928E-01
RMM:   2    -0.413184891562E+03    0.14706E-02   -0.91333E-02  4290   0.835E-02    0.670E-01
RMM:   3    -0.413180514496E+03    0.43771E-02   -0.37842E-02  4959   0.716E-02    0.219E-01
RMM:   4    -0.413207867295E+03   -0.27353E-01   -0.34385E-02  5106   0.157E-01    0.711E-01
RMM:   5    -0.413178213332E+03    0.29654E-01   -0.13833E-02  4760   0.119E-01    0.497E-02
RMM:   6    -0.413178398231E+03   -0.18490E-03   -0.25285E-03  5753   0.487E-02    0.358E-02
RMM:   7    -0.413178396007E+03    0.22241E-05   -0.42003E-04  5568   0.201E-02    0.236E-02
RMM:   8    -0.413178388374E+03    0.76330E-05   -0.62481E-05  5077   0.946E-03    0.108E-02
RMM:   9    -0.413178383508E+03    0.48658E-05   -0.12861E-05  3785   0.419E-03    0.714E-03
RMM:  10    -0.413178379642E+03    0.38657E-05   -0.22481E-06  2588   0.245E-03    0.419E-03
RMM:  11    -0.413178376640E+03    0.30024E-05   -0.11370E-06  2504   0.172E-03    0.232E-03
RMM:  12    -0.413178371066E+03    0.55734E-05   -0.16371E-06  2563   0.193E-03    0.110E-03
RMM:  13    -0.413178367184E+03    0.38827E-05   -0.59862E-07  2379   0.130E-03    0.856E-04
RMM:  14    -0.413178367106E+03    0.77398E-07   -0.24705E-07  1888   0.858E-04
   26 T=    64. E= -.41286645E+03 F= -.41317837E+03 E0= -.41315662E+03  EK= 0.31192E+00 SP= 0.00E+00 SK= 0.00E+00
       N       E                     dE             d eps       ncg     rms          rms(c)
RMM:   1    -0.413187406951E+03   -0.90398E-02   -0.70850E+00  4294   0.630E-01    0.911E-01
RMM:   2    -0.413186745987E+03    0.66096E-03   -0.91249E-02  4283   0.849E-02    0.668E-01
RMM:   3    -0.413182065569E+03    0.46804E-02   -0.39722E-02  4936   0.685E-02    0.222E-01
RMM:   4    -0.413206936679E+03   -0.24871E-01   -0.30216E-02  5115   0.147E-01    0.679E-01
RMM:   5    -0.413180025683E+03    0.26911E-01   -0.12806E-02  4770   0.114E-01    0.473E-02
RMM:   6    -0.413180191784E+03   -0.16610E-03   -0.23167E-03  5806   0.459E-02    0.328E-02
RMM:   7    -0.413180197685E+03   -0.59009E-05   -0.35003E-04  5602   0.188E-02    0.214E-02
RMM:   8    -0.413180189393E+03    0.82915E-05   -0.61588E-05  4969   0.897E-03    0.107E-02
RMM:   9    -0.413180185479E+03    0.39142E-05   -0.11998E-05  3799   0.414E-03    0.725E-03
RMM:  10    -0.413180183504E+03    0.19754E-05   -0.20597E-06  2566   0.239E-03    0.423E-03
RMM:  11    -0.413180181576E+03    0.19273E-05   -0.12943E-06  2512   0.183E-03    0.223E-03
RMM:  12    -0.413180178252E+03    0.33240E-05   -0.15234E-06  2533   0.188E-03    0.111E-03
RMM:  13    -0.413180175998E+03    0.22542E-05   -0.49042E-07  2323   0.123E-03    0.709E-04
RMM:  14    -0.413180175570E+03    0.42817E-06   -0.21903E-07  1783   0.819E-04
   27 T=    64. E= -.41286662E+03 F= -.41318018E+03 E0= -.41315848E+03  EK= 0.31355E+00 SP= 0.00E+00 SK= 0.00E+00
       N       E                     dE             d eps       ncg     rms          rms(c)
RMM:   1    -0.413188720338E+03   -0.85443E-02   -0.71922E+00  4294   0.638E-01    0.922E-01
RMM:   2    -0.413187933242E+03    0.78710E-03   -0.92566E-02  4286   0.872E-02    0.677E-01
RMM:   3    -0.413183111879E+03    0.48214E-02   -0.40964E-02  4943   0.667E-02    0.226E-01
RMM:   4    -0.413207293644E+03   -0.24182E-01   -0.29167E-02  5120   0.145E-01    0.670E-01
RMM:   5    -0.413181145259E+03    0.26148E-01   -0.12478E-02  4771   0.112E-01    0.470E-02
RMM:   6    -0.413181313396E+03   -0.16814E-03   -0.22657E-03  5816   0.453E-02    0.328E-02
RMM:   7    -0.413181320860E+03   -0.74637E-05   -0.35124E-04  5576   0.189E-02    0.215E-02
RMM:   8    -0.413181314989E+03    0.58713E-05   -0.58944E-05  4958   0.896E-03    0.105E-02
RMM:   9    -0.413181311906E+03    0.30821E-05   -0.11640E-05  3733   0.409E-03    0.714E-03
RMM:  10    -0.413181310830E+03    0.10763E-05   -0.20795E-06  2572   0.243E-03    0.413E-03
RMM:  11    -0.413181309472E+03    0.13583E-05   -0.13366E-06  2517   0.186E-03    0.212E-03
RMM:  12    -0.413181307150E+03    0.23217E-05   -0.14454E-06  2517   0.186E-03    0.107E-03
RMM:  13    -0.413181305489E+03    0.16609E-05   -0.47766E-07  2313   0.121E-03    0.680E-04
RMM:  14    -0.413181304909E+03    0.58008E-06   -0.21532E-07  1769   0.815E-04
   28 T=    64. E= -.41286630E+03 F= -.41318130E+03 E0= -.41315966E+03  EK= 0.31501E+00 SP= 0.00E+00 SK= 0.00E+00
       N       E                     dE             d eps       ncg     rms          rms(c)
RMM:   1    -0.413193084108E+03   -0.11779E-01   -0.72039E+00  4294   0.679E-01    0.937E-01
RMM:   2    -0.413190089510E+03    0.29946E-02   -0.94026E-02  4284   0.920E-02    0.676E-01
RMM:   3    -0.413184864907E+03    0.52246E-02   -0.37553E-02  4925   0.660E-02    0.189E-01
RMM:   4    -0.413210413468E+03   -0.25549E-01   -0.29640E-02  5118   0.146E-01    0.682E-01
RMM:   5    -0.413183240950E+03    0.27173E-01   -0.12899E-02  4773   0.114E-01    0.482E-02
RMM:   6    -0.413183405506E+03   -0.16456E-03   -0.23825E-03  5823   0.463E-02    0.346E-02
RMM:   7    -0.413183398938E+03    0.65682E-05   -0.36718E-04  5580   0.195E-02    0.223E-02
RMM:   8    -0.413183388923E+03    0.10015E-04   -0.62170E-05  4997   0.915E-03    0.112E-02
RMM:   9    -0.413183382926E+03    0.59968E-05   -0.12398E-05  3813   0.416E-03    0.757E-03
RMM:  10    -0.413183378140E+03    0.47856E-05   -0.22704E-06  2595   0.247E-03    0.432E-03
RMM:  11    -0.413183374024E+03    0.41166E-05   -0.13606E-06  2521   0.187E-03    0.232E-03
RMM:  12    -0.413183367232E+03    0.67913E-05   -0.16691E-06  2549   0.197E-03    0.117E-03
RMM:  13    -0.413183363839E+03    0.33938E-05   -0.57297E-07  2366   0.131E-03    0.778E-04
RMM:  14    -0.413183362968E+03    0.87112E-06   -0.24906E-07  1913   0.864E-04
   29 T=    64. E= -.41286655E+03 F= -.41318336E+03 E0= -.41316177E+03  EK= 0.31681E+00 SP= 0.00E+00 SK= 0.00E+00
       N       E                     dE             d eps       ncg     rms          rms(c)
RMM:   1    -0.413192536489E+03   -0.91727E-02   -0.71880E+00  4298   0.652E-01    0.919E-01
RMM:   2    -0.413192135848E+03    0.40064E-03   -0.93216E-02  4281   0.946E-02    0.672E-01
RMM:   3    -0.413186842986E+03    0.52929E-02   -0.38736E-02  4880   0.704E-02    0.203E-01
RMM:   4    -0.413211202353E+03   -0.24359E-01   -0.28403E-02  5120   0.143E-01    0.669E-01
RMM:   5    -0.413185066877E+03    0.26135E-01   -0.12527E-02  4777   0.111E-01    0.471E-02
RMM:   6    -0.413185234562E+03   -0.16769E-03   -0.22730E-03  5839   0.449E-02    0.331E-02
RMM:   7    -0.413185244023E+03   -0.94603E-05   -0.33844E-04  5599   0.185E-02    0.212E-02
RMM:   8    -0.413185237176E+03    0.68469E-05   -0.60349E-05  4978   0.877E-03    0.109E-02
RMM:   9    -0.413185232286E+03    0.48895E-05   -0.11780E-05  3786   0.410E-03    0.735E-03
RMM:  10    -0.413185229296E+03    0.29905E-05   -0.21319E-06  2574   0.241E-03    0.419E-03
RMM:  11    -0.413185226266E+03    0.30299E-05   -0.13851E-06  2525   0.188E-03    0.218E-03
RMM:  12    -0.413185221536E+03    0.47295E-05   -0.14903E-06  2521   0.189E-03    0.113E-03
RMM:  13    -0.413185219164E+03    0.23728E-05   -0.50583E-07  2332   0.125E-03    0.721E-04
RMM:  14    -0.413185218286E+03    0.87746E-06   -0.22593E-07  1821   0.834E-04
   30 T=    65. E= -.41286655E+03 F= -.41318522E+03 E0= -.41316367E+03  EK= 0.31867E+00 SP= 0.00E+00 SK= 0.00E+00
       N       E                     dE             d eps       ncg     rms          rms(c)
RMM:   1    -0.413194305735E+03   -0.90866E-02   -0.73256E+00  4299   0.665E-01    0.925E-01
RMM:   2    -0.413194131252E+03    0.17448E-03   -0.95020E-02  4279   0.979E-02    0.682E-01
RMM:   3    -0.413188559871E+03    0.55714E-02   -0.41404E-02  4813   0.753E-02    0.220E-01
RMM:   4    -0.413211410015E+03   -0.22850E-01   -0.26689E-02  5119   0.139E-01    0.652E-01
RMM:   5    -0.413186708664E+03    0.24701E-01   -0.11947E-02  4783   0.108E-01    0.461E-02
RMM:   6    -0.413186862249E+03   -0.15359E-03   -0.21278E-03  5848   0.433E-02    0.318E-02
RMM:   7    -0.413186871726E+03   -0.94767E-05   -0.30552E-04  5594   0.177E-02    0.199E-02
RMM:   8    -0.413186867105E+03    0.46210E-05   -0.57394E-05  4949   0.852E-03    0.105E-02
RMM:   9    -0.413186863346E+03    0.37588E-05   -0.11210E-05  3740   0.403E-03    0.702E-03
RMM:  10    -0.413186862349E+03    0.99713E-06   -0.20195E-06  2561   0.236E-03
   31 T=    65. E= -.41286630E+03 F= -.41318686E+03 E0= -.41316536E+03  EK= 0.32056E+00 SP= 0.00E+00 SK= 0.00E+00
       N       E                     dE             d eps       ncg     rms          rms(c)
RMM:   1    -0.413197447707E+03   -0.10584E-01   -0.73312E+00  4300   0.678E-01    0.943E-01
RMM:   2    -0.413196459518E+03    0.98819E-03   -0.95819E-02  4299   0.102E-01    0.683E-01
RMM:   3    -0.413195000321E+03    0.14592E-02   -0.40779E-02  5034   0.997E-02    0.326E-01
RMM:   4    -0.413214746475E+03   -0.19746E-01   -0.37529E-02  5063   0.166E-01    0.661E-01
RMM:   5    -0.413189324477E+03    0.25422E-01   -0.10791E-02  4693   0.109E-01    0.519E-02
RMM:   6    -0.413189452514E+03   -0.12804E-03   -0.21542E-03  5707   0.439E-02    0.352E-02
RMM:   7    -0.413189459765E+03   -0.72506E-05   -0.37283E-04  5533   0.187E-02    0.226E-02
RMM:   8    -0.413189456068E+03    0.36967E-05   -0.54546E-05  5111   0.891E-03    0.925E-03
RMM:   9    -0.413189450794E+03    0.52741E-05   -0.98867E-06  3432   0.376E-03    0.519E-03
RMM:  10    -0.413189445974E+03    0.48200E-05   -0.19751E-06  2563   0.229E-03    0.315E-03
RMM:  11    -0.413189441850E+03    0.41238E-05   -0.92869E-07  2489   0.159E-03    0.169E-03
RMM:  12    -0.413189434433E+03    0.74167E-05   -0.10345E-06  2494   0.155E-03    0.788E-04
RMM:  13    -0.413189430165E+03    0.42685E-05   -0.47057E-07  2253   0.112E-03    0.545E-04
RMM:  14    -0.413189427997E+03    0.21681E-05   -0.22463E-07  1753   0.817E-04    0.369E-04
RMM:  15    -0.413189423165E+03    0.48315E-05   -0.15227E-07  1514   0.731E-04    0.201E-04
RMM:  16    -0.413189415923E+03    0.72427E-05   -0.14054E-07  1475   0.701E-04    0.326E-04
RMM:  17    -0.413189412025E+03    0.38981E-05   -0.69379E-08   981   0.579E-04    0.229E-04
RMM:  18    -0.413189407439E+03    0.45859E-05   -0.66591E-08  1084   0.597E-04    0.946E-05
RMM:  19    -0.413189405646E+03    0.17923E-05   -0.43461E-08  1008   0.576E-04    0.589E-05
RMM:  20    -0.413189404873E+03    0.77315E-06   -0.21647E-08   799   0.542E-04
   32 T=    66. E= -.41286665E+03 F= -.41318940E+03 E0= -.41316796E+03  EK= 0.32275E+00 SP= 0.00E+00 SK= 0.00E+00
       N       E                     dE             d eps       ncg     rms          rms(c)
RMM:   1    -0.413199363240E+03   -0.99576E-02   -0.73324E+00  4302   0.700E-01    0.932E-01
RMM:   2    -0.413198081366E+03    0.12819E-02   -0.96394E-02  4273   0.104E-01    0.678E-01
RMM:   3    -0.413192489922E+03    0.55914E-02   -0.38231E-02  4728   0.777E-02    0.180E-01
RMM:   4    -0.413214000698E+03   -0.21511E-01   -0.23913E-02  5120   0.132E-01    0.627E-01
RMM:   5    -0.413191107658E+03    0.22893E-01   -0.11181E-02  4792   0.104E-01    0.459E-02
RMM:   6    -0.413191256512E+03   -0.14885E-03   -0.19938E-03  5829   0.417E-02    0.315E-02
RMM:   7    -0.413191265577E+03   -0.90655E-05   -0.23200E-04  5547   0.162E-02    0.165E-02
RMM:   8    -0.413191263315E+03    0.22623E-05   -0.44816E-05  4895   0.718E-03    0.101E-02
RMM:   9    -0.413191258583E+03    0.47321E-05   -0.10776E-05  3764   0.375E-03    0.710E-03
RMM:  10    -0.413191256060E+03    0.25231E-05   -0.19833E-06  2560   0.241E-03    0.404E-03
RMM:  11    -0.413191253113E+03    0.29463E-05   -0.15540E-06  2529   0.196E-03    0.211E-03
RMM:  12    -0.413191248386E+03    0.47271E-05   -0.13919E-06  2502   0.187E-03    0.112E-03
RMM:  13    -0.413191246402E+03    0.19845E-05   -0.45696E-07  2305   0.120E-03    0.708E-04
RMM:  14    -0.413191245594E+03    0.80768E-06   -0.20418E-07  1755   0.805E-04
   33 T=    66. E= -.41286652E+03 F= -.41319125E+03 E0= -.41316985E+03  EK= 0.32473E+00 SP= 0.00E+00 SK= 0.00E+00
       N       E                     dE             d eps       ncg     rms          rms(c)
RMM:   1    -0.413201216354E+03   -0.99700E-02   -0.74619E+00  4307   0.707E-01    0.930E-01
RMM:   2    -0.413200593902E+03    0.62245E-03   -0.98267E-02  4268   0.109E-01    0.686E-01
RMM:   3    -0.413194632291E+03    0.59616E-02   -0.41224E-02  4518   0.805E-02    0.188E-01
RMM:   4    -0.413202839181E+03   -0.82069E-02   -0.99508E-03  5131   0.866E-02    0.405E-01
RMM:   5    -0.413193522784E+03    0.93164E-02   -0.46169E-03  4811   0.666E-02    0.405E-02
RMM:   6    -0.413193596903E+03   -0.74119E-04   -0.99519E-04  5799   0.289E-02    0.285E-02
RMM:   7    -0.413193604559E+03   -0.76565E-05   -0.22108E-04  5323   0.157E-02    0.187E-02
RMM:   8    -0.413193590410E+03    0.14150E-04   -0.26326E-05  4557   0.646E-03    0.802E-03
RMM:   9    -0.413193589736E+03    0.67356E-06   -0.48412E-06  2908   0.286E-03
   34 T=    67. E= -.41286654E+03 F= -.41319359E+03 E0= -.41317224E+03  EK= 0.32705E+00 SP= 0.00E+00 SK= 0.00E+00
       N       E                     dE             d eps       ncg     rms          rms(c)
RMM:   1    -0.413204743505E+03   -0.11153E-01   -0.74996E+00  4302   0.735E-01    0.949E-01
RMM:   2    -0.413202824135E+03    0.19194E-02   -0.10112E-01  4281   0.119E-01    0.690E-01
RMM:   3    -0.413198930772E+03    0.38934E-02   -0.39326E-02  4888   0.974E-02    0.237E-01
RMM:   4    -0.413229157894E+03   -0.30227E-01   -0.38600E-02  5088   0.167E-01    0.750E-01
RMM:   5    -0.413196094634E+03    0.33063E-01   -0.15281E-02  4766   0.125E-01    0.512E-02
RMM:   6    -0.413196271013E+03   -0.17638E-03   -0.28159E-03  5790   0.498E-02    0.348E-02
RMM:   7    -0.413196283574E+03   -0.12562E-04   -0.35126E-04  5640   0.186E-02    0.207E-02
RMM:   8    -0.413196281050E+03    0.25248E-05   -0.75734E-05  5103   0.927E-03    0.123E-02
RMM:   9    -0.413196272115E+03    0.89342E-05   -0.15173E-05  4130   0.465E-03    0.735E-03
RMM:  10    -0.413196267327E+03    0.47885E-05   -0.28344E-06  2680   0.275E-03    0.427E-03
RMM:  11    -0.413196263528E+03    0.37988E-05   -0.13350E-06  2510   0.189E-03    0.246E-03
RMM:  12    -0.413196255580E+03    0.79485E-05   -0.16643E-06  2526   0.205E-03    0.115E-03
RMM:  13    -0.413196250945E+03    0.46342E-05   -0.63775E-07  2381   0.138E-03    0.786E-04
RMM:  14    -0.413196249698E+03    0.12470E-05   -0.27839E-07  2013   0.914E-04    0.515E-04
RMM:  15    -0.413196246189E+03    0.35089E-05   -0.15490E-07  1544   0.741E-04    0.266E-04
RMM:  16    -0.413196238123E+03    0.80665E-05   -0.21270E-07  2066   0.816E-04    0.659E-04
RMM:  17    -0.413196235615E+03    0.25080E-05   -0.68256E-08  1018   0.577E-04    0.550E-04
RMM:  18    -0.413196229006E+03    0.66086E-05   -0.73839E-08   986   0.593E-04    0.287E-04
RMM:  19    -0.413196227112E+03    0.18942E-05   -0.66505E-08  1284   0.630E-04    0.217E-04
RMM:  20    -0.413196225943E+03    0.11691E-05   -0.41556E-08  1076   0.574E-04    0.327E-04
RMM:  21    -0.413196225588E+03    0.35523E-06   -0.15703E-08   703   0.507E-04
   35 T=    67. E= -.41286659E+03 F= -.41319623E+03 E0= -.41317492E+03  EK= 0.32964E+00 SP= 0.00E+00 SK= 0.00E+00
       N       E                     dE             d eps       ncg     rms          rms(c)
RMM:   1    -0.413208692836E+03   -0.12467E-01   -0.75267E+00  4304   0.779E-01    0.947E-01
RMM:   2    -0.413204731798E+03    0.39610E-02   -0.10211E-01  4261   0.125E-01    0.686E-01
RMM:   3    -0.413198863336E+03    0.58685E-02   -0.37442E-02  4300   0.852E-02    0.132E-01
RMM:   4    -0.413198383406E+03    0.47993E-03   -0.65525E-04  4712   0.220E-02    0.528E-02
RMM:   5    -0.413198397095E+03   -0.13690E-04   -0.19351E-04  4932   0.127E-02    0.541E-02
RMM:   6    -0.413198379551E+03    0.17545E-04   -0.43886E-04  5187   0.201E-02    0.347E-02
RMM:   7    -0.413198342670E+03    0.36881E-04   -0.18625E-04  4798   0.155E-02    0.216E-02
RMM:   8    -0.413198333092E+03    0.95776E-05   -0.38602E-05  4496   0.566E-03    0.598E-03
RMM:   9    -0.413198331737E+03    0.13556E-05   -0.84023E-06  2509   0.248E-03    0.297E-03
RMM:  10    -0.413198325955E+03    0.57816E-05   -0.11662E-06  2383   0.161E-03    0.119E-03
RMM:  11    -0.413198322578E+03    0.33767E-05   -0.33624E-07  1695   0.865E-04    0.516E-04
RMM:  12    -0.413198318449E+03    0.41295E-05   -0.13980E-07  1263   0.701E-04    0.391E-04
RMM:  13    -0.413198314016E+03    0.44332E-05   -0.10452E-07  1150   0.656E-04    0.242E-04
RMM:  14    -0.413198307200E+03    0.68161E-05   -0.12585E-07  1197   0.665E-04    0.188E-04
RMM:  15    -0.413198304818E+03    0.23811E-05   -0.30417E-08   710   0.553E-04    0.148E-04
RMM:  16    -0.413198299072E+03    0.57462E-05   -0.48792E-08  1013   0.603E-04    0.714E-05
RMM:  17    -0.413198297232E+03    0.18401E-05   -0.20172E-08   722   0.533E-04    0.448E-05
RMM:  18    -0.413198296467E+03    0.76564E-06   -0.10069E-08   585   0.512E-04
   36 T=    68. E= -.41286622E+03 F= -.41319830E+03 E0= -.41317703E+03  EK= 0.33208E+00 SP= 0.00E+00 SK= 0.00E+00
       N       E                     dE             d eps       ncg     rms          rms(c)
RMM:   1    -0.413211218411E+03   -0.12921E-01   -0.76370E+00  4311   0.781E-01    0.938E-01
RMM:   2    -0.413208183323E+03    0.30351E-02   -0.10334E-01  4260   0.125E-01    0.692E-01
RMM:   3    -0.413202160607E+03    0.60227E-02   -0.40424E-02  4382   0.880E-02    0.166E-01
RMM:   4    -0.413204495364E+03   -0.23348E-02   -0.39185E-03  5142   0.550E-02    0.239E-01
RMM:   5    -0.413201377950E+03    0.31174E-02   -0.15697E-03  4797   0.397E-02    0.400E-02
RMM:   6    -0.413201428843E+03   -0.50893E-04   -0.58969E-04  5503   0.241E-02    0.325E-02
RMM:   7    -0.413201421744E+03    0.70983E-05   -0.22024E-04  5040   0.163E-02    0.195E-02
RMM:   8    -0.413201413592E+03    0.81526E-05   -0.30450E-05  4796   0.614E-03    0.730E-03
RMM:   9    -0.413201413222E+03    0.36996E-06   -0.46440E-06  2686   0.248E-03
   37 T=    68. E= -.41286650E+03 F= -.41320141E+03 E0= -.41318019E+03  EK= 0.33491E+00 SP= 0.00E+00 SK= 0.00E+00
       N       E                     dE             d eps       ncg     rms          rms(c)
RMM:   1    -0.413212947106E+03   -0.11534E-01   -0.77022E+00  4310   0.799E-01    0.955E-01
RMM:   2    -0.413211233926E+03    0.17132E-02   -0.10479E-01  4261   0.120E-01    0.699E-01
RMM:   3    -0.413205040874E+03    0.61931E-02   -0.39483E-02  4620   0.829E-02    0.166E-01
RMM:   4    -0.413219737008E+03   -0.14696E-01   -0.16318E-02  5142   0.109E-01    0.525E-01
RMM:   5    -0.413204046005E+03    0.15691E-01   -0.77932E-03  4807   0.869E-02    0.450E-02
RMM:   6    -0.413204076019E+03   -0.30014E-04   -0.14336E-03  5738   0.373E-02    0.332E-02
RMM:   7    -0.413204090210E+03   -0.14191E-04   -0.33569E-04  5428   0.185E-02    0.213E-02
RMM:   8    -0.413204075528E+03    0.14683E-04   -0.46409E-05  5084   0.799E-03    0.963E-03
RMM:   9    -0.413204073675E+03    0.18524E-05   -0.83138E-06  3189   0.345E-03    0.538E-03
RMM:  10    -0.413204070088E+03    0.35873E-05   -0.18442E-06  2554   0.224E-03    0.284E-03
RMM:  11    -0.413204065649E+03    0.44387E-05   -0.11771E-06  2500   0.173E-03    0.144E-03
RMM:  12    -0.413204060553E+03    0.50964E-05   -0.80001E-07  2436   0.141E-03    0.826E-04
RMM:  13    -0.413204057517E+03    0.30359E-05   -0.33608E-07  2073   0.980E-04    0.440E-04
RMM:  14    -0.413204054818E+03    0.26990E-05   -0.17549E-07  1501   0.748E-04    0.269E-04
RMM:  15    -0.413204048089E+03    0.67289E-05   -0.15750E-07  1483   0.732E-04    0.197E-04
RMM:  16    -0.413204043162E+03    0.49271E-05   -0.97233E-08  1195   0.657E-04    0.165E-04
RMM:  17    -0.413204038272E+03    0.48897E-05   -0.74899E-08  1222   0.630E-04    0.117E-04
RMM:  18    -0.413204033630E+03    0.46420E-05   -0.56174E-08  1124   0.602E-04    0.517E-05
RMM:  19    -0.413204032566E+03    0.10649E-05   -0.25684E-08   798   0.538E-04    0.276E-05
RMM:  20    -0.413204031593E+03    0.97303E-06   -0.19261E-08   766   0.538E-04
   38 T=    69. E= -.41286636E+03 F= -.41320403E+03 E0= -.41318285E+03  EK= 0.33767E+00 SP= 0.00E+00 SK= 0.00E+00
       N       E                     dE             d eps       ncg     rms          rms(c)
RMM:   1    -0.413220590047E+03   -0.16557E-01   -0.77630E+00  4307   0.879E-01    0.963E-01
RMM:   2    -0.413213965074E+03    0.66250E-02   -0.10972E-01  4258   0.119E-01    0.696E-01
RMM:   3    -0.413207611384E+03    0.63537E-02   -0.36410E-02  4711   0.757E-02    0.144E-01
RMM:   4    -0.413228651033E+03   -0.21040E-01   -0.22706E-02  5130   0.127E-01    0.618E-01
RMM:   5    -0.413206690134E+03    0.21961E-01   -0.10816E-02  4798   0.102E-01    0.476E-02
RMM:   6    -0.413206741367E+03   -0.51233E-04   -0.19273E-03  5800   0.420E-02    0.334E-02
RMM:   7    -0.413206761252E+03   -0.19884E-04   -0.33832E-04  5522   0.183E-02    0.214E-02
RMM:   8    -0.413206746032E+03    0.15220E-04   -0.55498E-05  5080   0.826E-03    0.107E-02
RMM:   9    -0.413206744262E+03    0.17702E-05   -0.11258E-05  3772   0.407E-03    0.673E-03
RMM:  10    -0.413206740136E+03    0.41258E-05   -0.21369E-06  2597   0.242E-03    0.360E-03
RMM:  11    -0.413206736847E+03    0.32892E-05   -0.10565E-06  2491   0.171E-03    0.203E-03
RMM:  12    -0.413206730725E+03    0.61211E-05   -0.12343E-06  2497   0.177E-03    0.115E-03
RMM:  13    -0.413206727358E+03    0.33674E-05   -0.45582E-07  2298   0.119E-03    0.648E-04
RMM:  14    -0.413206726222E+03    0.11363E-05   -0.21136E-07  1804   0.814E-04    0.423E-04
RMM:  15    -0.413206721382E+03    0.48403E-05   -0.14206E-07  1558   0.735E-04    0.218E-04
RMM:  16    -0.413206717438E+03    0.39437E-05   -0.90074E-08  1296   0.655E-04    0.249E-04
RMM:  17    -0.413206713465E+03    0.39729E-05   -0.59291E-08  1095   0.606E-04    0.245E-04
RMM:  18    -0.413206708469E+03    0.49954E-05   -0.49536E-08  1028   0.591E-04    0.986E-05
RMM:  19    -0.413206707122E+03    0.13479E-05   -0.25847E-08   830   0.554E-04    0.417E-05
RMM:  20    -0.413206705979E+03    0.11427E-05   -0.24324E-08   875   0.555E-04    0.535E-05
RMM:  21    -0.413206705627E+03    0.35199E-06   -0.10919E-08   679   0.520E-04
   39 T=    69. E= -.41286626E+03 F= -.41320671E+03 E0= -.41318557E+03  EK= 0.34044E+00 SP= 0.00E+00 SK= 0.00E+00
       N       E                     dE             d eps       ncg     rms          rms(c)
RMM:   1    -0.413219232295E+03   -0.12526E-01   -0.77948E+00  4313   0.877E-01    0.948E-01
RMM:   2    -0.413217387998E+03    0.18443E-02   -0.10882E-01  4258   0.120E-01    0.698E-01
RMM:   3    -0.413211480339E+03    0.59077E-02   -0.39320E-02  4799   0.835E-02    0.193E-01
RMM:   4    -0.413240394786E+03   -0.28914E-01   -0.32975E-02  5114   0.154E-01    0.724E-01
RMM:   5    -0.413209815708E+03    0.30579E-01   -0.14687E-02  4789   0.120E-01    0.502E-02
RMM:   6    -0.413209893779E+03   -0.78072E-04   -0.25551E-03  5804   0.476E-02    0.329E-02
RMM:   7    -0.413209914577E+03   -0.20797E-04   -0.33277E-04  5635   0.177E-02    0.190E-02
RMM:   8    -0.413209908460E+03    0.61165E-05   -0.54001E-05  4997   0.773E-03    0.105E-02
RMM:   9    -0.413209908946E+03   -0.48604E-06   -0.17720E-05  4365   0.466E-03    0.737E-03
RMM:  10    -0.413209906076E+03    0.28705E-05   -0.25888E-06  2636   0.264E-03    0.398E-03
RMM:  11    -0.413209904639E+03    0.14373E-05   -0.12595E-06  2504   0.182E-03    0.238E-03
RMM:  12    -0.413209900756E+03    0.38825E-05   -0.17110E-06  2534   0.203E-03    0.130E-03
RMM:  13    -0.413209898357E+03    0.23995E-05   -0.61713E-07  2388   0.136E-03    0.832E-04
RMM:  14    -0.413209897560E+03    0.79711E-06   -0.24742E-07  1952   0.884E-04
   40 T=    70. E= -.41286654E+03 F= -.41320990E+03 E0= -.41318880E+03  EK= 0.34336E+00 SP= 0.00E+00 SK= 0.00E+00
       N       E                     dE             d eps       ncg     rms          rms(c)
RMM:   1    -0.413223009962E+03   -0.13112E-01   -0.79287E+00  4316   0.909E-01    0.961E-01
RMM:   2    -0.413219783150E+03    0.32268E-02   -0.11135E-01  4264   0.122E-01    0.707E-01
RMM:   3    -0.413213878875E+03    0.59043E-02   -0.39964E-02  4849   0.830E-02    0.198E-01
RMM:   4    -0.413244636440E+03   -0.30758E-01   -0.35645E-02  5125   0.159E-01    0.747E-01
RMM:   5    -0.413212075221E+03    0.32561E-01   -0.15607E-02  4793   0.124E-01    0.517E-02
RMM:   6    -0.413212158927E+03   -0.83706E-04   -0.26947E-03  5807   0.488E-02    0.331E-02
RMM:   7    -0.413212185925E+03   -0.26998E-04   -0.35318E-04  5662   0.180E-02    0.196E-02
RMM:   8    -0.413212180033E+03    0.58922E-05   -0.61863E-05  5047   0.821E-03    0.108E-02
RMM:   9    -0.413212179668E+03    0.36413E-06   -0.18765E-05  4429   0.484E-03    0.714E-03
RMM:  10    -0.413212176147E+03    0.35217E-05   -0.26877E-06  2642   0.265E-03    0.395E-03
RMM:  11    -0.413212174087E+03    0.20599E-05   -0.12308E-06  2505   0.181E-03    0.237E-03
RMM:  12    -0.413212168692E+03    0.53944E-05   -0.16905E-06  2535   0.201E-03    0.131E-03
RMM:  13    -0.413212165206E+03    0.34866E-05   -0.63098E-07  2393   0.137E-03    0.863E-04
RMM:  14    -0.413212164299E+03    0.90679E-06   -0.25377E-07  1949   0.889E-04
   41 T=    70. E= -.41286629E+03 F= -.41321216E+03 E0= -.41319110E+03  EK= 0.34587E+00 SP= 0.00E+00 SK= 0.00E+00
       N       E                     dE             d eps       ncg     rms          rms(c)
RMM:   1    -0.413231858702E+03   -0.19693E-01   -0.79861E+00  4314   0.102E+00    0.977E-01
RMM:   2    -0.413222152782E+03    0.97059E-02   -0.11548E-01  4303   0.129E-01    0.706E-01
RMM:   3    -0.413216971656E+03    0.51811E-02   -0.36858E-02  4955   0.824E-02    0.204E-01
RMM:   4    -0.413253229314E+03   -0.36258E-01   -0.44286E-02  5117   0.177E-01    0.808E-01
RMM:   5    -0.413214689168E+03    0.38540E-01   -0.17953E-02  4782   0.134E-01    0.552E-02
RMM:   6    -0.413214800235E+03   -0.11107E-03   -0.31580E-03  5804   0.526E-02    0.350E-02
RMM:   7    -0.413214820101E+03   -0.19866E-04   -0.37183E-04  5668   0.185E-02    0.194E-02
RMM:   8    -0.413214818383E+03    0.17183E-05   -0.50965E-05  4891   0.727E-03    0.984E-03
RMM:   9    -0.413214813483E+03    0.49000E-05   -0.17011E-05  4289   0.439E-03    0.679E-03
RMM:  10    -0.413214809872E+03    0.36111E-05   -0.47149E-06  2988   0.290E-03    0.396E-03
RMM:  11    -0.413214805806E+03    0.40654E-05   -0.13500E-06  2489   0.197E-03    0.241E-03
RMM:  12    -0.413214796391E+03    0.94152E-05   -0.13797E-06  2492   0.192E-03    0.103E-03
RMM:  13    -0.413214791627E+03    0.47646E-05   -0.53308E-07  2408   0.130E-03    0.732E-04
RMM:  14    -0.413214790735E+03    0.89181E-06   -0.23706E-07  1967   0.870E-04
   42 T=    71. E= -.41286649E+03 F= -.41321479E+03 E0= -.41319375E+03  EK= 0.34830E+00 SP= 0.00E+00 SK= 0.00E+00
       N       E                     dE             d eps       ncg     rms          rms(c)
RMM:   1    -0.413235918928E+03   -0.21127E-01   -0.80204E+00  4316   0.109E+00    0.953E-01
RMM:   2    -0.413224569817E+03    0.11349E-01   -0.12909E-01  4354   0.132E-01    0.706E-01
RMM:   3    -0.413219789083E+03    0.47807E-02   -0.34687E-02  5004   0.856E-02    0.229E-01
RMM:   4    -0.413260385068E+03   -0.40596E-01   -0.52133E-02  5111   0.193E-01    0.856E-01
RMM:   5    -0.413216801240E+03    0.43584E-01   -0.19799E-02  4770   0.142E-01    0.579E-02
RMM:   6    -0.413216931535E+03   -0.13030E-03   -0.35391E-03  5781   0.554E-02    0.352E-02
RMM:   7    -0.413216952437E+03   -0.20901E-04   -0.43231E-04  5748   0.196E-02    0.215E-02
RMM:   8    -0.413216957222E+03   -0.47856E-05   -0.99901E-05  5199   0.101E-02    0.136E-02
RMM:   9    -0.413216946862E+03    0.10361E-04   -0.21965E-05  4534   0.553E-03    0.685E-03
RMM:  10    -0.413216943230E+03    0.36313E-05   -0.40706E-06  2810   0.292E-03    0.406E-03
RMM:  11    -0.413216940242E+03    0.29884E-05   -0.14002E-06  2510   0.196E-03    0.240E-03
RMM:  12    -0.413216933441E+03    0.68011E-05   -0.13869E-06  2506   0.191E-03    0.110E-03
RMM:  13    -0.413216928361E+03    0.50802E-05   -0.63224E-07  2403   0.134E-03    0.680E-04
RMM:  14    -0.413216927043E+03    0.13175E-05   -0.27531E-07  1984   0.908E-04    0.419E-04
RMM:  15    -0.413216923998E+03    0.30450E-05   -0.14361E-07  1403   0.721E-04    0.218E-04
RMM:  16    -0.413216917354E+03    0.66436E-05   -0.14158E-07  1636   0.741E-04    0.337E-04
RMM:  17    -0.413216914780E+03    0.25745E-05   -0.62405E-08  1015   0.592E-04    0.249E-04
RMM:  18    -0.413216908831E+03    0.59489E-05   -0.78430E-08  1362   0.640E-04    0.186E-04
RMM:  19    -0.413216906968E+03    0.18628E-05   -0.36761E-08   921   0.551E-04    0.478E-05
RMM:  20    -0.413216905454E+03    0.15140E-05   -0.32475E-08   959   0.562E-04    0.946E-05
RMM:  21    -0.413216905326E+03    0.12791E-06   -0.13926E-08   697   0.519E-04
   43 T=    71. E= -.41286662E+03 F= -.41321691E+03 E0= -.41319590E+03  EK= 0.35029E+00 SP= 0.00E+00 SK= 0.00E+00
       N       E                     dE             d eps       ncg     rms          rms(c)
RMM:   1    -0.413230278677E+03   -0.13373E-01   -0.80715E+00  4316   0.106E+00    0.962E-01
RMM:   2    -0.413225943188E+03    0.43355E-02   -0.11988E-01  4372   0.136E-01    0.714E-01
RMM:   3    -0.413222596780E+03    0.33464E-02   -0.40555E-02  5020   0.973E-02    0.292E-01
RMM:   4    -0.413255571290E+03   -0.32975E-01   -0.49188E-02  5093   0.189E-01    0.799E-01
RMM:   5    -0.413217968885E+03    0.37602E-01   -0.16403E-02  4742   0.132E-01    0.562E-02
RMM:   6    -0.413218053133E+03   -0.84248E-04   -0.29667E-03  5769   0.511E-02    0.333E-02
RMM:   7    -0.413218072227E+03   -0.19094E-04   -0.37335E-04  5695   0.187E-02    0.206E-02
RMM:   8    -0.413218079206E+03   -0.69791E-05   -0.10056E-04  5175   0.103E-02    0.127E-02
RMM:   9    -0.413218070830E+03    0.83755E-05   -0.18506E-05  4381   0.535E-03    0.585E-03
RMM:  10    -0.413218069555E+03    0.12754E-05   -0.37138E-06  2777   0.272E-03    0.351E-03
RMM:  11    -0.413218068098E+03    0.14568E-05   -0.12525E-06  2503   0.184E-03    0.198E-03
RMM:  12    -0.413218064445E+03    0.36531E-05   -0.11904E-06  2507   0.171E-03    0.944E-04
RMM:  13    -0.413218061357E+03    0.30884E-05   -0.52839E-07  2328   0.120E-03    0.520E-04
RMM:  14    -0.413218060126E+03    0.12303E-05   -0.23829E-07  1780   0.830E-04    0.312E-04
RMM:  15    -0.413218056853E+03    0.32734E-05   -0.15141E-07  1353   0.719E-04    0.153E-04
RMM:  16    -0.413218053451E+03    0.34022E-05   -0.10924E-07  1236   0.675E-04    0.162E-04
RMM:  17    -0.413218050816E+03    0.26346E-05   -0.75967E-08  1135   0.627E-04    0.119E-04
RMM:  18    -0.413218047968E+03    0.28476E-05   -0.57834E-08  1113   0.609E-04    0.826E-05
RMM:  19    -0.413218045004E+03    0.29643E-05   -0.48739E-08  1111   0.594E-04    0.389E-05
RMM:  20    -0.413218044407E+03    0.59731E-06   -0.22130E-08   780   0.533E-04
   44 T=    72. E= -.41286646E+03 F= -.41321804E+03 E0= -.41319706E+03  EK= 0.35159E+00 SP= 0.00E+00 SK= 0.00E+00
       N       E                     dE             d eps       ncg     rms          rms(c)
RMM:   1    -0.413239470719E+03   -0.21426E-01   -0.81077E+00  4314   0.120E+00    0.978E-01
RMM:   2    -0.413226990184E+03    0.12481E-01   -0.12841E-01  4377   0.146E-01    0.714E-01
RMM:   3    -0.413225137625E+03    0.18526E-02   -0.37174E-02  5052   0.103E-01    0.323E-01
RMM:   4    -0.413254104485E+03   -0.28967E-01   -0.50001E-02  5079   0.192E-01    0.768E-01
RMM:   5    -0.413219243490E+03    0.34861E-01   -0.14324E-02  4720   0.126E-01    0.580E-02
RMM:   6    -0.413219295543E+03   -0.52053E-04   -0.26878E-03  5719   0.492E-02    0.340E-02
RMM:   7    -0.413219310938E+03   -0.15395E-04   -0.39318E-04  5675   0.192E-02    0.225E-02
RMM:   8    -0.413219311195E+03   -0.25679E-06   -0.11239E-04  5172   0.111E-02    0.127E-02
RMM:   9    -0.413219300898E+03    0.10297E-04   -0.16041E-05  4238   0.530E-03    0.531E-03
RMM:  10    -0.413219297029E+03    0.38689E-05   -0.36946E-06  2789   0.261E-03    0.322E-03
RMM:  11    -0.413219293555E+03    0.34747E-05   -0.11355E-06  2493   0.178E-03    0.174E-03
RMM:  12    -0.413219287100E+03    0.64547E-05   -0.87674E-07  2460   0.155E-03    0.841E-04
RMM:  13    -0.413219282656E+03    0.44440E-05   -0.40584E-07  2194   0.110E-03    0.389E-04
RMM:  14    -0.413219280368E+03    0.22876E-05   -0.20527E-07  1654   0.799E-04    0.234E-04
RMM:  15    -0.413219274114E+03    0.62543E-05   -0.14340E-07  1383   0.730E-04    0.181E-04
RMM:  16    -0.413219271100E+03    0.30144E-05   -0.86529E-08  1155   0.653E-04    0.134E-04
RMM:  17    -0.413219267743E+03    0.33563E-05   -0.69895E-08  1198   0.632E-04    0.878E-05
RMM:  18    -0.413219263819E+03    0.39244E-05   -0.58708E-08  1217   0.618E-04    0.480E-05
RMM:  19    -0.413219261188E+03    0.26314E-05   -0.40475E-08  1066   0.580E-04    0.446E-05
RMM:  20    -0.413219260773E+03    0.41454E-06   -0.18597E-08   746   0.527E-04
   45 T=    72. E= -.41286679E+03 F= -.41321926E+03 E0= -.41319830E+03  EK= 0.35247E+00 SP= 0.00E+00 SK= 0.00E+00
       N       E                     dE             d eps       ncg     rms          rms(c)
RMM:   1    -0.413241135215E+03   -0.21874E-01   -0.80721E+00  4314   0.128E+00    0.960E-01
RMM:   2    -0.413226341336E+03    0.14794E-01   -0.13379E-01  4394   0.157E-01    0.708E-01
RMM:   3    -0.413226398042E+03   -0.56706E-04   -0.36742E-02  5061   0.112E-01    0.370E-01
RMM:   4    -0.413250077179E+03   -0.23679E-01   -0.49742E-02  5070   0.193E-01    0.729E-01
RMM:   5    -0.413218662551E+03    0.31415E-01   -0.12197E-02  4698   0.120E-01    0.581E-02
RMM:   6    -0.413218683671E+03   -0.21120E-04   -0.23694E-03  5691   0.465E-02    0.327E-02
RMM:   7    -0.413218702994E+03   -0.19324E-04   -0.37122E-04  5666   0.188E-02    0.226E-02
RMM:   8    -0.413218701673E+03    0.13211E-05   -0.11184E-04  5112   0.113E-02    0.118E-02
RMM:   9    -0.413218692564E+03    0.91093E-05   -0.13923E-05  4089   0.518E-03    0.475E-03
RMM:  10    -0.413218689185E+03    0.33786E-05   -0.33843E-06  2776   0.247E-03    0.287E-03
RMM:  11    -0.413218685553E+03    0.36321E-05   -0.11289E-06  2498   0.174E-03    0.149E-03
RMM:  12    -0.413218679900E+03    0.56532E-05   -0.75865E-07  2424   0.143E-03    0.729E-04
RMM:  13    -0.413218676044E+03    0.38558E-05   -0.35640E-07  2038   0.101E-03    0.321E-04
RMM:  14    -0.413218673219E+03    0.28247E-05   -0.19075E-07  1535   0.773E-04    0.185E-04
RMM:  15    -0.413218667297E+03    0.59223E-05   -0.14402E-07  1332   0.726E-04    0.142E-04
RMM:  16    -0.413218664588E+03    0.27086E-05   -0.89615E-08  1187   0.660E-04    0.963E-05
RMM:  17    -0.413218659995E+03    0.45936E-05   -0.85396E-08  1404   0.666E-04    0.655E-05
RMM:  18    -0.413218657002E+03    0.29927E-05   -0.53520E-08  1138   0.593E-04    0.381E-05
RMM:  19    -0.413218655083E+03    0.19189E-05   -0.33357E-08   947   0.556E-04    0.306E-05
RMM:  20    -0.413218654772E+03    0.31095E-06   -0.18815E-08   757   0.524E-04
   46 T=    72. E= -.41286654E+03 F= -.41321865E+03 E0= -.41319771E+03  EK= 0.35211E+00 SP= 0.00E+00 SK= 0.00E+00
       N       E                     dE             d eps       ncg     rms          rms(c)
RMM:   1    -0.413236386546E+03   -0.17731E-01   -0.80916E+00  4314   0.135E+00    0.954E-01
RMM:   2    -0.413224996808E+03    0.11390E-01   -0.12832E-01  4418   0.167E-01    0.713E-01
RMM:   3    -0.413228017388E+03   -0.30206E-02   -0.42594E-02  5067   0.128E-01    0.439E-01
RMM:   4    -0.413242903259E+03   -0.14886E-01   -0.47267E-02  5040   0.191E-01    0.664E-01
RMM:   5    -0.413217097030E+03    0.25806E-01   -0.95197E-03  4658   0.111E-01    0.559E-02
RMM:   6    -0.413217077487E+03    0.19543E-04   -0.18723E-03  5593   0.419E-02    0.299E-02
RMM:   7    -0.413217093877E+03   -0.16390E-04   -0.30519E-04  5620   0.174E-02    0.206E-02
RMM:   8    -0.413217091639E+03    0.22375E-05   -0.10779E-04  5087   0.111E-02    0.104E-02
RMM:   9    -0.413217084305E+03    0.73342E-05   -0.12178E-05  3945   0.497E-03    0.435E-03
RMM:  10    -0.413217082234E+03    0.20706E-05   -0.28444E-06  2717   0.235E-03    0.259E-03
RMM:  11    -0.413217079641E+03    0.25929E-05   -0.11545E-06  2493   0.171E-03    0.130E-03
RMM:  12    -0.413217075941E+03    0.37002E-05   -0.73248E-07  2400   0.135E-03    0.674E-04
RMM:  13    -0.413217073011E+03    0.29300E-05   -0.34339E-07  1891   0.960E-04    0.291E-04
RMM:  14    -0.413217070269E+03    0.27425E-05   -0.20042E-07  1442   0.766E-04    0.162E-04
RMM:  15    -0.413217065919E+03    0.43501E-05   -0.16522E-07  1383   0.737E-04    0.119E-04
RMM:  16    -0.413217063140E+03    0.27788E-05   -0.11073E-07  1302   0.672E-04    0.880E-05
RMM:  17    -0.413217058310E+03    0.48300E-05   -0.11033E-07  1492   0.681E-04    0.539E-05
RMM:  18    -0.413217056045E+03    0.22649E-05   -0.54871E-08  1037   0.564E-04    0.348E-05
RMM:  19    -0.413217055199E+03    0.84577E-06   -0.30559E-08   816   0.523E-04
   47 T=    71. E= -.41286645E+03 F= -.41321706E+03 E0= -.41319612E+03  EK= 0.35060E+00 SP= 0.00E+00 SK= 0.00E+00
       N       E                     dE             d eps       ncg     rms          rms(c)
RMM:   1    -0.413233570772E+03   -0.16515E-01   -0.79833E+00  4312   0.140E+00    0.968E-01
RMM:   2    -0.413221979016E+03    0.11592E-01   -0.12707E-01  4452   0.174E-01    0.710E-01
RMM:   3    -0.413230432381E+03   -0.84534E-02   -0.44237E-02  5096   0.143E-01    0.529E-01
RMM:   4    -0.413232495750E+03   -0.20634E-02   -0.44003E-02  5013   0.187E-01    0.557E-01
RMM:   5    -0.413214419351E+03    0.18076E-01   -0.59653E-03  4590   0.958E-02    0.554E-02
RMM:   6    -0.413214360550E+03    0.58801E-04   -0.11811E-03  5267   0.349E-02    0.287E-02
RMM:   7    -0.413214380964E+03   -0.20415E-04   -0.21107E-04  5539   0.149E-02    0.178E-02
RMM:   8    -0.413214381296E+03   -0.33160E-06   -0.10589E-04  5162   0.108E-02    0.106E-02
RMM:   9    -0.413214370137E+03    0.11159E-04   -0.11973E-05  3967   0.499E-03    0.419E-03
RMM:  10    -0.413214367071E+03    0.30657E-05   -0.28459E-06  2720   0.236E-03    0.236E-03
RMM:  11    -0.413214362264E+03    0.48064E-05   -0.11628E-06  2476   0.178E-03    0.122E-03
RMM:  12    -0.413214357869E+03    0.43952E-05   -0.56100E-07  2313   0.127E-03    0.681E-04
RMM:  13    -0.413214353771E+03    0.40984E-05   -0.27942E-07  1793   0.916E-04    0.315E-04
RMM:  14    -0.413214349235E+03    0.45359E-05   -0.16372E-07  1421   0.743E-04    0.163E-04
RMM:  15    -0.413214344686E+03    0.45487E-05   -0.11609E-07  1298   0.691E-04    0.119E-04
RMM:  16    -0.413214341182E+03    0.35040E-05   -0.80188E-08  1190   0.639E-04    0.863E-05
RMM:  17    -0.413214334793E+03    0.63890E-05   -0.87012E-08  1438   0.659E-04    0.713E-05
RMM:  18    -0.413214333648E+03    0.11455E-05   -0.32045E-08   832   0.524E-04    0.525E-05
RMM:  19    -0.413214331894E+03    0.17538E-05   -0.25648E-08   827   0.530E-04    0.227E-05
RMM:  20    -0.413214331114E+03    0.77989E-06   -0.16188E-08   718   0.511E-04
   48 T=    71. E= -.41286663E+03 F= -.41321433E+03 E0= -.41319341E+03  EK= 0.34770E+00 SP= 0.00E+00 SK= 0.00E+00
       N       E                     dE             d eps       ncg     rms          rms(c)
RMM:   1    -0.413230507862E+03   -0.16176E-01   -0.78352E+00  4309   0.151E+00    0.955E-01
RMM:   2    -0.413216552057E+03    0.13956E-01   -0.12735E-01  4514   0.185E-01    0.699E-01
RMM:   3    -0.413232524878E+03   -0.15973E-01   -0.47645E-02  5116   0.162E-01    0.637E-01
RMM:   4    -0.413221372193E+03    0.11153E-01   -0.42975E-02  4980   0.188E-01    0.458E-01
RMM:   5    -0.413209207788E+03    0.12164E-01   -0.40529E-03  4568   0.864E-02    0.563E-02
RMM:   6    -0.413209100568E+03    0.10722E-03   -0.62444E-04  4835   0.290E-02    0.285E-02
RMM:   7    -0.413209109179E+03   -0.86110E-05   -0.16042E-04  5760   0.138E-02    0.125E-02
RMM:   8    -0.413209104439E+03    0.47402E-05   -0.41480E-05  5271   0.771E-03    0.795E-03
RMM:   9    -0.413209101651E+03    0.27878E-05   -0.11129E-05  3908   0.393E-03    0.382E-03
RMM:  10    -0.413209097997E+03    0.36534E-05   -0.18340E-06  2566   0.221E-03    0.243E-03
RMM:  11    -0.413209092576E+03    0.54217E-05   -0.10718E-06  2467   0.177E-03    0.148E-03
RMM:  12    -0.413209088958E+03    0.36182E-05   -0.43120E-07  2397   0.118E-03    0.809E-04
RMM:  13    -0.413209084327E+03    0.46305E-05   -0.26513E-07  1929   0.887E-04    0.415E-04
RMM:  14    -0.413209078154E+03    0.61727E-05   -0.19409E-07  1665   0.772E-04    0.406E-04
RMM:  15    -0.413209073701E+03    0.44532E-05   -0.93910E-08  1055   0.609E-04    0.172E-04
RMM:  16    -0.413209070455E+03    0.32466E-05   -0.70185E-08  1124   0.605E-04    0.103E-04
RMM:  17    -0.413209066517E+03    0.39379E-05   -0.55509E-08  1084   0.589E-04    0.111E-04
RMM:  18    -0.413209065068E+03    0.14485E-05   -0.30223E-08   839   0.535E-04    0.734E-05
RMM:  19    -0.413209061074E+03    0.39937E-05   -0.41106E-08  1074   0.575E-04    0.421E-05
RMM:  20    -0.413209059731E+03    0.13432E-05   -0.20186E-08   779   0.509E-04    0.278E-05
RMM:  21    -0.413209059440E+03    0.29172E-06   -0.10374E-08   614   0.480E-04
   49 T=    70. E= -.41286631E+03 F= -.41320906E+03 E0= -.41318814E+03  EK= 0.34275E+00 SP= 0.00E+00 SK= 0.00E+00
       N       E                     dE             d eps       ncg     rms          rms(c)
RMM:   1    -0.413227190776E+03   -0.18131E-01   -0.77693E+00  4310   0.166E+00    0.926E-01
RMM:   2    -0.413210157605E+03    0.17033E-01   -0.13439E-01  4621   0.199E-01    0.697E-01
RMM:   3    -0.413233828846E+03   -0.23671E-01   -0.52420E-02  5137   0.181E-01    0.734E-01
RMM:   4    -0.413212634717E+03    0.21194E-01   -0.46244E-02  4949   0.198E-01    0.416E-01
RMM:   5    -0.413202730587E+03    0.99041E-02   -0.40599E-03  4639   0.888E-02    0.608E-02
RMM:   6    -0.413202569391E+03    0.16120E-03   -0.47002E-04  4692   0.287E-02    0.288E-02
RMM:   7    -0.413202601408E+03   -0.32016E-04   -0.25884E-04  5725   0.178E-02    0.206E-02
RMM:   8    -0.413202580903E+03    0.20504E-04   -0.68966E-05  5053   0.961E-03    0.998E-03
RMM:   9    -0.413202578683E+03    0.22205E-05   -0.20145E-05  5042   0.564E-03    0.457E-03
RMM:  10    -0.413202575843E+03    0.28400E-05   -0.26374E-06  2704   0.248E-03    0.262E-03
RMM:  11    -0.413202571966E+03    0.38768E-05   -0.13652E-06  2494   0.196E-03    0.197E-03
RMM:  12    -0.413202568775E+03    0.31907E-05   -0.48367E-07  2396   0.123E-03    0.103E-03
RMM:  13    -0.413202565635E+03    0.31402E-05   -0.30405E-07  2123   0.910E-04    0.429E-04
RMM:  14    -0.413202561545E+03    0.40903E-05   -0.22828E-07  1651   0.786E-04    0.314E-04
RMM:  15    -0.413202556808E+03    0.47369E-05   -0.16497E-07  1358   0.701E-04    0.151E-04
RMM:  16    -0.413202554122E+03    0.26859E-05   -0.90183E-08  1096   0.611E-04    0.926E-05
RMM:  17    -0.413202549890E+03    0.42317E-05   -0.92133E-08  1272   0.629E-04    0.689E-05
RMM:  18    -0.413202547144E+03    0.27460E-05   -0.60732E-08  1112   0.580E-04    0.661E-05
RMM:  19    -0.413202546459E+03    0.68508E-06   -0.27267E-08   808   0.510E-04
   50 T=    68. E= -.41286661E+03 F= -.41320255E+03 E0= -.41318163E+03  EK= 0.33594E+00 SP= 0.00E+00 SK= 0.00E+00
       N       E                     dE             d eps       ncg     rms          rms(c)
RMM:   1    -0.413223483965E+03   -0.20937E-01   -0.76229E+00  4305   0.178E+00    0.925E-01
RMM:   2    -0.413200440444E+03    0.23044E-01   -0.13798E-01  4679   0.208E-01    0.692E-01
RMM:   3    -0.413232989320E+03   -0.32549E-01   -0.56710E-02  5151   0.198E-01    0.831E-01
RMM:   4    -0.413199997638E+03    0.32992E-01   -0.47484E-02  4926   0.204E-01    0.347E-01
RMM:   5    -0.413193206583E+03    0.67911E-02   -0.44403E-03  4904   0.912E-02    0.709E-02
RMM:   6    -0.413192958730E+03    0.24785E-03   -0.46898E-04  4572   0.306E-02    0.319E-02
RMM:   7    -0.413192990768E+03   -0.32037E-04   -0.31548E-04  5650   0.199E-02    0.254E-02
[...]
RMM:  15    -0.413160564924E+03   -0.10585E-05   -0.37725E-07  1544   0.798E-04    0.152E-04
RMM:  16    -0.413160565658E+03   -0.73418E-06   -0.26532E-07  1395   0.718E-04
  139 T=    60. E= -.41286525E+03 F= -.41316057E+03 E0= -.41313985E+03  EK= 0.29532E+00 SP= 0.00E+00 SK= 0.00E+00
       N       E                     dE             d eps       ncg     rms          rms(c)
RMM:   1    -0.413170929336E+03   -0.10364E-01   -0.53375E+00  4264   0.626E-01    0.861E-01
RMM:   2    -0.413167144675E+03    0.37847E-02   -0.70191E-02  4325   0.739E-02    0.620E-01
RMM:   3    -0.413165908038E+03    0.12366E-02   -0.51889E-02  5110   0.831E-02    0.347E-01
RMM:   4    -0.413175996139E+03   -0.10088E-01   -0.23493E-02  5064   0.132E-01    0.529E-01
RMM:   5    -0.413161041644E+03    0.14954E-01   -0.83871E-03  4686   0.896E-02    0.435E-02
RMM:   6    -0.413161030014E+03    0.11630E-04   -0.11480E-03  5403   0.332E-02    0.239E-02
RMM:   7    -0.413161062138E+03   -0.32125E-04   -0.19702E-04  5797   0.129E-02    0.161E-02
RMM:   8    -0.413161074703E+03   -0.12565E-04   -0.40898E-05  5110   0.725E-03    0.658E-03
RMM:   9    -0.413161080809E+03   -0.61054E-05   -0.57526E-06  2885   0.299E-03    0.352E-03
RMM:  10    -0.413161086991E+03   -0.61821E-05   -0.13460E-06  2526   0.175E-03    0.230E-03
RMM:  11    -0.413161096275E+03   -0.92846E-05   -0.16928E-06  2502   0.154E-03    0.102E-03
RMM:  12    -0.413161101071E+03   -0.47961E-05   -0.68800E-07  2044   0.111E-03    0.447E-04
RMM:  13    -0.413161105300E+03   -0.42288E-05   -0.48898E-07  1849   0.919E-04    0.290E-04
RMM:  14    -0.413161108966E+03   -0.36659E-05   -0.42287E-07  1503   0.819E-04    0.190E-04
RMM:  15    -0.413161112029E+03   -0.30632E-05   -0.40419E-07  1578   0.806E-04    0.148E-04
RMM:  16    -0.413161113950E+03   -0.19209E-05   -0.26821E-07  1418   0.719E-04    0.102E-04
RMM:  17    -0.413161115084E+03   -0.11333E-05   -0.15736E-07  1154   0.627E-04    0.652E-05
RMM:  18    -0.413161115473E+03   -0.38997E-06   -0.75632E-08   930   0.552E-04
  140 T=    60. E= -.41286544E+03 F= -.41316112E+03 E0= -.41314041E+03  EK= 0.29568E+00 SP= 0.00E+00 SK= 0.00E+00
       N       E                     dE             d eps       ncg     rms          rms(c)
RMM:   1    -0.413171635697E+03   -0.10521E-01   -0.52686E+00  4264   0.621E-01    0.869E-01
RMM:   2    -0.413167595023E+03    0.40407E-02   -0.69036E-02  4324   0.735E-02    0.626E-01
RMM:   3    -0.413165463281E+03    0.21317E-02   -0.54786E-02  5093   0.799E-02    0.345E-01
RMM:   4    -0.413176276328E+03   -0.10813E-01   -0.22325E-02  5070   0.129E-01    0.532E-01
RMM:   5    -0.413161178805E+03    0.15098E-01   -0.88137E-03  4713   0.903E-02    0.423E-02
RMM:   6    -0.413161172969E+03    0.58358E-05   -0.11535E-03  5456   0.333E-02    0.229E-02
RMM:   7    -0.413161211052E+03   -0.38082E-04   -0.18974E-04  5737   0.125E-02    0.155E-02
RMM:   8    -0.413161224493E+03   -0.13442E-04   -0.38983E-05  5078   0.699E-03    0.630E-03
RMM:   9    -0.413161232356E+03   -0.78625E-05   -0.56834E-06  2880   0.294E-03    0.359E-03
RMM:  10    -0.413161240273E+03   -0.79175E-05   -0.14597E-06  2527   0.176E-03    0.235E-03
RMM:  11    -0.413161251289E+03   -0.11016E-04   -0.16923E-06  2481   0.150E-03    0.967E-04
RMM:  12    -0.413161258013E+03   -0.67241E-05   -0.78060E-07  2071   0.113E-03    0.421E-04
RMM:  13    -0.413161262558E+03   -0.45448E-05   -0.43642E-07  1803   0.896E-04    0.296E-04
RMM:  14    -0.413161267293E+03   -0.47353E-05   -0.45230E-07  1591   0.840E-04    0.187E-04
RMM:  15    -0.413161271153E+03   -0.38595E-05   -0.41929E-07  1661   0.818E-04    0.163E-04
RMM:  16    -0.413161273550E+03   -0.23976E-05   -0.27348E-07  1413   0.720E-04    0.998E-05
RMM:  17    -0.413161274893E+03   -0.13431E-05   -0.15574E-07  1203   0.624E-04    0.614E-05
RMM:  18    -0.413161275269E+03   -0.37544E-06   -0.73418E-08   914   0.535E-04
  141 T=    60. E= -.41286510E+03 F= -.41316128E+03 E0= -.41314058E+03  EK= 0.29618E+00 SP= 0.00E+00 SK= 0.00E+00
       N       E                     dE             d eps       ncg     rms          rms(c)
RMM:   1    -0.413172381846E+03   -0.11107E-01   -0.51617E+00  4264   0.618E-01    0.884E-01
RMM:   2    -0.413167449040E+03    0.49328E-02   -0.68530E-02  4322   0.730E-02    0.625E-01
RMM:   3    -0.413164571005E+03    0.28780E-02   -0.51568E-02  5069   0.747E-02    0.298E-01
RMM:   4    -0.413177787709E+03   -0.13217E-01   -0.22712E-02  5082   0.129E-01    0.548E-01
RMM:   5    -0.413161185048E+03    0.16603E-01   -0.89165E-03  4724   0.933E-02    0.427E-02
RMM:   6    -0.413161179846E+03    0.52017E-05   -0.12763E-03  5509   0.350E-02    0.235E-02
RMM:   7    -0.413161213065E+03   -0.33219E-04   -0.20088E-04  5757   0.128E-02    0.163E-02
RMM:   8    -0.413161219821E+03   -0.67552E-05   -0.40769E-05  5068   0.716E-03    0.670E-03
RMM:   9    -0.413161222775E+03   -0.29546E-05   -0.65299E-06  2975   0.309E-03    0.347E-03
RMM:  10    -0.413161226707E+03   -0.39318E-05   -0.16684E-06  2534   0.184E-03    0.226E-03
RMM:  11    -0.413161231820E+03   -0.51131E-05   -0.16662E-06  2491   0.153E-03    0.980E-04
RMM:  12    -0.413161235644E+03   -0.38237E-05   -0.87681E-07  2141   0.117E-03    0.452E-04
RMM:  13    -0.413161237869E+03   -0.22255E-05   -0.41510E-07  1748   0.889E-04    0.324E-04
RMM:  14    -0.413161240429E+03   -0.25592E-05   -0.46396E-07  1640   0.866E-04    0.188E-04
RMM:  15    -0.413161242496E+03   -0.20674E-05   -0.45119E-07  1661   0.830E-04    0.173E-04
RMM:  16    -0.413161243947E+03   -0.14510E-05   -0.31061E-07  1466   0.741E-04    0.104E-04
RMM:  17    -0.413161244808E+03   -0.86073E-06   -0.17764E-07  1211   0.639E-04
  142 T=    60. E= -.41286528E+03 F= -.41316124E+03 E0= -.41314056E+03  EK= 0.29596E+00 SP= 0.00E+00 SK= 0.00E+00
       N       E                     dE             d eps       ncg     rms          rms(c)
RMM:   1    -0.413171783026E+03   -0.10539E-01   -0.51626E+00  4264   0.623E-01    0.863E-01
RMM:   2    -0.413167401371E+03    0.43817E-02   -0.67679E-02  4330   0.721E-02    0.619E-01
RMM:   3    -0.413163911964E+03    0.34894E-02   -0.51958E-02  5033   0.696E-02    0.292E-01
RMM:   4    -0.413178026419E+03   -0.14114E-01   -0.21380E-02  5094   0.125E-01    0.550E-01
RMM:   5    -0.413161186443E+03    0.16840E-01   -0.91753E-03  4759   0.945E-02    0.417E-02
RMM:   6    -0.413161194580E+03   -0.81375E-05   -0.13097E-03  5579   0.355E-02    0.234E-02
RMM:   7    -0.413161221142E+03   -0.26561E-04   -0.20097E-04  5685   0.130E-02    0.156E-02
RMM:   8    -0.413161231719E+03   -0.10578E-04   -0.39007E-05  4895   0.717E-03    0.625E-03
RMM:   9    -0.413161237272E+03   -0.55528E-05   -0.69193E-06  3009   0.307E-03    0.345E-03
RMM:  10    -0.413161244370E+03   -0.70978E-05   -0.18090E-06  2544   0.185E-03    0.225E-03
RMM:  11    -0.413161252157E+03   -0.77872E-05   -0.14431E-06  2458   0.147E-03    0.941E-04
RMM:  12    -0.413161258621E+03   -0.64637E-05   -0.95383E-07  2200   0.119E-03    0.462E-04
RMM:  13    -0.413161261983E+03   -0.33618E-05   -0.42270E-07  1685   0.884E-04    0.316E-04
RMM:  14    -0.413161265929E+03   -0.39459E-05   -0.48326E-07  1677   0.879E-04    0.183E-04
RMM:  15    -0.413161269261E+03   -0.33323E-05   -0.47228E-07  1715   0.847E-04    0.193E-04
RMM:  16    -0.413161271643E+03   -0.23816E-05   -0.36563E-07  1551   0.774E-04    0.109E-04
RMM:  17    -0.413161272412E+03   -0.76920E-06   -0.13412E-07  1073   0.598E-04
  143 T=    60. E= -.41286527E+03 F= -.41316127E+03 E0= -.41314060E+03  EK= 0.29601E+00 SP= 0.00E+00 SK= 0.00E+00
       N       E                     dE             d eps       ncg     rms          rms(c)
RMM:   1    -0.413171788597E+03   -0.10517E-01   -0.53332E+00  4264   0.635E-01    0.859E-01
RMM:   2    -0.413168001034E+03    0.37876E-02   -0.68507E-02  4320   0.743E-02    0.624E-01
RMM:   3    -0.413163831569E+03    0.41695E-02   -0.52793E-02  4922   0.662E-02    0.292E-01
RMM:   4    -0.413175712617E+03   -0.11881E-01   -0.17352E-02  5100   0.112E-01    0.501E-01
RMM:   5    -0.413161623632E+03    0.14089E-01   -0.74354E-03  4780   0.857E-02    0.394E-02
RMM:   6    -0.413161639985E+03   -0.16352E-04   -0.11615E-03  5607   0.335E-02    0.237E-02
RMM:   7    -0.413161672524E+03   -0.32539E-04   -0.19030E-04  5628   0.123E-02    0.147E-02
RMM:   8    -0.413161686358E+03   -0.13835E-04   -0.32374E-05  4717   0.628E-03    0.584E-03
RMM:   9    -0.413161694035E+03   -0.76770E-05   -0.53098E-06  2930   0.279E-03    0.349E-03
RMM:  10    -0.413161705269E+03   -0.11234E-04   -0.16714E-06  2534   0.179E-03    0.221E-03
RMM:  11    -0.413161716245E+03   -0.10976E-04   -0.12840E-06  2448   0.139E-03    0.880E-04
RMM:  12    -0.413161725453E+03   -0.92083E-05   -0.88573E-07  2211   0.115E-03    0.476E-04
RMM:  13    -0.413161730786E+03   -0.53332E-05   -0.44221E-07  1701   0.889E-04    0.299E-04
RMM:  14    -0.413161735748E+03   -0.49617E-05   -0.42495E-07  1736   0.864E-04    0.202E-04
RMM:  15    -0.413161740950E+03   -0.52022E-05   -0.50396E-07  1747   0.875E-04    0.211E-04
RMM:  16    -0.413161743851E+03   -0.29010E-05   -0.30423E-07  1516   0.744E-04    0.116E-04
RMM:  17    -0.413161744514E+03   -0.66297E-06   -0.10925E-07  1028   0.567E-04
  144 T=    60. E= -.41286516E+03 F= -.41316174E+03 E0= -.41314108E+03  EK= 0.29659E+00 SP= 0.00E+00 SK= 0.00E+00
       N       E                     dE             d eps       ncg     rms          rms(c)
RMM:   1    -0.413171847866E+03   -0.10104E-01   -0.54533E+00  4264   0.641E-01    0.868E-01
RMM:   2    -0.413167873038E+03    0.39748E-02   -0.70192E-02  4312   0.761E-02    0.623E-01
RMM:   3    -0.413163286033E+03    0.45870E-02   -0.45997E-02  4820   0.600E-02    0.228E-01
RMM:   4    -0.413170554225E+03   -0.72682E-02   -0.10606E-02  5119   0.870E-02    0.391E-01
RMM:   5    -0.413161907574E+03    0.86467E-02   -0.44146E-03  4808   0.667E-02    0.373E-02
RMM:   6    -0.413161924806E+03   -0.17232E-04   -0.80139E-04  5564   0.286E-02    0.257E-02
RMM:   7    -0.413161946983E+03   -0.22177E-04   -0.17339E-04  5469   0.118E-02    0.158E-02
RMM:   8    -0.413161953457E+03   -0.64745E-05   -0.28316E-05  4566   0.571E-03    0.592E-03
RMM:   9    -0.413161957320E+03   -0.38625E-05   -0.44354E-06  2757   0.250E-03    0.332E-03
RMM:  10    -0.413161964653E+03   -0.73334E-05   -0.18117E-06  2534   0.180E-03    0.192E-03
RMM:  11    -0.413161970577E+03   -0.59243E-05   -0.11260E-06  2398   0.135E-03    0.795E-04
RMM:  12    -0.413161975435E+03   -0.48579E-05   -0.74181E-07  2139   0.108E-03    0.448E-04
RMM:  13    -0.413161979478E+03   -0.40427E-05   -0.56571E-07  1791   0.926E-04    0.283E-04
RMM:  14    -0.413161982309E+03   -0.28313E-05   -0.38734E-07  1608   0.826E-04    0.202E-04
RMM:  15    -0.413161985637E+03   -0.33280E-05   -0.53314E-07  1805   0.881E-04    0.197E-04
RMM:  16    -0.413161987460E+03   -0.18230E-05   -0.31372E-07  1451   0.730E-04    0.134E-04
RMM:  17    -0.413161987843E+03   -0.38319E-06   -0.95922E-08   967   0.554E-04
  145 T=    60. E= -.41286551E+03 F= -.41316199E+03 E0= -.41314133E+03  EK= 0.29648E+00 SP= 0.00E+00 SK= 0.00E+00
       N       E                     dE             d eps       ncg     rms          rms(c)
RMM:   1    -0.413170101415E+03   -0.81140E-02   -0.56495E+00  4264   0.657E-01    0.852E-01
RMM:   2    -0.413167211568E+03    0.28898E-02   -0.71482E-02  4311   0.776E-02    0.616E-01
RMM:   3    -0.413162462332E+03    0.47492E-02   -0.41997E-02  4627   0.570E-02    0.203E-01
RMM:   4    -0.413162731484E+03   -0.26915E-03   -0.31020E-03  5083   0.436E-02    0.154E-01
RMM:   5    -0.413161465191E+03    0.12663E-02   -0.74099E-04  4815   0.277E-02    0.360E-02
RMM:   6    -0.413161478093E+03   -0.12902E-04   -0.31035E-04  5282   0.181E-02    0.263E-02
RMM:   7    -0.413161496767E+03   -0.18674E-04   -0.11799E-04  4792   0.103E-02    0.154E-02
RMM:   8    -0.413161497690E+03   -0.92292E-06   -0.16735E-05  3999   0.458E-03    0.521E-03
RMM:   9    -0.413161502882E+03   -0.51927E-05   -0.51264E-06  2582   0.225E-03    0.261E-03
RMM:  10    -0.413161511465E+03   -0.85826E-05   -0.16815E-06  2499   0.160E-03    0.139E-03
RMM:  11    -0.413161517920E+03   -0.64550E-05   -0.11289E-06  2204   0.123E-03    0.547E-04
RMM:  12    -0.413161521885E+03   -0.39650E-05   -0.49816E-07  1932   0.935E-04    0.364E-04
RMM:  13    -0.413161526546E+03   -0.46616E-05   -0.56358E-07  1751   0.893E-04    0.226E-04
RMM:  14    -0.413161530251E+03   -0.37047E-05   -0.52711E-07  1710   0.857E-04    0.200E-04
RMM:  15    -0.413161532535E+03   -0.22843E-05   -0.32972E-07  1459   0.732E-04    0.110E-04
RMM:  16    -0.413161534029E+03   -0.14932E-05   -0.20675E-07  1232   0.658E-04    0.759E-05
RMM:  17    -0.413161534371E+03   -0.34199E-06   -0.76720E-08   917   0.540E-04
  146 T=    60. E= -.41286527E+03 F= -.41316153E+03 E0= -.41314088E+03  EK= 0.29627E+00 SP= 0.00E+00 SK= 0.00E+00
       N       E                     dE             d eps       ncg     rms          rms(c)
RMM:   1    -0.413169780929E+03   -0.82469E-02   -0.60031E+00  4264   0.679E-01    0.843E-01
RMM:   2    -0.413168164480E+03    0.16164E-02   -0.73651E-02  4309   0.798E-02    0.619E-01
RMM:   3    -0.413163349715E+03    0.48148E-02   -0.40719E-02  4559   0.610E-02    0.213E-01
RMM:   4    -0.413163425702E+03   -0.75987E-04   -0.30901E-03  5063   0.435E-02    0.144E-01
RMM:   5    -0.413162356536E+03    0.10692E-02   -0.63055E-04  4814   0.259E-02    0.371E-02
RMM:   6    -0.413162371072E+03   -0.14536E-04   -0.31923E-04  5273   0.183E-02    0.266E-02
RMM:   7    -0.413162392122E+03   -0.21049E-04   -0.12567E-04  4776   0.105E-02    0.152E-02
RMM:   8    -0.413162395365E+03   -0.32439E-05   -0.16880E-05  4056   0.448E-03    0.511E-03
RMM:   9    -0.413162403198E+03   -0.78324E-05   -0.52788E-06  2587   0.238E-03    0.269E-03
RMM:  10    -0.413162415569E+03   -0.12371E-04   -0.16045E-06  2491   0.165E-03    0.130E-03
RMM:  11    -0.413162426581E+03   -0.11013E-04   -0.11017E-06  2315   0.126E-03    0.625E-04
RMM:  12    -0.413162434419E+03   -0.78379E-05   -0.56867E-07  1957   0.957E-04    0.323E-04
RMM:  13    -0.413162440832E+03   -0.64125E-05   -0.47082E-07  1638   0.849E-04    0.243E-04
RMM:  14    -0.413162447147E+03   -0.63155E-05   -0.53800E-07  1889   0.891E-04    0.182E-04
RMM:  15    -0.413162450597E+03   -0.34498E-05   -0.31603E-07  1474   0.736E-04    0.830E-05
RMM:  16    -0.413162452353E+03   -0.17563E-05   -0.17103E-07  1170   0.626E-04    0.596E-05
RMM:  17    -0.413162452837E+03   -0.48339E-06   -0.80154E-08   936   0.547E-04
  147 T=    60. E= -.41286539E+03 F= -.41316245E+03 E0= -.41314181E+03  EK= 0.29707E+00 SP= 0.00E+00 SK= 0.00E+00
       N       E                     dE             d eps       ncg     rms          rms(c)
RMM:   1    -0.413169019151E+03   -0.65668E-02   -0.63342E+00  4264   0.698E-01    0.851E-01
RMM:   2    -0.413167870667E+03    0.11485E-02   -0.76802E-02  4306   0.825E-02    0.618E-01
RMM:   3    -0.413163316059E+03    0.45546E-02   -0.33606E-02  4766   0.571E-02    0.164E-01
RMM:   4    -0.413170809282E+03   -0.74932E-02   -0.92268E-03  5135   0.826E-02    0.382E-01
RMM:   5    -0.413162622975E+03    0.81863E-02   -0.40774E-03  4826   0.636E-02    0.420E-02
RMM:   6    -0.413162636077E+03   -0.13103E-04   -0.86446E-04  5561   0.292E-02    0.297E-02
RMM:   7    -0.413162647466E+03   -0.11389E-04   -0.20798E-04  5392   0.135E-02    0.160E-02
RMM:   8    -0.413162650709E+03   -0.32427E-05   -0.29311E-05  4789   0.583E-03    0.630E-03
RMM:   9    -0.413162654908E+03   -0.41991E-05   -0.47653E-06  2840   0.264E-03    0.341E-03
RMM:  10    -0.413162662836E+03   -0.79284E-05   -0.16621E-06  2523   0.187E-03    0.184E-03
RMM:  11    -0.413162669775E+03   -0.69390E-05   -0.10677E-06  2473   0.144E-03    0.101E-03
RMM:  12    -0.413162675952E+03   -0.61766E-05   -0.81562E-07  2301   0.118E-03    0.497E-04
RMM:  13    -0.413162679479E+03   -0.35271E-05   -0.44416E-07  1900   0.923E-04    0.314E-04
RMM:  14    -0.413162682619E+03   -0.31404E-05   -0.33862E-07  1563   0.816E-04    0.246E-04
RMM:  15    -0.413162686431E+03   -0.38117E-05   -0.46899E-07  1780   0.858E-04    0.166E-04
RMM:  16    -0.413162688442E+03   -0.20110E-05   -0.26305E-07  1496   0.727E-04    0.102E-04
RMM:  17    -0.413162689163E+03   -0.72104E-06   -0.10856E-07  1083   0.585E-04
  148 T=    60. E= -.41286553E+03 F= -.41316269E+03 E0= -.41314205E+03  EK= 0.29716E+00 SP= 0.00E+00 SK= 0.00E+00
       N       E                     dE             d eps       ncg     rms          rms(c)
RMM:   1    -0.413167079711E+03   -0.43913E-02   -0.66828E+00  4264   0.720E-01    0.847E-01
RMM:   2    -0.413166651954E+03    0.42776E-03   -0.79769E-02  4308   0.829E-02    0.611E-01
RMM:   3    -0.413162781298E+03    0.38707E-02   -0.27893E-02  4912   0.544E-02    0.137E-01
RMM:   4    -0.413178502272E+03   -0.15721E-01   -0.17746E-02  5131   0.112E-01    0.535E-01
RMM:   5    -0.413162053961E+03    0.16448E-01   -0.80470E-03  4823   0.885E-02    0.487E-02
RMM:   6    -0.413162082660E+03   -0.28700E-04   -0.15034E-03  5641   0.373E-02    0.316E-02
RMM:   7    -0.413162097862E+03   -0.15202E-04   -0.28138E-04  5672   0.150E-02    0.170E-02
RMM:   8    -0.413162100274E+03   -0.24119E-05   -0.37223E-05  5107   0.662E-03    0.706E-03
RMM:   9    -0.413162103102E+03   -0.28279E-05   -0.61322E-06  3076   0.295E-03    0.406E-03
RMM:  10    -0.413162108925E+03   -0.58229E-05   -0.18994E-06  2545   0.205E-03    0.237E-03
RMM:  11    -0.413162113479E+03   -0.45545E-05   -0.11149E-06  2501   0.153E-03    0.128E-03
RMM:  12    -0.413162118503E+03   -0.50240E-05   -0.10421E-06  2475   0.135E-03    0.680E-04
RMM:  13    -0.413162120889E+03   -0.23856E-05   -0.46661E-07  2035   0.987E-04    0.382E-04
RMM:  14    -0.413162122654E+03   -0.17653E-05   -0.27918E-07  1596   0.811E-04    0.267E-04
RMM:  15    -0.413162125651E+03   -0.29966E-05   -0.44096E-07  1804   0.860E-04    0.229E-04
RMM:  16    -0.413162127500E+03   -0.18493E-05   -0.32249E-07  1544   0.756E-04    0.162E-04
RMM:  17    -0.413162128074E+03   -0.57356E-06   -0.11648E-07  1076   0.599E-04
  149 T=    60. E= -.41286537E+03 F= -.41316213E+03 E0= -.41314149E+03  EK= 0.29675E+00 SP= 0.00E+00 SK= 0.00E+00
       N       E                     dE             d eps       ncg     rms          rms(c)
RMM:   1    -0.413166193304E+03   -0.40658E-02   -0.71057E+00  4264   0.738E-01    0.833E-01
RMM:   2    -0.413167439780E+03   -0.12465E-02   -0.83184E-02  4308   0.855E-02    0.610E-01
RMM:   3    -0.413164047482E+03    0.33923E-02   -0.25713E-02  4943   0.589E-02    0.153E-01
RMM:   4    -0.413185856811E+03   -0.21809E-01   -0.25188E-02  5118   0.133E-01    0.627E-01
RMM:   5    -0.413163042377E+03    0.22814E-01   -0.10946E-02  4810   0.104E-01    0.530E-02
RMM:   6    -0.413163077112E+03   -0.34735E-04   -0.19295E-03  5648   0.423E-02    0.313E-02
RMM:   7    -0.413163107231E+03   -0.30120E-04   -0.33177E-04  5818   0.157E-02    0.172E-02
RMM:   8    -0.413163114806E+03   -0.75748E-05   -0.43412E-05  5200   0.715E-03    0.718E-03
RMM:   9    -0.413163119746E+03   -0.49396E-05   -0.73104E-06  3200   0.315E-03    0.415E-03
RMM:  10    -0.413163129230E+03   -0.94840E-05   -0.21022E-06  2556   0.213E-03    0.258E-03
RMM:  11    -0.413163136589E+03   -0.73596E-05   -0.11178E-06  2516   0.156E-03    0.140E-03
RMM:  12    -0.413163144991E+03   -0.84016E-05   -0.10510E-06  2497   0.140E-03    0.739E-04
RMM:  13    -0.413163148568E+03   -0.35768E-05   -0.44732E-07  2086   0.100E-03    0.417E-04
RMM:  14    -0.413163151349E+03   -0.27814E-05   -0.27240E-07  1646   0.823E-04    0.264E-04
RMM:  15    -0.413163155324E+03   -0.39748E-05   -0.35088E-07  1786   0.837E-04    0.230E-04
RMM:  16    -0.413163158196E+03   -0.28724E-05   -0.27252E-07  1499   0.745E-04    0.162E-04
RMM:  17    -0.413163158964E+03   -0.76764E-06   -0.10533E-07  1097   0.604E-04
  150 T=    61. E= -.41286565E+03 F= -.41316316E+03 E0= -.41314252E+03  EK= 0.29751E+00 SP= 0.00E+00 SK= 0.00E+00
