       N       E                     dE             d eps       ncg     rms          rms(c)
RMM:   1     0.220154619410E+04    0.22015E+04   -0.52441E+04  2132   0.654E+02
RMM:   2     0.705489073607E+03   -0.14961E+04   -0.16263E+04  2132   0.177E+02
RMM:   3     0.137740189854E+03   -0.56775E+03   -0.65707E+03  2132   0.117E+02
RMM:   4    -0.159330184725E+03   -0.29707E+03   -0.27861E+03  2132   0.936E+01
RMM:   5    -0.287483471058E+03   -0.12815E+03   -0.11450E+03  2132   0.595E+01
RMM:   6    -0.349769724419E+03   -0.62286E+02   -0.55119E+02  2132   0.423E+01
RMM:   7    -0.382674103377E+03   -0.32904E+02   -0.30444E+02  2132   0.293E+01
RMM:   8    -0.404166470995E+03   -0.21492E+02   -0.18475E+02  2132   0.233E+01
RMM:   9    -0.435993228991E+03   -0.31827E+02   -0.30775E+02  6099   0.173E+01
RMM:  10    -0.441238303257E+03   -0.52451E+01   -0.63036E+01  6387   0.539E+00
RMM:  11    -0.442517417983E+03   -0.12791E+01   -0.11265E+01  6225   0.174E+00
RMM:  12    -0.442891664678E+03   -0.37425E+00   -0.28365E+00  6367   0.611E-01    0.134E+02
RMM:  13    -0.425626124523E+03    0.17266E+02   -0.81108E+01  4674   0.120E+01    0.712E+01
RMM:  14    -0.499216190906E+03   -0.73590E+02   -0.54006E+02  5423   0.232E+01    0.306E+01
RMM:  15    -0.415880545915E+03    0.83336E+02   -0.19989E+02  5081   0.163E+01    0.695E+00
RMM:  16    -0.414032265495E+03    0.18483E+01   -0.39394E+01  6091   0.610E+00    0.429E+00
RMM:  17    -0.413211480349E+03    0.82079E+00   -0.25231E+00  5401   0.188E+00    0.243E+00
RMM:  18    -0.413177457858E+03    0.34022E-01   -0.76500E-01  5987   0.899E-01    0.167E+00
RMM:  19    -0.413169087801E+03    0.83701E-02   -0.28929E-01  5698   0.576E-01    0.862E-01
RMM:  20    -0.413186877436E+03   -0.17790E-01   -0.24711E-01  5590   0.517E-01    0.584E-01
RMM:  21    -0.413168024116E+03    0.18853E-01   -0.34909E-02  4998   0.235E-01    0.260E-01
RMM:  22    -0.413165853221E+03    0.21709E-02   -0.17386E-02  5999   0.117E-01    0.134E-01
RMM:  23    -0.413164666749E+03    0.11865E-02   -0.52861E-03  5992   0.643E-02    0.820E-02
RMM:  24    -0.413163379164E+03    0.12876E-02   -0.15557E-03  5222   0.381E-02    0.463E-02
RMM:  25    -0.413162878211E+03    0.50095E-03   -0.91674E-04  5546   0.275E-02    0.319E-02
RMM:  26    -0.413163042385E+03   -0.16417E-03   -0.86957E-04  5896   0.292E-02    0.351E-02
RMM:  27    -0.413163433709E+03   -0.39132E-03   -0.19779E-04  4591   0.196E-02    0.198E-02
RMM:  28    -0.413163891782E+03   -0.45807E-03   -0.20528E-04  5299   0.195E-02    0.841E-03
RMM:  29    -0.413164272957E+03   -0.38118E-03   -0.10510E-04  4367   0.151E-02    0.442E-03
RMM:  30    -0.413164495829E+03   -0.22287E-03   -0.78271E-05  4194   0.101E-02    0.383E-03
RMM:  31    -0.413164619983E+03   -0.12415E-03   -0.54386E-05  3177   0.682E-03    0.316E-03
RMM:  32    -0.413164643868E+03   -0.23885E-04   -0.21788E-05  2975   0.302E-03    0.174E-03
RMM:  33    -0.413164654893E+03   -0.11025E-04   -0.89282E-06  2797   0.227E-03    0.527E-04
RMM:  34    -0.413164657030E+03   -0.21363E-05   -0.48561E-06  2637   0.162E-03    0.685E-04
RMM:  35    -0.413164656620E+03    0.40952E-06   -0.23871E-06  2276   0.120E-03
    1 T=    61. E= -.41286686E+03 F= -.41316466E+03 E0= -.41314216E+03  EK= 0.29779E+00 SP= 0.00E+00 SK= 0.00E+00
       N       E                     dE             d eps       ncg     rms          rms(c)
RMM:   1    -0.413162973092E+03    0.16839E-02   -0.90509E+00  3979   0.617E-01    0.886E-01
RMM:   2    -0.413168589169E+03   -0.56161E-02   -0.11109E-01  3967   0.911E-02    0.651E-01
RMM:   3    -0.413164778375E+03    0.38108E-02   -0.16497E-02  4850   0.521E-02    0.104E-01
RMM:   4    -0.413190886433E+03   -0.26108E-01   -0.28228E-02  5196   0.139E-01    0.675E-01
RMM:   5    -0.413164167484E+03    0.26719E-01   -0.12929E-02  4841   0.113E-01    0.485E-02
RMM:   6    -0.413164352366E+03   -0.18488E-03   -0.23850E-03  5779   0.470E-02    0.336E-02
RMM:   7    -0.413164356498E+03   -0.41327E-05   -0.43420E-04  5693   0.190E-02    0.209E-02
RMM:   8    -0.413164354734E+03    0.17642E-05   -0.55129E-05  5116   0.815E-03    0.922E-03
RMM:   9    -0.413164357093E+03   -0.23588E-05   -0.11900E-05  3659   0.365E-03    0.692E-03
RMM:  10    -0.413164362130E+03   -0.50371E-05   -0.22170E-06  2598   0.222E-03    0.419E-03
RMM:  11    -0.413164366549E+03   -0.44188E-05   -0.13772E-06  2532   0.174E-03    0.227E-03
RMM:  12    -0.413164373460E+03   -0.69113E-05   -0.17526E-06  2565   0.189E-03    0.941E-04
RMM:  13    -0.413164376058E+03   -0.25976E-05   -0.68533E-07  2372   0.127E-03    0.694E-04
RMM:  14    -0.413164376020E+03    0.38039E-07   -0.34943E-07  1902   0.855E-04
    2 T=    61. E= -.41286666E+03 F= -.41316438E+03 E0= -.41314188E+03  EK= 0.29771E+00 SP= 0.00E+00 SK= 0.00E+00
       N       E                     dE             d eps       ncg     rms          rms(c)
RMM:   1    -0.413163964427E+03    0.41163E-03   -0.90470E+00  4187   0.624E-01    0.905E-01
RMM:   2    -0.413168711663E+03   -0.47472E-02   -0.10987E-01  4018   0.911E-02    0.647E-01
RMM:   3    -0.413165265911E+03    0.34458E-02   -0.15612E-02  4800   0.496E-02    0.104E-01
RMM:   4    -0.413189136690E+03   -0.23871E-01   -0.24778E-02  5166   0.132E-01    0.647E-01
RMM:   5    -0.413164784563E+03    0.24352E-01   -0.11743E-02  4833   0.108E-01    0.476E-02
RMM:   6    -0.413164955579E+03   -0.17102E-03   -0.21595E-03  5784   0.447E-02    0.335E-02
RMM:   7    -0.413164946666E+03    0.89133E-05   -0.39956E-04  5589   0.191E-02    0.207E-02
RMM:   8    -0.413164936189E+03    0.10477E-04   -0.54025E-05  5033   0.835E-03    0.972E-03
RMM:   9    -0.413164934647E+03    0.15419E-05   -0.11056E-05  3636   0.367E-03    0.736E-03
RMM:  10    -0.413164934834E+03   -0.18730E-06   -0.19778E-06  2565   0.227E-03
    3 T=    61. E= -.41286697E+03 F= -.41316493E+03 E0= -.41314244E+03  EK= 0.29797E+00 SP= 0.00E+00 SK= 0.00E+00
       N       E                     dE             d eps       ncg     rms          rms(c)
RMM:   1    -0.413163672396E+03    0.12623E-02   -0.89827E+00  4222   0.633E-01    0.890E-01
RMM:   2    -0.413168216093E+03   -0.45437E-02   -0.10945E-01  4235   0.902E-02    0.641E-01
RMM:   3    -0.413169623857E+03   -0.14078E-02   -0.18876E-02  5163   0.787E-02    0.305E-01
RMM:   4    -0.413190794923E+03   -0.21171E-01   -0.39810E-02  5117   0.170E-01    0.667E-01
RMM:   5    -0.413164648728E+03    0.26146E-01   -0.10186E-02  4714   0.109E-01    0.603E-02
RMM:   6    -0.413164675170E+03   -0.26442E-04   -0.19861E-03  5501   0.446E-02    0.317E-02
RMM:   7    -0.413164698157E+03   -0.22987E-04   -0.37024E-04  5997   0.173E-02    0.192E-02
RMM:   8    -0.413164694735E+03    0.34219E-05   -0.64149E-05  5172   0.920E-03    0.803E-03
RMM:   9    -0.413164692801E+03    0.19340E-05   -0.83667E-06  3395   0.364E-03    0.417E-03
RMM:  10    -0.413164693892E+03   -0.10908E-05   -0.19223E-06  2571   0.219E-03    0.273E-03
RMM:  11    -0.413164695406E+03   -0.15142E-05   -0.13672E-06  2534   0.183E-03    0.153E-03
RMM:  12    -0.413164696227E+03   -0.82100E-06   -0.80425E-07  2496   0.144E-03
    4 T=    61. E= -.41286665E+03 F= -.41316470E+03 E0= -.41314221E+03  EK= 0.29805E+00 SP= 0.00E+00 SK= 0.00E+00
       N       E                     dE             d eps       ncg     rms          rms(c)
RMM:   1    -0.413163388646E+03    0.13068E-02   -0.90446E+00  4235   0.630E-01    0.884E-01
RMM:   2    -0.413168629234E+03   -0.52406E-02   -0.11126E-01  4018   0.889E-02    0.650E-01
RMM:   3    -0.413165459076E+03    0.31702E-02   -0.16578E-02  4963   0.494E-02    0.120E-01
RMM:   4    -0.413196860912E+03   -0.31402E-01   -0.33767E-02  5146   0.153E-01    0.741E-01
RMM:   5    -0.413164642215E+03    0.32219E-01   -0.15188E-02  4807   0.123E-01    0.503E-02
RMM:   6    -0.413164839087E+03   -0.19687E-03   -0.26738E-03  5760   0.504E-02    0.336E-02
RMM:   7    -0.413164842172E+03   -0.30852E-05   -0.45205E-04  5725   0.195E-02    0.214E-02
RMM:   8    -0.413164837782E+03    0.43904E-05   -0.65233E-05  5141   0.879E-03    0.989E-03
RMM:   9    -0.413164838282E+03   -0.49985E-06   -0.12698E-05  3863   0.400E-03    0.719E-03
RMM:  10    -0.413164842235E+03   -0.39533E-05   -0.20257E-06  2579   0.224E-03    0.442E-03
RMM:  11    -0.413164845886E+03   -0.36511E-05   -0.12857E-06  2535   0.177E-03    0.239E-03
RMM:  12    -0.413164851481E+03   -0.55948E-05   -0.18803E-06  2600   0.198E-03    0.105E-03
RMM:  13    -0.413164853256E+03   -0.17746E-05   -0.59221E-07  2388   0.130E-03    0.742E-04
RMM:  14    -0.413164853160E+03    0.95511E-07   -0.24446E-07  1903   0.855E-04
    5 T=    61. E= -.41286661E+03 F= -.41316485E+03 E0= -.41314238E+03  EK= 0.29824E+00 SP= 0.00E+00 SK= 0.00E+00
       N       E                     dE             d eps       ncg     rms          rms(c)
RMM:   1    -0.413164251415E+03    0.60184E-03   -0.90568E+00  4246   0.636E-01    0.902E-01
RMM:   2    -0.413168827525E+03   -0.45761E-02   -0.11043E-01  4047   0.908E-02    0.649E-01
RMM:   3    -0.413165652513E+03    0.31750E-02   -0.15784E-02  4817   0.479E-02    0.102E-01
RMM:   4    -0.413189286140E+03   -0.23634E-01   -0.24478E-02  5147   0.130E-01    0.644E-01
RMM:   5    -0.413165173053E+03    0.24113E-01   -0.11580E-02  4814   0.107E-01    0.473E-02
RMM:   6    -0.413165342921E+03   -0.16987E-03   -0.21515E-03  5766   0.443E-02    0.330E-02
RMM:   7    -0.413165335031E+03    0.78902E-05   -0.39255E-04  5609   0.189E-02    0.207E-02
RMM:   8    -0.413165325141E+03    0.98892E-05   -0.53532E-05  4961   0.824E-03    0.972E-03
RMM:   9    -0.413165323701E+03    0.14405E-05   -0.10577E-05  3623   0.368E-03    0.736E-03
RMM:  10    -0.413165324113E+03   -0.41233E-06   -0.18987E-06  2556   0.227E-03
    6 T=    61. E= -.41286682E+03 F= -.41316532E+03 E0= -.41314286E+03  EK= 0.29851E+00 SP= 0.00E+00 SK= 0.00E+00
       N       E                     dE             d eps       ncg     rms          rms(c)
RMM:   1    -0.413164298203E+03    0.10255E-02   -0.90085E+00  4257   0.649E-01    0.897E-01
RMM:   2    -0.413168640964E+03   -0.43428E-02   -0.10970E-01  4264   0.892E-02    0.642E-01
RMM:   3    -0.413170005514E+03   -0.13645E-02   -0.18932E-02  5135   0.786E-02    0.306E-01
RMM:   4    -0.413190914434E+03   -0.20909E-01   -0.39494E-02  5100   0.169E-01    0.664E-01
RMM:   5    -0.413165028851E+03    0.25886E-01   -0.10082E-02  4710   0.108E-01    0.601E-02
RMM:   6    -0.413165063838E+03   -0.34987E-04   -0.19703E-03  5485   0.442E-02    0.321E-02
RMM:   7    -0.413165081897E+03   -0.18058E-04   -0.36750E-04  5969   0.173E-02    0.194E-02
RMM:   8    -0.413165076340E+03    0.55570E-05   -0.64144E-05  5161   0.912E-03    0.801E-03
RMM:   9    -0.413165073105E+03    0.32346E-05   -0.79575E-06  3364   0.358E-03    0.413E-03
RMM:  10    -0.413165072990E+03    0.11532E-06   -0.19099E-06  2570   0.218E-03
    7 T=    61. E= -.41286653E+03 F= -.41316507E+03 E0= -.41314262E+03  EK= 0.29854E+00 SP= 0.00E+00 SK= 0.00E+00
       N       E                     dE             d eps       ncg     rms          rms(c)
RMM:   1    -0.413164401770E+03    0.67133E-03   -0.90268E+00  4267   0.651E-01    0.882E-01
RMM:   2    -0.413169679401E+03   -0.52776E-02   -0.11083E-01  4107   0.888E-02    0.648E-01
RMM:   3    -0.413166424606E+03    0.32548E-02   -0.16482E-02  4940   0.521E-02    0.129E-01
RMM:   4    -0.413199955771E+03   -0.33531E-01   -0.36485E-02  5133   0.159E-01    0.765E-01
RMM:   5    -0.413165478011E+03    0.34478E-01   -0.16244E-02  4799   0.127E-01    0.517E-02
RMM:   6    -0.413165680394E+03   -0.20238E-03   -0.28407E-03  5739   0.521E-02    0.340E-02
RMM:   7    -0.413165686283E+03   -0.58891E-05   -0.47556E-04  5771   0.198E-02    0.217E-02
RMM:   8    -0.413165682154E+03    0.41292E-05   -0.67485E-05  5182   0.886E-03    0.992E-03
RMM:   9    -0.413165681783E+03    0.37136E-06   -0.12964E-05  3881   0.404E-03    0.706E-03
RMM:  10    -0.413165684577E+03   -0.27944E-05   -0.20996E-06  2586   0.225E-03    0.434E-03
RMM:  11    -0.413165686950E+03   -0.23733E-05   -0.11836E-06  2525   0.172E-03    0.241E-03
RMM:  12    -0.413165690724E+03   -0.37740E-05   -0.19042E-06  2597   0.198E-03    0.106E-03
RMM:  13    -0.413165692040E+03   -0.13158E-05   -0.66738E-07  2414   0.133E-03    0.835E-04
RMM:  14    -0.413165691763E+03    0.27689E-06   -0.24606E-07  1899   0.862E-04
    8 T=    61. E= -.41286685E+03 F= -.41316569E+03 E0= -.41314326E+03  EK= 0.29884E+00 SP= 0.00E+00 SK= 0.00E+00
       N       E                     dE             d eps       ncg     rms          rms(c)
RMM:   1    -0.413164705583E+03    0.98646E-03   -0.90615E+00  4281   0.648E-01    0.897E-01
RMM:   2    -0.413169822487E+03   -0.51169E-02   -0.11058E-01  4138   0.908E-02    0.651E-01
RMM:   3    -0.413166245160E+03    0.35773E-02   -0.16082E-02  4833   0.493E-02    0.102E-01
RMM:   4    -0.413191072588E+03   -0.24827E-01   -0.25828E-02  5133   0.134E-01    0.660E-01
RMM:   5    -0.413165712956E+03    0.25360E-01   -0.12203E-02  4809   0.109E-01    0.473E-02
RMM:   6    -0.413165880603E+03   -0.16765E-03   -0.22300E-03  5790   0.449E-02    0.323E-02
RMM:   7    -0.413165877536E+03    0.30667E-05   -0.38642E-04  5632   0.187E-02    0.205E-02
RMM:   8    -0.413165867412E+03    0.10125E-04   -0.57642E-05  4974   0.842E-03    0.983E-03
RMM:   9    -0.413165865540E+03    0.18720E-05   -0.11530E-05  3773   0.384E-03    0.745E-03
RMM:  10    -0.413165865895E+03   -0.35560E-06   -0.18840E-06  2558   0.226E-03
    9 T=    61. E= -.41286679E+03 F= -.41316587E+03 E0= -.41314346E+03  EK= 0.29907E+00 SP= 0.00E+00 SK= 0.00E+00
       N       E                     dE             d eps       ncg     rms          rms(c)
RMM:   1    -0.413164938939E+03    0.92660E-03   -0.90332E+00  4292   0.652E-01    0.903E-01
RMM:   2    -0.413169644281E+03   -0.47053E-02   -0.10985E-01  4308   0.924E-02    0.644E-01
RMM:   3    -0.413171561746E+03   -0.19175E-02   -0.19557E-02  5122   0.831E-02    0.326E-01
RMM:   4    -0.413189789264E+03   -0.18228E-01   -0.38515E-02  5081   0.168E-01    0.638E-01
RMM:   5    -0.413165906612E+03    0.23883E-01   -0.90629E-03  4686   0.104E-01    0.595E-02
RMM:   6    -0.413165927010E+03   -0.20398E-04   -0.18197E-03  5447   0.423E-02    0.323E-02
RMM:   7    -0.413165935836E+03   -0.88260E-05   -0.34746E-04  5962   0.168E-02    0.192E-02
RMM:   8    -0.413165928475E+03    0.73606E-05   -0.61310E-05  5117   0.905E-03    0.790E-03
RMM:   9    -0.413165923729E+03    0.47459E-05   -0.75677E-06  3331   0.357E-03    0.406E-03
RMM:  10    -0.413165922547E+03    0.11820E-05   -0.18029E-06  2558   0.216E-03    0.259E-03
RMM:  11    -0.413165920639E+03    0.19079E-05   -0.12671E-06  2519   0.178E-03    0.144E-03
RMM:  12    -0.413165918800E+03    0.18394E-05   -0.74681E-07  2472   0.140E-03    0.584E-04
RMM:  13    -0.413165917679E+03    0.11210E-05   -0.37888E-07  2128   0.101E-03    0.327E-04
RMM:  14    -0.413165916614E+03    0.10647E-05   -0.23069E-07  1640   0.799E-04    0.221E-04
RMM:  15    -0.413165914809E+03    0.18053E-05   -0.23422E-07  1563   0.768E-04    0.156E-04
RMM:  16    -0.413165912997E+03    0.18122E-05   -0.18551E-07  1432   0.710E-04    0.144E-04
RMM:  17    -0.413165911259E+03    0.17379E-05   -0.15336E-07  1338   0.665E-04    0.754E-05
RMM:  18    -0.413165910119E+03    0.11397E-05   -0.85141E-08  1051   0.589E-04    0.420E-05
RMM:  19    -0.413165909558E+03    0.56109E-06   -0.44115E-08   859   0.542E-04
   10 T=    61. E= -.41286657E+03 F= -.41316591E+03 E0= -.41314352E+03  EK= 0.29934E+00 SP= 0.00E+00 SK= 0.00E+00
       N       E                     dE             d eps       ncg     rms          rms(c)
RMM:   1    -0.413165239041E+03    0.67108E-03   -0.90125E+00  4289   0.656E-01    0.883E-01
RMM:   2    -0.413170509428E+03   -0.52704E-02   -0.11065E-01  4207   0.909E-02    0.646E-01
RMM:   3    -0.413167335343E+03    0.31741E-02   -0.16197E-02  4895   0.526E-02    0.124E-01
RMM:   4    -0.413199588141E+03   -0.32253E-01   -0.34879E-02  5128   0.155E-01    0.750E-01
RMM:   5    -0.413166475574E+03    0.33113E-01   -0.15820E-02  4798   0.124E-01    0.509E-02
RMM:   6    -0.413166680756E+03   -0.20518E-03   -0.27471E-03  5751   0.507E-02    0.344E-02
RMM:   7    -0.413166682906E+03   -0.21496E-05   -0.45953E-04  5655   0.197E-02    0.216E-02
RMM:   8    -0.413166676540E+03    0.63663E-05   -0.65047E-05  5141   0.893E-03    0.991E-03
RMM:   9    -0.413166675139E+03    0.14003E-05   -0.13119E-05  3889   0.405E-03    0.719E-03
RMM:  10    -0.413166676582E+03   -0.14423E-05   -0.20142E-06  2574   0.223E-03    0.445E-03
RMM:  11    -0.413166677905E+03   -0.13237E-05   -0.11497E-06  2512   0.171E-03    0.246E-03
RMM:  12    -0.413166679915E+03   -0.20091E-05   -0.16569E-06  2557   0.193E-03    0.103E-03
RMM:  13    -0.413166680588E+03   -0.67339E-06   -0.59216E-07  2375   0.131E-03
   11 T=    61. E= -.41286684E+03 F= -.41316668E+03 E0= -.41314432E+03  EK= 0.29984E+00 SP= 0.00E+00 SK= 0.00E+00
       N       E                     dE             d eps       ncg     rms          rms(c)
RMM:   1    -0.413165519809E+03    0.11601E-02   -0.90815E+00  4292   0.667E-01    0.894E-01
RMM:   2    -0.413170419447E+03   -0.48996E-02   -0.11141E-01  4217   0.921E-02    0.653E-01
RMM:   3    -0.413167035369E+03    0.33841E-02   -0.16354E-02  4782   0.513E-02    0.104E-01
RMM:   4    -0.413193056905E+03   -0.26022E-01   -0.27317E-02  5126   0.137E-01    0.675E-01
RMM:   5    -0.413166443623E+03    0.26613E-01   -0.12773E-02  4805   0.111E-01    0.478E-02
RMM:   6    -0.413166622659E+03   -0.17904E-03   -0.23655E-03  5799   0.457E-02    0.320E-02
RMM:   7    -0.413166625086E+03   -0.24271E-05   -0.38565E-04  5649   0.187E-02    0.205E-02
RMM:   8    -0.413166615965E+03    0.91213E-05   -0.62130E-05  4970   0.865E-03    0.101E-02
RMM:   9    -0.413166614179E+03    0.17856E-05   -0.12389E-05  3891   0.400E-03    0.765E-03
RMM:  10    -0.413166614862E+03   -0.68251E-06   -0.19109E-06  2564   0.226E-03
   12 T=    61. E= -.41286650E+03 F= -.41316661E+03 E0= -.41314428E+03  EK= 0.30012E+00 SP= 0.00E+00 SK= 0.00E+00
       N       E                     dE             d eps       ncg     rms          rms(c)
RMM:   1    -0.413166527785E+03    0.86394E-04   -0.90683E+00  4301   0.670E-01    0.908E-01
RMM:   2    -0.413170540621E+03   -0.40128E-02   -0.11049E-01  4322   0.900E-02    0.647E-01
RMM:   3    -0.413173346768E+03   -0.28061E-02   -0.20104E-02  5136   0.844E-02    0.339E-01
RMM:   4    -0.413190110116E+03   -0.16763E-01   -0.38327E-02  5074   0.167E-01    0.625E-01
RMM:   5    -0.413167219639E+03    0.22890E-01   -0.85237E-03  4677   0.101E-01    0.591E-02
RMM:   6    -0.413167231139E+03   -0.11500E-04   -0.17392E-03  5441   0.413E-02    0.324E-02
RMM:   7    -0.413167240891E+03   -0.97516E-05   -0.33459E-04  5922   0.169E-02    0.191E-02
RMM:   8    -0.413167232289E+03    0.86020E-05   -0.59636E-05  5116   0.895E-03    0.778E-03
RMM:   9    -0.413167226893E+03    0.53956E-05   -0.72265E-06  3294   0.351E-03    0.401E-03
RMM:  10    -0.413167225034E+03    0.18589E-05   -0.16598E-06  2535   0.213E-03    0.257E-03
RMM:  11    -0.413167222062E+03    0.29726E-05   -0.12538E-06  2516   0.177E-03    0.145E-03
RMM:  12    -0.413167219534E+03    0.25279E-05   -0.70059E-07  2465   0.138E-03    0.585E-04
RMM:  13    -0.413167217916E+03    0.16172E-05   -0.36205E-07  2089   0.993E-04    0.335E-04
RMM:  14    -0.413167216400E+03    0.15165E-05   -0.21414E-07  1605   0.790E-04    0.224E-04
RMM:  15    -0.413167213808E+03    0.25918E-05   -0.21535E-07  1534   0.761E-04    0.161E-04
RMM:  16    -0.413167211499E+03    0.23090E-05   -0.16619E-07  1364   0.691E-04    0.138E-04
RMM:  17    -0.413167209229E+03    0.22696E-05   -0.13904E-07  1329   0.661E-04    0.750E-05
RMM:  18    -0.413167208082E+03    0.11473E-05   -0.71845E-08   992   0.576E-04    0.471E-05
RMM:  19    -0.413167207138E+03    0.94401E-06   -0.44292E-08   860   0.548E-04
   13 T=    61. E= -.41286660E+03 F= -.41316721E+03 E0= -.41314491E+03  EK= 0.30060E+00 SP= 0.00E+00 SK= 0.00E+00
       N       E                     dE             d eps       ncg     rms          rms(c)
RMM:   1    -0.413166547899E+03    0.66018E-03   -0.90121E+00  4292   0.668E-01    0.886E-01
RMM:   2    -0.413171486110E+03   -0.49382E-02   -0.11055E-01  4236   0.876E-02    0.645E-01
RMM:   3    -0.413168590803E+03    0.28953E-02   -0.16099E-02  4978   0.490E-02    0.129E-01
RMM:   4    -0.413202204030E+03   -0.33613E-01   -0.36830E-02  5133   0.159E-01    0.765E-01
RMM:   5    -0.413167686519E+03    0.34518E-01   -0.16513E-02  4793   0.127E-01    0.518E-02
RMM:   6    -0.413167886511E+03   -0.19999E-03   -0.28500E-03  5742   0.518E-02    0.348E-02
RMM:   7    -0.413167882722E+03    0.37892E-05   -0.47354E-04  5672   0.199E-02    0.220E-02
RMM:   8    -0.413167874452E+03    0.82706E-05   -0.69033E-05  5177   0.906E-03    0.102E-02
RMM:   9    -0.413167871287E+03    0.31651E-05   -0.13605E-05  3961   0.415E-03    0.724E-03
RMM:  10    -0.413167871079E+03    0.20793E-06   -0.20778E-06  2575   0.226E-03
   14 T=    61. E= -.41286678E+03 F= -.41316787E+03 E0= -.41314560E+03  EK= 0.30109E+00 SP= 0.00E+00 SK= 0.00E+00
       N       E                     dE             d eps       ncg     rms          rms(c)
RMM:   1    -0.413166649587E+03    0.12217E-02   -0.90961E+00  4305   0.672E-01    0.892E-01
RMM:   2    -0.413172005460E+03   -0.53559E-02   -0.11172E-01  4323   0.904E-02    0.655E-01
RMM:   3    -0.413174923376E+03   -0.29179E-02   -0.21647E-02  5130   0.889E-02    0.358E-01
RMM:   4    -0.413191559913E+03   -0.16637E-01   -0.40860E-02  5071   0.173E-01    0.634E-01
RMM:   5    -0.413167890867E+03    0.23669E-01   -0.87396E-03  4661   0.103E-01    0.586E-02
RMM:   6    -0.413167906378E+03   -0.15511E-04   -0.17471E-03  5424   0.412E-02    0.307E-02
RMM:   7    -0.413167923454E+03   -0.17075E-04   -0.33082E-04  5950   0.167E-02    0.187E-02
RMM:   8    -0.413167921261E+03    0.21923E-05   -0.62071E-05  5122   0.901E-03    0.765E-03
RMM:   9    -0.413167919165E+03    0.20966E-05   -0.75676E-06  3311   0.361E-03    0.389E-03
RMM:  10    -0.413167920111E+03   -0.94581E-06   -0.15757E-06  2525   0.208E-03
   15 T=    61. E= -.41286649E+03 F= -.41316792E+03 E0= -.41314569E+03  EK= 0.30143E+00 SP= 0.00E+00 SK= 0.00E+00
       N       E                     dE             d eps       ncg     rms          rms(c)
RMM:   1    -0.413168132195E+03   -0.21303E-03   -0.90948E+00  4303   0.679E-01    0.910E-01
RMM:   2    -0.413172815852E+03   -0.46837E-02   -0.11087E-01  4244   0.926E-02    0.650E-01
RMM:   3    -0.413169666667E+03    0.31492E-02   -0.16030E-02  4906   0.536E-02    0.133E-01
RMM:   4    -0.413203716160E+03   -0.34049E-01   -0.36988E-02  5128   0.160E-01    0.770E-01
RMM:   5    -0.413168765187E+03    0.34951E-01   -0.16717E-02  4800   0.128E-01    0.523E-02
RMM:   6    -0.413168976923E+03   -0.21174E-03   -0.28960E-03  5762   0.524E-02    0.359E-02
RMM:   7    -0.413168968571E+03    0.83522E-05   -0.48349E-04  5709   0.205E-02    0.226E-02
RMM:   8    -0.413168956334E+03    0.12237E-04   -0.71327E-05  5175   0.931E-03    0.107E-02
RMM:   9    -0.413168950501E+03    0.58330E-05   -0.13776E-05  3976   0.419E-03    0.757E-03
RMM:  10    -0.413168946728E+03    0.37735E-05   -0.22228E-06  2590   0.235E-03    0.458E-03
RMM:  11    -0.413168944041E+03    0.26865E-05   -0.11640E-06  2505   0.175E-03    0.264E-03
RMM:  12    -0.413168938759E+03    0.52827E-05   -0.19719E-06  2602   0.208E-03    0.115E-03
RMM:  13    -0.413168935667E+03    0.30913E-05   -0.68288E-07  2422   0.141E-03    0.925E-04
RMM:  14    -0.413168935838E+03   -0.17112E-06   -0.26229E-07  1982   0.903E-04
   16 T=    62. E= -.41286680E+03 F= -.41316894E+03 E0= -.41314674E+03  EK= 0.30213E+00 SP= 0.00E+00 SK= 0.00E+00
       N       E                     dE             d eps       ncg     rms          rms(c)
RMM:   1    -0.413168762337E+03    0.17333E-03   -0.90375E+00  4296   0.697E-01    0.891E-01
RMM:   2    -0.413173368901E+03   -0.46066E-02   -0.11147E-01  4260   0.951E-02    0.645E-01
RMM:   3    -0.413169893302E+03    0.34756E-02   -0.15736E-02  4817   0.535E-02    0.115E-01
RMM:   4    -0.413199075758E+03   -0.29182E-01   -0.30915E-02  5123   0.146E-01    0.713E-01
RMM:   5    -0.413169210628E+03    0.29865E-01   -0.14393E-02  4799   0.118E-01    0.495E-02
RMM:   6    -0.413169409895E+03   -0.19927E-03   -0.25792E-03  5794   0.481E-02    0.336E-02
RMM:   7    -0.413169406569E+03    0.33254E-05   -0.41882E-04  5651   0.194E-02    0.213E-02
RMM:   8    -0.413169393061E+03    0.13509E-04   -0.66865E-05  5034   0.900E-03    0.105E-02
RMM:   9    -0.413169388255E+03    0.48059E-05   -0.13182E-05  3961   0.412E-03    0.778E-03
RMM:  10    -0.413169385640E+03    0.26152E-05   -0.19981E-06  2573   0.228E-03    0.478E-03
RMM:  11    -0.413169383369E+03    0.22712E-05   -0.14015E-06  2521   0.190E-03    0.248E-03
RMM:  12    -0.413169380073E+03    0.32959E-05   -0.16163E-06  2543   0.196E-03    0.995E-04
RMM:  13    -0.413169378561E+03    0.15113E-05   -0.52440E-07  2349   0.128E-03    0.675E-04
RMM:  14    -0.413169378461E+03    0.10066E-06   -0.23854E-07  1880   0.851E-04
   17 T=    62. E= -.41286667E+03 F= -.41316938E+03 E0= -.41314722E+03  EK= 0.30271E+00 SP= 0.00E+00 SK= 0.00E+00
       N       E                     dE             d eps       ncg     rms          rms(c)
RMM:   1    -0.413168610643E+03    0.76792E-03   -0.91172E+00  4296   0.684E-01    0.890E-01
RMM:   2    -0.413173963855E+03   -0.53532E-02   -0.11247E-01  4266   0.940E-02    0.655E-01
RMM:   3    -0.413170492478E+03    0.34714E-02   -0.16917E-02  4860   0.534E-02    0.117E-01
RMM:   4    -0.413201173522E+03   -0.30681E-01   -0.32941E-02  5122   0.151E-01    0.732E-01
RMM:   5    -0.413169714114E+03    0.31459E-01   -0.15164E-02  4796   0.121E-01    0.498E-02
RMM:   6    -0.413169907939E+03   -0.19383E-03   -0.26258E-03  5773   0.493E-02    0.335E-02
RMM:   7    -0.413169907268E+03    0.67139E-06   -0.43831E-04  5624   0.195E-02    0.212E-02
RMM:   8    -0.413169899460E+03    0.78078E-05   -0.64609E-05  5082   0.892E-03    0.998E-03
RMM:   9    -0.413169897009E+03    0.24510E-05   -0.13082E-05  3902   0.408E-03    0.732E-03
RMM:  10    -0.413169897193E+03   -0.18402E-06   -0.19451E-06  2563   0.224E-03
   18 T=    62. E= -.41286653E+03 F= -.41316990E+03 E0= -.41314778E+03  EK= 0.30336E+00 SP= 0.00E+00 SK= 0.00E+00
       N       E                     dE             d eps       ncg     rms          rms(c)
RMM:   1    -0.413172953413E+03   -0.30564E-02   -0.91578E+00  4301   0.720E-01    0.909E-01
RMM:   2    -0.413174626285E+03   -0.16729E-02   -0.11619E-01  4340   0.923E-02    0.654E-01
RMM:   3    -0.413177058091E+03   -0.24318E-02   -0.19975E-02  5125   0.830E-02    0.335E-01
RMM:   4    -0.413196174579E+03   -0.19116E-01   -0.40993E-02  5081   0.172E-01    0.653E-01
RMM:   5    -0.413171069844E+03    0.25105E-01   -0.95813E-03  4673   0.106E-01    0.598E-02
RMM:   6    -0.413171090061E+03   -0.20217E-04   -0.19056E-03  5455   0.427E-02    0.324E-02
RMM:   7    -0.413171099259E+03   -0.91985E-05   -0.35879E-04  5944   0.172E-02    0.198E-02
RMM:   8    -0.413171090568E+03    0.86912E-05   -0.65427E-05  5126   0.928E-03    0.811E-03
RMM:   9    -0.413171083975E+03    0.65925E-05   -0.82377E-06  3402   0.370E-03    0.408E-03
RMM:  10    -0.413171081663E+03    0.23123E-05   -0.17870E-06  2548   0.217E-03    0.262E-03
RMM:  11    -0.413171077867E+03    0.37960E-05   -0.12471E-06  2505   0.179E-03    0.147E-03
RMM:  12    -0.413171074526E+03    0.33410E-05   -0.68592E-07  2461   0.139E-03    0.566E-04
RMM:  13    -0.413171072497E+03    0.20290E-05   -0.34432E-07  2104   0.989E-04    0.323E-04
RMM:  14    -0.413171070637E+03    0.18599E-05   -0.19630E-07  1579   0.779E-04    0.219E-04
RMM:  15    -0.413171067434E+03    0.32030E-05   -0.17870E-07  1439   0.738E-04    0.143E-04
RMM:  16    -0.413171064706E+03    0.27276E-05   -0.12972E-07  1308   0.676E-04    0.136E-04
RMM:  17    -0.413171061629E+03    0.30773E-05   -0.11836E-07  1297   0.658E-04    0.740E-05
RMM:  18    -0.413171060038E+03    0.15916E-05   -0.62542E-08   979   0.583E-04    0.422E-05
RMM:  19    -0.413171058980E+03    0.10574E-05   -0.36794E-08   856   0.556E-04    0.310E-05
RMM:  20    -0.413171058655E+03    0.32489E-06   -0.17775E-08   727   0.533E-04
   19 T=    62. E= -.41286681E+03 F= -.41317106E+03 E0= -.41314898E+03  EK= 0.30425E+00 SP= 0.00E+00 SK= 0.00E+00
       N       E                     dE             d eps       ncg     rms          rms(c)
RMM:   1    -0.413172077518E+03   -0.10185E-02   -0.90952E+00  4297   0.713E-01    0.900E-01
RMM:   2    -0.413174870336E+03   -0.27928E-02   -0.11138E-01  4274   0.891E-02    0.647E-01
RMM:   3    -0.413172316840E+03    0.25535E-02   -0.16107E-02  4980   0.512E-02    0.140E-01
RMM:   4    -0.413207774006E+03   -0.35457E-01   -0.39293E-02  5125   0.165E-01    0.786E-01
RMM:   5    -0.413171310438E+03    0.36464E-01   -0.17437E-02  4788   0.130E-01    0.531E-02
RMM:   6    -0.413171507426E+03   -0.19699E-03   -0.29876E-03  5743   0.529E-02    0.361E-02
RMM:   7    -0.413171497777E+03    0.96484E-05   -0.49138E-04  5664   0.206E-02    0.227E-02
RMM:   8    -0.413171486387E+03    0.11390E-04   -0.74114E-05  5211   0.942E-03    0.107E-02
RMM:   9    -0.413171480391E+03    0.59964E-05   -0.14424E-05  4059   0.429E-03    0.740E-03
RMM:  10    -0.413171476967E+03    0.34234E-05   -0.21932E-06  2581   0.232E-03    0.455E-03
RMM:  11    -0.413171474663E+03    0.23045E-05   -0.11066E-06  2501   0.170E-03    0.263E-03
RMM:  12    -0.413171470279E+03    0.43836E-05   -0.16975E-06  2554   0.200E-03    0.112E-03
RMM:  13    -0.413171467659E+03    0.26204E-05   -0.65259E-07  2394   0.138E-03    0.925E-04
RMM:  14    -0.413171467816E+03   -0.15772E-06   -0.26532E-07  1985   0.906E-04
   20 T=    62. E= -.41286657E+03 F= -.41317147E+03 E0= -.41314943E+03  EK= 0.30490E+00 SP= 0.00E+00 SK= 0.00E+00
       N       E                     dE             d eps       ncg     rms          rms(c)
RMM:   1    -0.413171315845E+03    0.15181E-03   -0.91372E+00  4292   0.699E-01    0.891E-01
RMM:   2    -0.413176604313E+03   -0.52885E-02   -0.11303E-01  4275   0.897E-02    0.655E-01
RMM:   3    -0.413173032990E+03    0.35713E-02   -0.16868E-02  4887   0.493E-02    0.108E-01
RMM:   4    -0.413200730577E+03   -0.27698E-01   -0.29434E-02  5126   0.143E-01    0.696E-01
RMM:   5    -0.413172401914E+03    0.28329E-01   -0.13803E-02  4800   0.115E-01    0.480E-02
RMM:   6    -0.413172562439E+03   -0.16052E-03   -0.23438E-03  5824   0.462E-02    0.314E-02
RMM:   7    -0.413172563633E+03   -0.11945E-05   -0.36130E-04  5644   0.186E-02    0.195E-02
RMM:   8    -0.413172555056E+03    0.85769E-05   -0.67034E-05  5014   0.886E-03    0.102E-02
RMM:   9    -0.413172551061E+03    0.39954E-05   -0.12960E-05  3995   0.418E-03    0.745E-03
RMM:  10    -0.413172550508E+03    0.55324E-06   -0.18686E-06  2555   0.223E-03
   21 T=    62. E= -.41286672E+03 F= -.41317255E+03 E0= -.41315056E+03  EK= 0.30583E+00 SP= 0.00E+00 SK= 0.00E+00
       N       E                     dE             d eps       ncg     rms          rms(c)
RMM:   1    -0.413178919074E+03   -0.63680E-02   -0.92348E+00  4303   0.743E-01    0.907E-01
RMM:   2    -0.413177636838E+03    0.12822E-02   -0.12555E-01  4340   0.953E-02    0.658E-01
RMM:   3    -0.413178260546E+03   -0.62371E-03   -0.18378E-02  5114   0.766E-02    0.298E-01
RMM:   4    -0.413205491412E+03   -0.27231E-01   -0.46001E-02  5095   0.181E-01    0.734E-01
RMM:   5    -0.413173601237E+03    0.31890E-01   -0.12993E-02  4708   0.120E-01    0.608E-02
RMM:   6    -0.413173672543E+03   -0.71306E-04   -0.24095E-03  5581   0.482E-02    0.329E-02
RMM:   7    -0.413173685558E+03   -0.13015E-04   -0.40739E-04  5934   0.183E-02    0.206E-02
RMM:   8    -0.413173678389E+03    0.71690E-05   -0.75449E-05  5175   0.966E-03    0.871E-03
RMM:   9    -0.413173671740E+03    0.66489E-05   -0.10542E-05  3661   0.399E-03    0.438E-03
RMM:  10    -0.413173669453E+03    0.22868E-05   -0.22953E-06  2605   0.224E-03    0.292E-03
RMM:  11    -0.413173666126E+03    0.33272E-05   -0.12005E-06  2501   0.177E-03    0.154E-03
RMM:  12    -0.413173662563E+03    0.35627E-05   -0.73863E-07  2463   0.142E-03    0.537E-04
RMM:  13    -0.413173660461E+03    0.21023E-05   -0.36178E-07  2124   0.101E-03    0.306E-04
RMM:  14    -0.413173658816E+03    0.16442E-05   -0.20101E-07  1613   0.785E-04    0.206E-04
RMM:  15    -0.413173656016E+03    0.28001E-05   -0.15646E-07  1375   0.719E-04    0.126E-04
RMM:  16    -0.413173653241E+03    0.27758E-05   -0.12365E-07  1288   0.679E-04    0.142E-04
RMM:  17    -0.413173650894E+03    0.23464E-05   -0.88740E-08  1154   0.634E-04    0.773E-05
RMM:  18    -0.413173648426E+03    0.24680E-05   -0.73634E-08  1114   0.616E-04    0.320E-05
RMM:  19    -0.413173647368E+03    0.10577E-05   -0.37976E-08   884   0.565E-04    0.235E-05
RMM:  20    -0.413173646966E+03    0.40229E-06   -0.18444E-08   745   0.544E-04
   22 T=    62. E= -.41286681E+03 F= -.41317365E+03 E0= -.41315170E+03  EK= 0.30684E+00 SP= 0.00E+00 SK= 0.00E+00
       N       E                     dE             d eps       ncg     rms          rms(c)
RMM:   1    -0.413174948731E+03   -0.13014E-02   -0.91617E+00  4295   0.716E-01    0.909E-01
RMM:   2    -0.413178200025E+03   -0.32513E-02   -0.11277E-01  4284   0.932E-02    0.651E-01
RMM:   3    -0.413175021088E+03    0.31789E-02   -0.16120E-02  4918   0.523E-02    0.130E-01
RMM:   4    -0.413208711306E+03   -0.33690E-01   -0.36522E-02  5127   0.159E-01    0.765E-01
RMM:   5    -0.413174179416E+03    0.34532E-01   -0.16720E-02  4792   0.127E-01    0.520E-02
RMM:   6    -0.413174379948E+03   -0.20053E-03   -0.28752E-03  5785   0.517E-02    0.359E-02
RMM:   7    -0.413174368942E+03    0.11006E-04   -0.46240E-04  5646   0.204E-02    0.223E-02
RMM:   8    -0.413174356061E+03    0.12881E-04   -0.74017E-05  5156   0.944E-03    0.109E-02
RMM:   9    -0.413174348992E+03    0.70697E-05   -0.14405E-05  4087   0.434E-03    0.773E-03
RMM:  10    -0.413174344320E+03    0.46717E-05   -0.21809E-06  2583   0.234E-03    0.472E-03
RMM:  11    -0.413174341045E+03    0.32754E-05   -0.11734E-06  2506   0.175E-03    0.272E-03
RMM:  12    -0.413174334918E+03    0.61266E-05   -0.18588E-06  2576   0.207E-03    0.118E-03
RMM:  13    -0.413174331400E+03    0.35175E-05   -0.63532E-07  2386   0.139E-03    0.939E-04
RMM:  14    -0.413174331706E+03   -0.30542E-06   -0.26553E-07  2016   0.907E-04
   23 T=    63. E= -.41286657E+03 F= -.41317433E+03 E0= -.41315244E+03  EK= 0.30777E+00 SP= 0.00E+00 SK= 0.00E+00
       N       E                     dE             d eps       ncg     rms          rms(c)
RMM:   1    -0.413174818103E+03   -0.48670E-03   -0.91696E+00  4295   0.718E-01    0.893E-01
RMM:   2    -0.413180290309E+03   -0.54722E-02   -0.11371E-01  4283   0.954E-02    0.655E-01
RMM:   3    -0.413176267749E+03    0.40226E-02   -0.16648E-02  4790   0.505E-02    0.973E-02
RMM:   4    -0.413199400962E+03   -0.23133E-01   -0.24054E-02  5128   0.129E-01    0.637E-01
RMM:   5    -0.413175777848E+03    0.23623E-01   -0.11572E-02  4805   0.105E-01    0.464E-02
RMM:   6    -0.413175921259E+03   -0.14341E-03   -0.20574E-03  5826   0.421E-02    0.291E-02
RMM:   7    -0.413175925690E+03   -0.44313E-05   -0.25252E-04  5626   0.161E-02    0.153E-02
RMM:   8    -0.413175921815E+03    0.38748E-05   -0.52119E-05  4973   0.758E-03    0.100E-02
RMM:   9    -0.413175917375E+03    0.44401E-05   -0.11115E-05  3880   0.384E-03    0.746E-03
RMM:  10    -0.413175915782E+03    0.15928E-05   -0.17745E-06  2549   0.227E-03    0.446E-03
RMM:  11    -0.413175914205E+03    0.15774E-05   -0.14845E-06  2531   0.194E-03    0.236E-03
RMM:  12    -0.413175911685E+03    0.25202E-05   -0.14114E-06  2513   0.187E-03    0.963E-04
RMM:  13    -0.413175910643E+03    0.10413E-05   -0.46839E-07  2290   0.121E-03    0.634E-04
RMM:  14    -0.413175910312E+03    0.33103E-06   -0.21178E-07  1799   0.825E-04
   24 T=    63. E= -.41286683E+03 F= -.41317591E+03 E0= -.41315406E+03  EK= 0.30908E+00 SP= 0.00E+00 SK= 0.00E+00
       N       E                     dE             d eps       ncg     rms          rms(c)
RMM:   1    -0.413176580614E+03   -0.66997E-03   -0.92475E+00  4298   0.729E-01    0.907E-01
RMM:   2    -0.413181167173E+03   -0.45866E-02   -0.11484E-01  4291   0.959E-02    0.661E-01
RMM:   3    -0.413177436491E+03    0.37307E-02   -0.16789E-02  4832   0.538E-02    0.113E-01
RMM:   4    -0.413206864532E+03   -0.29428E-01   -0.31078E-02  5125   0.147E-01    0.716E-01
RMM:   5    -0.413176771230E+03    0.30093E-01   -0.14595E-02  4798   0.118E-01    0.495E-02
RMM:   6    -0.413176952479E+03   -0.18125E-03   -0.25590E-03  5807   0.481E-02    0.337E-02
RMM:   7    -0.413176944911E+03    0.75682E-05   -0.41186E-04  5628   0.194E-02    0.210E-02
RMM:   8    -0.413176933541E+03    0.11370E-04   -0.67455E-05  5062   0.912E-03    0.105E-02
RMM:   9    -0.413176928359E+03    0.51811E-05   -0.13308E-05  3978   0.418E-03    0.760E-03
RMM:  10    -0.413176925520E+03    0.28391E-05   -0.19527E-06  2559   0.226E-03    0.466E-03
RMM:  11    -0.413176923089E+03    0.24311E-05   -0.13049E-06  2514   0.185E-03    0.245E-03
RMM:  12    -0.413176919353E+03    0.37362E-05   -0.16253E-06  2543   0.195E-03    0.106E-03
RMM:  13    -0.413176917573E+03    0.17795E-05   -0.51205E-07  2350   0.128E-03    0.716E-04
RMM:  14    -0.413176917405E+03    0.16829E-06   -0.23364E-07  1896   0.849E-04
   25 T=    63. E= -.41286659E+03 F= -.41317692E+03 E0= -.41315512E+03  EK= 0.31033E+00 SP= 0.00E+00 SK= 0.00E+00
       N       E                     dE             d eps       ncg     rms          rms(c)
RMM:   1    -0.413177643150E+03   -0.72558E-03   -0.92422E+00  4296   0.724E-01    0.918E-01
RMM:   2    -0.413181981267E+03   -0.43381E-02   -0.11404E-01  4285   0.964E-02    0.656E-01
RMM:   3    -0.413178670215E+03    0.33111E-02   -0.16183E-02  4797   0.529E-02    0.113E-01
RMM:   4    -0.413206417978E+03   -0.27748E-01   -0.29108E-02  5129   0.142E-01    0.695E-01
RMM:   5    -0.413178107343E+03    0.28311E-01   -0.13869E-02  4800   0.115E-01    0.497E-02
RMM:   6    -0.413178259033E+03   -0.15169E-03   -0.24893E-03  5817   0.469E-02    0.337E-02
RMM:   7    -0.413178249870E+03    0.91635E-05   -0.38467E-04  5606   0.192E-02    0.206E-02
RMM:   8    -0.413178235194E+03    0.14675E-04   -0.68831E-05  5019   0.907E-03    0.109E-02
RMM:   9    -0.413178227775E+03    0.74197E-05   -0.13157E-05  4043   0.422E-03    0.804E-03
RMM:  10    -0.413178221992E+03    0.57829E-05   -0.19858E-06  2565   0.233E-03    0.487E-03
RMM:  11    -0.413178217180E+03    0.48117E-05   -0.13454E-06  2519   0.187E-03    0.270E-03
RMM:  12    -0.413178209302E+03    0.78781E-05   -0.16930E-06  2546   0.204E-03    0.112E-03
RMM:  13    -0.413178205185E+03    0.41176E-05   -0.56894E-07  2368   0.134E-03    0.778E-04
RMM:  14    -0.413178205241E+03   -0.56243E-07   -0.25994E-07  1935   0.885E-04
   26 T=    63. E= -.41286643E+03 F= -.41317821E+03 E0= -.41315646E+03  EK= 0.31177E+00 SP= 0.00E+00 SK= 0.00E+00
       N       E                     dE             d eps       ncg     rms          rms(c)
RMM:   1    -0.413179520430E+03   -0.13152E-02   -0.92346E+00  4295   0.745E-01    0.898E-01
RMM:   2    -0.413183907419E+03   -0.43870E-02   -0.11599E-01  4292   0.984E-02    0.657E-01
RMM:   3    -0.413180428508E+03    0.34789E-02   -0.16502E-02  4811   0.502E-02    0.992E-02
RMM:   4    -0.413203944852E+03   -0.23516E-01   -0.24413E-02  5140   0.130E-01    0.642E-01
RMM:   5    -0.413179992598E+03    0.23952E-01   -0.11872E-02  4810   0.106E-01    0.469E-02
RMM:   6    -0.413180108179E+03   -0.11558E-03   -0.20493E-03  5821   0.427E-02    0.299E-02
RMM:   7    -0.413180103558E+03    0.46213E-05   -0.28339E-04  5652   0.169E-02    0.168E-02
RMM:   8    -0.413180096130E+03    0.74279E-05   -0.58693E-05  4994   0.806E-03    0.102E-02
RMM:   9    -0.413180090408E+03    0.57211E-05   -0.11453E-05  3926   0.397E-03    0.750E-03
RMM:  10    -0.413180087436E+03    0.29722E-05   -0.18025E-06  2551   0.224E-03    0.446E-03
RMM:  11    -0.413180084582E+03    0.28540E-05   -0.13397E-06  2508   0.188E-03    0.238E-03
RMM:  12    -0.413180080371E+03    0.42116E-05   -0.14628E-06  2521   0.187E-03    0.101E-03
RMM:  13    -0.413180078524E+03    0.18470E-05   -0.46959E-07  2305   0.122E-03    0.616E-04
RMM:  14    -0.413180078143E+03    0.38047E-06   -0.21961E-07  1812   0.827E-04
   27 T=    64. E= -.41286663E+03 F= -.41318008E+03 E0= -.41315838E+03  EK= 0.31345E+00 SP= 0.00E+00 SK= 0.00E+00
       N       E                     dE             d eps       ncg     rms          rms(c)
RMM:   1    -0.413182041141E+03   -0.19626E-02   -0.93529E+00  4296   0.758E-01    0.909E-01
RMM:   2    -0.413185217373E+03   -0.31762E-02   -0.11643E-01  4285   0.984E-02    0.667E-01
RMM:   3    -0.413181598984E+03    0.36184E-02   -0.17452E-02  4830   0.529E-02    0.102E-01
RMM:   4    -0.413207024936E+03   -0.25426E-01   -0.26501E-02  5133   0.136E-01    0.667E-01
RMM:   5    -0.413181075597E+03    0.25949E-01   -0.12805E-02  4806   0.110E-01    0.477E-02
RMM:   6    -0.413181209758E+03   -0.13416E-03   -0.22148E-03  5819   0.449E-02    0.316E-02
RMM:   7    -0.413181206951E+03    0.28067E-05   -0.34423E-04  5621   0.183E-02    0.191E-02
RMM:   8    -0.413181197782E+03    0.91690E-05   -0.63700E-05  4995   0.868E-03    0.103E-02
RMM:   9    -0.413181192645E+03    0.51367E-05   -0.12208E-05  3932   0.409E-03    0.752E-03
RMM:  10    -0.413181190229E+03    0.24162E-05   -0.18701E-06  2550   0.228E-03    0.446E-03
RMM:  11    -0.413181188149E+03    0.20799E-05   -0.12810E-06  2514   0.183E-03    0.239E-03
RMM:  12    -0.413181184851E+03    0.32982E-05   -0.15254E-06  2532   0.190E-03    0.104E-03
RMM:  13    -0.413181182872E+03    0.19790E-05   -0.49041E-07  2318   0.124E-03    0.668E-04
RMM:  14    -0.413181182749E+03    0.12317E-06   -0.22426E-07  1820   0.833E-04
   28 T=    64. E= -.41286629E+03 F= -.41318118E+03 E0= -.41315953E+03  EK= 0.31489E+00 SP= 0.00E+00 SK= 0.00E+00
       N       E                     dE             d eps       ncg     rms          rms(c)
RMM:   1    -0.413183358167E+03   -0.21753E-02   -0.93570E+00  4292   0.754E-01    0.927E-01
RMM:   2    -0.413187035031E+03   -0.36769E-02   -0.11632E-01  4279   0.102E-01    0.663E-01
RMM:   3    -0.413183378597E+03    0.36564E-02   -0.16548E-02  4672   0.509E-02    0.937E-02
RMM:   4    -0.413199959609E+03   -0.16581E-01   -0.16901E-02  5142   0.108E-01    0.541E-01
RMM:   5    -0.413183135451E+03    0.16824E-01   -0.84826E-03  4820   0.891E-02    0.453E-02
RMM:   6    -0.413183213680E+03   -0.78229E-04   -0.14940E-03  5830   0.362E-02    0.275E-02
RMM:   7    -0.413183211038E+03    0.26419E-05   -0.18221E-04  5499   0.143E-02    0.134E-02
RMM:   8    -0.413183201300E+03    0.97375E-05   -0.28631E-05  4637   0.578E-03    0.845E-03
RMM:   9    -0.413183199026E+03    0.22738E-05   -0.80839E-06  3525   0.327E-03    0.681E-03
RMM:  10    -0.413183193438E+03    0.55884E-05   -0.14701E-06  2517   0.217E-03    0.376E-03
RMM:  11    -0.413183187994E+03    0.54437E-05   -0.13555E-06  2521   0.186E-03    0.198E-03
RMM:  12    -0.413183181207E+03    0.67872E-05   -0.10457E-06  2479   0.165E-03    0.876E-04
RMM:  13    -0.413183178754E+03    0.24536E-05   -0.37670E-07  2202   0.108E-03    0.536E-04
RMM:  14    -0.413183177786E+03    0.96739E-06   -0.17400E-07  1619   0.764E-04
   29 T=    64. E= -.41286651E+03 F= -.41318318E+03 E0= -.41316158E+03  EK= 0.31667E+00 SP= 0.00E+00 SK= 0.00E+00
       N       E                     dE             d eps       ncg     rms          rms(c)
RMM:   1    -0.413191682622E+03   -0.85039E-02   -0.93937E+00  4290   0.837E-01    0.908E-01
RMM:   2    -0.413189365229E+03    0.23174E-02   -0.12029E-01  4268   0.113E-01    0.661E-01
RMM:   3    -0.413185090767E+03    0.42745E-02   -0.16464E-02  4512   0.538E-02    0.804E-02
RMM:   4    -0.413194429836E+03   -0.93391E-02   -0.95185E-03  5148   0.817E-02    0.408E-01
RMM:   5    -0.413184984428E+03    0.94454E-02   -0.48391E-03  4831   0.669E-02    0.421E-02
RMM:   6    -0.413185027262E+03   -0.42834E-04   -0.96038E-04  5822   0.286E-02    0.266E-02
RMM:   7    -0.413185026476E+03    0.78567E-06   -0.23054E-04  5372   0.157E-02    0.175E-02
RMM:   8    -0.413185010291E+03    0.16185E-04   -0.26431E-05  4608   0.639E-03    0.790E-03
RMM:   9    -0.413185008122E+03    0.21693E-05   -0.48008E-06  2923   0.277E-03    0.551E-03
RMM:  10    -0.413185004166E+03    0.39557E-05   -0.16970E-06  2523   0.210E-03    0.287E-03
RMM:  11    -0.413185000416E+03    0.37504E-05   -0.97901E-07  2470   0.167E-03    0.146E-03
RMM:  12    -0.413184996751E+03    0.36644E-05   -0.59546E-07  2369   0.129E-03    0.772E-04
RMM:  13    -0.413184994711E+03    0.20400E-05   -0.28682E-07  1979   0.922E-04    0.350E-04
RMM:  14    -0.413184992637E+03    0.20745E-05   -0.15827E-07  1477   0.734E-04    0.215E-04
RMM:  15    -0.413184989137E+03    0.34997E-05   -0.11283E-07  1291   0.683E-04    0.122E-04
RMM:  16    -0.413184986530E+03    0.26070E-05   -0.70164E-08  1054   0.630E-04    0.927E-05
RMM:  17    -0.413184984176E+03    0.23538E-05   -0.51498E-08  1003   0.605E-04    0.592E-05
RMM:  18    -0.413184980866E+03    0.33108E-05   -0.62493E-08  1146   0.619E-04    0.394E-05
RMM:  19    -0.413184980072E+03    0.79403E-06   -0.21560E-08   782   0.544E-04
   30 T=    65. E= -.41286648E+03 F= -.41318498E+03 E0= -.41316343E+03  EK= 0.31850E+00 SP= 0.00E+00 SK= 0.00E+00
       N       E                     dE             d eps       ncg     rms          rms(c)
RMM:   1    -0.413185991278E+03   -0.10104E-02   -0.94416E+00  4293   0.774E-01    0.912E-01
RMM:   2    -0.413191590392E+03   -0.55991E-02   -0.11909E-01  4280   0.115E-01    0.672E-01
RMM:   3    -0.413186737872E+03    0.48525E-02   -0.17851E-02  4445   0.608E-02    0.703E-02
RMM:   4    -0.413194668521E+03   -0.79306E-02   -0.80282E-03  5159   0.756E-02    0.377E-01
RMM:   5    -0.413186611125E+03    0.80574E-02   -0.41201E-03  4834   0.618E-02    0.414E-02
RMM:   6    -0.413186659625E+03   -0.48500E-04   -0.86599E-04  5792   0.273E-02    0.271E-02
RMM:   7    -0.413186658329E+03    0.12958E-05   -0.24751E-04  5334   0.161E-02    0.178E-02
RMM:   8    -0.413186644029E+03    0.14301E-04   -0.23615E-05  4481   0.623E-03    0.770E-03
RMM:   9    -0.413186643023E+03    0.10058E-05   -0.41164E-06  2824   0.260E-03    0.521E-03
RMM:  10    -0.413186641627E+03    0.13962E-05   -0.15616E-06  2514   0.202E-03    0.285E-03
RMM:  11    -0.413186640295E+03    0.13317E-05   -0.10408E-06  2477   0.167E-03    0.137E-03
RMM:  12    -0.413186638863E+03    0.14322E-05   -0.53139E-07  2288   0.122E-03    0.672E-04
RMM:  13    -0.413186637851E+03    0.10123E-05   -0.27388E-07  1920   0.889E-04    0.313E-04
RMM:  14    -0.413186636529E+03    0.13218E-05   -0.14883E-07  1395   0.719E-04    0.194E-04
RMM:  15    -0.413186634582E+03    0.19465E-05   -0.97500E-08  1156   0.661E-04    0.107E-04
RMM:  16    -0.413186633050E+03    0.15322E-05   -0.64212E-08   998   0.619E-04    0.708E-05
RMM:  17    -0.413186631345E+03    0.17052E-05   -0.47350E-08   935   0.599E-04    0.413E-05
RMM:  18    -0.413186629213E+03    0.21318E-05   -0.46265E-08   991   0.599E-04    0.290E-05
RMM:  19    -0.413186628624E+03    0.58885E-06   -0.18025E-08   719   0.552E-04
   31 T=    65. E= -.41286623E+03 F= -.41318663E+03 E0= -.41316513E+03  EK= 0.32040E+00 SP= 0.00E+00 SK= 0.00E+00
       N       E                     dE             d eps       ncg     rms          rms(c)
RMM:   1    -0.413190415591E+03   -0.37864E-02   -0.94920E+00  4289   0.817E-01    0.933E-01
RMM:   2    -0.413193727861E+03   -0.33123E-02   -0.12063E-01  4280   0.122E-01    0.671E-01
RMM:   3    -0.413189220625E+03    0.45072E-02   -0.16981E-02  4295   0.611E-02    0.750E-02
RMM:   4    -0.413190041983E+03   -0.82136E-03   -0.12193E-03  5144   0.281E-02    0.123E-01
RMM:   5    -0.413189263300E+03    0.77868E-03   -0.48938E-04  4834   0.218E-02    0.424E-02
RMM:   6    -0.413189293623E+03   -0.30323E-04   -0.44509E-04  5389   0.206E-02    0.317E-02
RMM:   7    -0.413189248444E+03    0.45179E-04   -0.20604E-04  4890   0.156E-02    0.175E-02
RMM:   8    -0.413189242169E+03    0.62753E-05   -0.27256E-05  4697   0.566E-03    0.705E-03
RMM:   9    -0.413189240590E+03    0.15786E-05   -0.39301E-06  2551   0.223E-03    0.303E-03
RMM:  10    -0.413189234422E+03    0.61677E-05   -0.10180E-06  2425   0.162E-03    0.146E-03
RMM:  11    -0.413189229428E+03    0.49940E-05   -0.48757E-07  2262   0.106E-03    0.545E-04
RMM:  12    -0.413189225930E+03    0.34988E-05   -0.22725E-07  1664   0.808E-04    0.343E-04
RMM:  13    -0.413189222743E+03    0.31870E-05   -0.14754E-07  1393   0.721E-04    0.239E-04
RMM:  14    -0.413189219309E+03    0.34339E-05   -0.92410E-08  1078   0.654E-04    0.111E-04
RMM:  15    -0.413189214737E+03    0.45716E-05   -0.82136E-08  1078   0.641E-04    0.994E-05
RMM:  16    -0.413189210958E+03    0.37790E-05   -0.55352E-08   957   0.605E-04    0.693E-05
RMM:  17    -0.413189209187E+03    0.17711E-05   -0.35728E-08   856   0.569E-04    0.596E-05
RMM:  18    -0.413189208358E+03    0.82926E-06   -0.18945E-08   695   0.537E-04
   32 T=    66. E= -.41286648E+03 F= -.41318921E+03 E0= -.41316776E+03  EK= 0.32273E+00 SP= 0.00E+00 SK= 0.00E+00
       N       E                     dE             d eps       ncg     rms          rms(c)
RMM:   1    -0.413191942983E+03   -0.27338E-02   -0.94640E+00  4295   0.824E-01    0.921E-01
RMM:   2    -0.413195295740E+03   -0.33528E-02   -0.12173E-01  4278   0.121E-01    0.666E-01
RMM:   3    -0.413191237699E+03    0.40580E-02   -0.16879E-02  4346   0.637E-02    0.747E-02
RMM:   4    -0.413193307481E+03   -0.20698E-02   -0.24023E-03  5163   0.408E-02    0.194E-01
RMM:   5    -0.413191255352E+03    0.20521E-02   -0.11235E-03  4829   0.327E-02    0.413E-02
RMM:   6    -0.413191287295E+03   -0.31943E-04   -0.52430E-04  5515   0.221E-02    0.309E-02
RMM:   7    -0.413191245995E+03    0.41300E-04   -0.21860E-04  5022   0.156E-02    0.175E-02
RMM:   8    -0.413191238225E+03    0.77701E-05   -0.27008E-05  4637   0.569E-03    0.669E-03
RMM:   9    -0.413191236537E+03    0.16877E-05   -0.30233E-06  2588   0.223E-03    0.381E-03
RMM:  10    -0.413191232136E+03    0.44009E-05   -0.88242E-07  2465   0.155E-03    0.218E-03
RMM:  11    -0.413191227299E+03    0.48371E-05   -0.65627E-07  2354   0.120E-03    0.780E-04
RMM:  12    -0.413191223786E+03    0.35129E-05   -0.29699E-07  1910   0.896E-04    0.295E-04
RMM:  13    -0.413191220608E+03    0.31780E-05   -0.16378E-07  1449   0.743E-04    0.236E-04
RMM:  14    -0.413191217852E+03    0.27561E-05   -0.84313E-08  1021   0.645E-04    0.154E-04
RMM:  15    -0.413191213310E+03    0.45422E-05   -0.89199E-08  1156   0.659E-04    0.869E-05
RMM:  16    -0.413191210209E+03    0.31007E-05   -0.60484E-08  1066   0.617E-04    0.986E-05
RMM:  17    -0.413191207819E+03    0.23906E-05   -0.38334E-08   880   0.571E-04    0.403E-05
RMM:  18    -0.413191206294E+03    0.15248E-05   -0.26472E-08   814   0.551E-04    0.356E-05
RMM:  19    -0.413191205792E+03    0.50154E-06   -0.13211E-08   652   0.525E-04
   33 T=    66. E= -.41286629E+03 F= -.41319121E+03 E0= -.41316980E+03  EK= 0.32492E+00 SP= 0.00E+00 SK= 0.00E+00
       N       E                     dE             d eps       ncg     rms          rms(c)
RMM:   1    -0.413194688463E+03   -0.34822E-02   -0.95814E+00  4304   0.829E-01    0.917E-01
RMM:   2    -0.413197818574E+03   -0.31301E-02   -0.12333E-01  4278   0.128E-01    0.678E-01
RMM:   3    -0.413193667133E+03    0.41514E-02   -0.18226E-02  4369   0.710E-02    0.654E-02
RMM:   4    -0.413197806543E+03   -0.41394E-02   -0.43250E-03  5162   0.556E-02    0.274E-01
RMM:   5    -0.413193626579E+03    0.41800E-02   -0.21918E-03  4840   0.454E-02    0.409E-02
RMM:   6    -0.413193658684E+03   -0.32105E-04   -0.63864E-04  5677   0.238E-02    0.286E-02
RMM:   7    -0.413193638731E+03    0.19953E-04   -0.23866E-04  5157   0.158E-02    0.183E-02
RMM:   8    -0.413193627862E+03    0.10868E-04   -0.21100E-05  4210   0.556E-03    0.689E-03
RMM:   9    -0.413193626893E+03    0.96909E-06   -0.27273E-06  2620   0.223E-03
   34 T=    67. E= -.41286631E+03 F= -.41319363E+03 E0= -.41317227E+03  EK= 0.32732E+00 SP= 0.00E+00 SK= 0.00E+00
       N       E                     dE             d eps       ncg     rms          rms(c)
RMM:   1    -0.413206154038E+03   -0.12526E-01   -0.97237E+00  4304   0.924E-01    0.938E-01
RMM:   2    -0.413200366525E+03    0.57875E-02   -0.13630E-01  4286   0.136E-01    0.681E-01
RMM:   3    -0.413196649919E+03    0.37166E-02   -0.16692E-02  4609   0.735E-02    0.114E-01
RMM:   4    -0.413221618511E+03   -0.24969E-01   -0.25466E-02  5147   0.134E-01    0.660E-01
RMM:   5    -0.413196277897E+03    0.25341E-01   -0.12745E-02  4820   0.110E-01    0.489E-02
RMM:   6    -0.413196397600E+03   -0.11970E-03   -0.21493E-03  5820   0.449E-02    0.324E-02
RMM:   7    -0.413196409492E+03   -0.11892E-04   -0.37872E-04  5599   0.189E-02    0.204E-02
RMM:   8    -0.413196388426E+03    0.21066E-04   -0.59600E-05  5048   0.870E-03    0.980E-03
RMM:   9    -0.413196384591E+03    0.38346E-05   -0.12699E-05  3983   0.419E-03    0.716E-03
RMM:  10    -0.413196378337E+03    0.62540E-05   -0.19291E-06  2566   0.232E-03    0.418E-03
RMM:  11    -0.413196373819E+03    0.45186E-05   -0.10164E-06  2494   0.167E-03    0.238E-03
RMM:  12    -0.413196365667E+03    0.81512E-05   -0.13898E-06  2515   0.185E-03    0.111E-03
RMM:  13    -0.413196361920E+03    0.37471E-05   -0.49544E-07  2314   0.123E-03    0.639E-04
RMM:  14    -0.413196360998E+03    0.92254E-06   -0.21747E-07  1823   0.829E-04
   35 T=    67. E= -.41286648E+03 F= -.41319636E+03 E0= -.41317505E+03  EK= 0.32988E+00 SP= 0.00E+00 SK= 0.00E+00
       N       E                     dE             d eps       ncg     rms          rms(c)
RMM:   1    -0.413200970248E+03   -0.46083E-02   -0.96462E+00  4301   0.880E-01    0.937E-01
RMM:   2    -0.413202398571E+03   -0.14283E-02   -0.12619E-01  4266   0.133E-01    0.675E-01
RMM:   3    -0.413198560485E+03    0.38381E-02   -0.17252E-02  4437   0.703E-02    0.861E-02
RMM:   4    -0.413205837297E+03   -0.72768E-02   -0.74548E-03  5173   0.728E-02    0.362E-01
RMM:   5    -0.413198532388E+03    0.73049E-02   -0.38008E-03  4825   0.602E-02    0.436E-02
RMM:   6    -0.413198555589E+03   -0.23201E-04   -0.88064E-04  5706   0.292E-02    0.316E-02
RMM:   7    -0.413198534956E+03    0.20634E-04   -0.29917E-04  5222   0.176E-02    0.188E-02
RMM:   8    -0.413198520822E+03    0.14134E-04   -0.27272E-05  4638   0.630E-03    0.792E-03
RMM:   9    -0.413198517707E+03    0.31145E-05   -0.43811E-06  2830   0.261E-03    0.482E-03
RMM:  10    -0.413198511614E+03    0.60934E-05   -0.14067E-06  2501   0.198E-03    0.252E-03
RMM:  11    -0.413198505583E+03    0.60310E-05   -0.85525E-07  2449   0.152E-03    0.127E-03
RMM:  12    -0.413198499699E+03    0.58844E-05   -0.49142E-07  2253   0.117E-03    0.586E-04
RMM:  13    -0.413198496018E+03    0.36809E-05   -0.26145E-07  1839   0.875E-04    0.298E-04
RMM:  14    -0.413198491836E+03    0.41814E-05   -0.13586E-07  1308   0.707E-04    0.198E-04
RMM:  15    -0.413198486038E+03    0.57985E-05   -0.92157E-08  1099   0.661E-04    0.108E-04
RMM:  16    -0.413198482377E+03    0.36608E-05   -0.60517E-08   956   0.621E-04    0.770E-05
RMM:  17    -0.413198478337E+03    0.40397E-05   -0.57539E-08  1088   0.617E-04    0.473E-05
RMM:  18    -0.413198474983E+03    0.33547E-05   -0.41795E-08   954   0.582E-04    0.275E-05
RMM:  19    -0.413198474370E+03    0.61229E-06   -0.16170E-08   620   0.522E-04
   36 T=    68. E= -.41286623E+03 F= -.41319847E+03 E0= -.41317721E+03  EK= 0.33225E+00 SP= 0.00E+00 SK= 0.00E+00
       N       E                     dE             d eps       ncg     rms          rms(c)
RMM:   1    -0.413205684641E+03   -0.72097E-02   -0.97392E+00  4306   0.923E-01    0.925E-01
RMM:   2    -0.413206057348E+03   -0.37271E-03   -0.13002E-01  4248   0.135E-01    0.683E-01
RMM:   3    -0.413201437616E+03    0.46197E-02   -0.17894E-02  4481   0.671E-02    0.785E-02
RMM:   4    -0.413210937914E+03   -0.95003E-02   -0.96184E-03  5163   0.828E-02    0.413E-01
RMM:   5    -0.413201356485E+03    0.95814E-02   -0.49570E-03  4835   0.686E-02    0.437E-02
RMM:   6    -0.413201372369E+03   -0.15884E-04   -0.99639E-04  5745   0.310E-02    0.305E-02
RMM:   7    -0.413201371174E+03    0.11951E-05   -0.31044E-04  5296   0.177E-02    0.194E-02
RMM:   8    -0.413201356460E+03    0.14714E-04   -0.32714E-05  4826   0.692E-03    0.844E-03
RMM:   9    -0.413201355210E+03    0.12498E-05   -0.56778E-06  2960   0.287E-03    0.510E-03
RMM:  10    -0.413201352982E+03    0.22284E-05   -0.15600E-06  2522   0.209E-03    0.268E-03
RMM:  11    -0.413201350421E+03    0.25604E-05   -0.99271E-07  2480   0.163E-03    0.133E-03
RMM:  12    -0.413201347755E+03    0.26669E-05   -0.57922E-07  2341   0.125E-03    0.668E-04
RMM:  13    -0.413201346004E+03    0.17501E-05   -0.28954E-07  1932   0.907E-04    0.329E-04
RMM:  14    -0.413201344099E+03    0.19053E-05   -0.15263E-07  1394   0.720E-04    0.193E-04
RMM:  15    -0.413201341210E+03    0.28890E-05   -0.99846E-08  1135   0.661E-04    0.106E-04
RMM:  16    -0.413201338971E+03    0.22386E-05   -0.68511E-08  1026   0.630E-04    0.723E-05
RMM:  17    -0.413201337128E+03    0.18436E-05   -0.46512E-08   949   0.604E-04    0.464E-05
RMM:  18    -0.413201334125E+03    0.30026E-05   -0.49316E-08  1020   0.609E-04    0.262E-05
RMM:  19    -0.413201333394E+03    0.73104E-06   -0.21164E-08   776   0.558E-04
   37 T=    68. E= -.41286651E+03 F= -.41320133E+03 E0= -.41318011E+03  EK= 0.33482E+00 SP= 0.00E+00 SK= 0.00E+00
       N       E                     dE             d eps       ncg     rms          rms(c)
RMM:   1    -0.413212225663E+03   -0.10892E-01   -0.98674E+00  4307   0.969E-01    0.943E-01
RMM:   2    -0.413208698861E+03    0.35268E-02   -0.13744E-01  4247   0.130E-01    0.689E-01
RMM:   3    -0.413204348877E+03    0.43500E-02   -0.17443E-02  4784   0.641E-02    0.124E-01
RMM:   4    -0.413237877583E+03   -0.33529E-01   -0.34850E-02  5135   0.156E-01    0.763E-01
RMM:   5    -0.413203818250E+03    0.34059E-01   -0.17034E-02  4800   0.127E-01    0.525E-02
RMM:   6    -0.413203878660E+03   -0.60409E-04   -0.28286E-03  5830   0.506E-02    0.337E-02
RMM:   7    -0.413203891679E+03   -0.13019E-04   -0.36594E-04  5621   0.184E-02    0.176E-02
RMM:   8    -0.413203883954E+03    0.77246E-05   -0.49756E-05  4844   0.743E-03    0.962E-03
RMM:   9    -0.413203884218E+03   -0.26420E-06   -0.19486E-05  4456   0.462E-03    0.800E-03
RMM:  10    -0.413203878741E+03    0.54771E-05   -0.32322E-06  2744   0.276E-03    0.441E-03
RMM:  11    -0.413203876150E+03    0.25912E-05   -0.15283E-06  2517   0.198E-03    0.271E-03
RMM:  12    -0.413203869759E+03    0.63908E-05   -0.20812E-06  2574   0.229E-03    0.132E-03
RMM:  13    -0.413203867012E+03    0.27472E-05   -0.66079E-07  2412   0.147E-03    0.827E-04
RMM:  14    -0.413203866703E+03    0.30854E-06   -0.26553E-07  2046   0.925E-04
   38 T=    69. E= -.41286651E+03 F= -.41320387E+03 E0= -.41318269E+03  EK= 0.33736E+00 SP= 0.00E+00 SK= 0.00E+00
       N       E                     dE             d eps       ncg     rms          rms(c)
RMM:   1    -0.413210816267E+03   -0.69493E-02   -0.98395E+00  4308   0.978E-01    0.954E-01
RMM:   2    -0.413211107139E+03   -0.29087E-03   -0.13209E-01  4255   0.126E-01    0.684E-01
RMM:   3    -0.413207062505E+03    0.40446E-02   -0.17576E-02  4915   0.608E-02    0.143E-01
RMM:   4    -0.413246110251E+03   -0.39048E-01   -0.41852E-02  5131   0.171E-01    0.823E-01
RMM:   5    -0.413206293011E+03    0.39817E-01   -0.19696E-02  4790   0.138E-01    0.557E-02
RMM:   6    -0.413206379381E+03   -0.86370E-04   -0.33102E-03  5822   0.545E-02    0.355E-02
RMM:   7    -0.413206393175E+03   -0.13794E-04   -0.42558E-04  5657   0.194E-02    0.188E-02
RMM:   8    -0.413206383557E+03    0.96186E-05   -0.57359E-05  4924   0.788E-03    0.101E-02
RMM:   9    -0.413206382081E+03    0.14751E-05   -0.22603E-05  4588   0.490E-03    0.823E-03
RMM:  10    -0.413206374118E+03    0.79633E-05   -0.37434E-06  2815   0.291E-03    0.450E-03
RMM:  11    -0.413206369657E+03    0.44609E-05   -0.15836E-06  2509   0.205E-03    0.275E-03
RMM:  12    -0.413206359001E+03    0.10656E-04   -0.20105E-06  2557   0.228E-03    0.128E-03
RMM:  13    -0.413206354497E+03    0.45039E-05   -0.67962E-07  2434   0.149E-03    0.837E-04
RMM:  14    -0.413206354102E+03    0.39511E-06   -0.27834E-07  2079   0.947E-04
   39 T=    69. E= -.41286636E+03 F= -.41320635E+03 E0= -.41318521E+03  EK= 0.34000E+00 SP= 0.00E+00 SK= 0.00E+00
       N       E                     dE             d eps       ncg     rms          rms(c)
RMM:   1    -0.413220299859E+03   -0.13945E-01   -0.99344E+00  4309   0.106E+00    0.934E-01
RMM:   2    -0.413214603149E+03    0.56967E-02   -0.14350E-01  4256   0.129E-01    0.689E-01
RMM:   3    -0.413210566566E+03    0.40366E-02   -0.17412E-02  4965   0.650E-02    0.167E-01
RMM:   4    -0.413257347213E+03   -0.46781E-01   -0.51994E-02  5131   0.190E-01    0.899E-01
RMM:   5    -0.413209318913E+03    0.48028E-01   -0.23373E-02  4790   0.150E-01    0.586E-02
RMM:   6    -0.413209453446E+03   -0.13453E-03   -0.39272E-03  5823   0.591E-02    0.362E-02
RMM:   7    -0.413209468719E+03   -0.15272E-04   -0.47419E-04  5709   0.201E-02    0.197E-02
RMM:   8    -0.413209467073E+03    0.16456E-05   -0.81784E-05  5145   0.898E-03    0.118E-02
RMM:   9    -0.413209459207E+03    0.78663E-05   -0.24679E-05  4610   0.531E-03    0.773E-03
RMM:  10    -0.413209455198E+03    0.40091E-05   -0.43201E-06  2846   0.300E-03    0.459E-03
RMM:  11    -0.413209452045E+03    0.31526E-05   -0.16288E-06  2510   0.210E-03    0.281E-03
RMM:  12    -0.413209444676E+03    0.73693E-05   -0.17904E-06  2530   0.217E-03    0.110E-03
RMM:  13    -0.413209440369E+03    0.43067E-05   -0.73454E-07  2443   0.149E-03    0.848E-04
RMM:  14    -0.413209439983E+03    0.38634E-06   -0.30171E-07  2130   0.973E-04
   40 T=    70. E= -.41286656E+03 F= -.41320944E+03 E0= -.41318834E+03  EK= 0.34288E+00 SP= 0.00E+00 SK= 0.00E+00
       N       E                     dE             d eps       ncg     rms          rms(c)
RMM:   1    -0.413218872201E+03   -0.94318E-02   -0.10023E+01  4308   0.107E+00    0.949E-01
RMM:   2    -0.413216898040E+03    0.19742E-02   -0.13781E-01  4261   0.136E-01    0.698E-01
RMM:   3    -0.413213122315E+03    0.37757E-02   -0.19153E-02  4984   0.688E-02    0.179E-01
RMM:   4    -0.413260359228E+03   -0.47237E-01   -0.54134E-02  5133   0.194E-01    0.906E-01
RMM:   5    -0.413211496920E+03    0.48862E-01   -0.23387E-02  4789   0.151E-01    0.592E-02
RMM:   6    -0.413211638746E+03   -0.14183E-03   -0.39732E-03  5823   0.591E-02    0.361E-02
RMM:   7    -0.413211656978E+03   -0.18233E-04   -0.48660E-04  5745   0.204E-02    0.202E-02
RMM:   8    -0.413211657688E+03   -0.70962E-06   -0.97361E-05  5198   0.975E-03    0.129E-02
RMM:   9    -0.413211647389E+03    0.10299E-04   -0.25060E-05  4624   0.556E-03    0.748E-03
RMM:  10    -0.413211643661E+03    0.37276E-05   -0.40793E-06  2779   0.294E-03    0.458E-03
RMM:  11    -0.413211640702E+03    0.29592E-05   -0.15174E-06  2506   0.206E-03    0.273E-03
RMM:  12    -0.413211634185E+03    0.65169E-05   -0.15854E-06  2525   0.205E-03    0.106E-03
RMM:  13    -0.413211630137E+03    0.40483E-05   -0.67633E-07  2427   0.142E-03    0.728E-04
RMM:  14    -0.413211629418E+03    0.71885E-06   -0.29091E-07  2086   0.947E-04
   41 T=    70. E= -.41286617E+03 F= -.41321163E+03 E0= -.41319056E+03  EK= 0.34546E+00 SP= 0.00E+00 SK= 0.00E+00
       N       E                     dE             d eps       ncg     rms          rms(c)
RMM:   1    -0.413233807702E+03   -0.22178E-01   -0.10160E+01  4311   0.121E+00    0.968E-01
RMM:   2    -0.413219109677E+03    0.14698E-01   -0.14651E-01  4288   0.135E-01    0.695E-01
RMM:   3    -0.413216714213E+03    0.23955E-02   -0.18763E-02  5057   0.728E-02    0.235E-01
RMM:   4    -0.413261919200E+03   -0.45205E-01   -0.57023E-02  5114   0.200E-01    0.896E-01
RMM:   5    -0.413214124536E+03    0.47795E-01   -0.22085E-02  4766   0.149E-01    0.622E-02
RMM:   6    -0.413214253429E+03   -0.12889E-03   -0.38224E-03  5791   0.586E-02    0.378E-02
RMM:   7    -0.413214267587E+03   -0.14158E-04   -0.51016E-04  5747   0.209E-02    0.225E-02
RMM:   8    -0.413214265982E+03    0.16047E-05   -0.13121E-04  5232   0.115E-02    0.143E-02
RMM:   9    -0.413214250093E+03    0.15889E-04   -0.25026E-05  4622   0.602E-03    0.664E-03
RMM:  10    -0.413214244212E+03    0.58807E-05   -0.53222E-06  3006   0.303E-03    0.419E-03
RMM:  11    -0.413214239420E+03    0.47919E-05   -0.13225E-06  2498   0.199E-03    0.244E-03
RMM:  12    -0.413214229973E+03    0.94468E-05   -0.11897E-06  2487   0.184E-03    0.957E-04
RMM:  13    -0.413214224055E+03    0.59189E-05   -0.54212E-07  2382   0.129E-03    0.569E-04
RMM:  14    -0.413214222915E+03    0.11397E-05   -0.26214E-07  1998   0.900E-04    0.378E-04
RMM:  15    -0.413214220186E+03    0.27287E-05   -0.13702E-07  1465   0.717E-04    0.216E-04
RMM:  16    -0.413214213030E+03    0.71563E-05   -0.12039E-07  1476   0.719E-04    0.242E-04
RMM:  17    -0.413214210995E+03    0.20348E-05   -0.56132E-08  1003   0.601E-04    0.150E-04
RMM:  18    -0.413214205348E+03    0.56470E-05   -0.69183E-08  1333   0.646E-04    0.133E-04
RMM:  19    -0.413214203360E+03    0.19885E-05   -0.35556E-08   975   0.562E-04    0.616E-05
RMM:  20    -0.413214201945E+03    0.14150E-05   -0.26645E-08   920   0.553E-04    0.393E-05
RMM:  21    -0.413214201740E+03    0.20464E-06   -0.13472E-08   721   0.520E-04
   42 T=    71. E= -.41286627E+03 F= -.41321420E+03 E0= -.41319316E+03  EK= 0.34793E+00 SP= 0.00E+00 SK= 0.00E+00
       N       E                     dE             d eps       ncg     rms          rms(c)
RMM:   1    -0.413237561886E+03   -0.23360E-01   -0.10150E+01  4311   0.126E+00    0.946E-01
RMM:   2    -0.413221403347E+03    0.16159E-01   -0.15953E-01  4301   0.144E-01    0.696E-01
RMM:   3    -0.413220075762E+03    0.13276E-02   -0.18536E-02  5078   0.799E-02    0.288E-01
RMM:   4    -0.413261849441E+03   -0.41774E-01   -0.58771E-02  5097   0.204E-01    0.876E-01
RMM:   5    -0.413216207100E+03    0.45642E-01   -0.20228E-02  4748   0.145E-01    0.632E-02
RMM:   6    -0.413216305503E+03   -0.98403E-04   -0.36089E-03  5768   0.569E-02    0.376E-02
RMM:   7    -0.413216313697E+03   -0.81938E-05   -0.52868E-04  5740   0.211E-02    0.244E-02
RMM:   8    -0.413216310781E+03    0.29159E-05   -0.13362E-04  5210   0.121E-02    0.134E-02
RMM:   9    -0.413216298874E+03    0.11907E-04   -0.21054E-05  4466   0.581E-03    0.566E-03
RMM:  10    -0.413216295626E+03    0.32479E-05   -0.48936E-06  2940   0.282E-03    0.365E-03
RMM:  11    -0.413216292429E+03    0.31968E-05   -0.13005E-06  2503   0.191E-03    0.202E-03
RMM:  12    -0.413216286907E+03    0.55222E-05   -0.96015E-07  2476   0.164E-03    0.745E-04
RMM:  13    -0.413216283471E+03    0.34361E-05   -0.46012E-07  2288   0.116E-03    0.395E-04
RMM:  14    -0.413216282168E+03    0.13028E-05   -0.23683E-07  1853   0.853E-04    0.274E-04
RMM:  15    -0.413216279451E+03    0.27165E-05   -0.13845E-07  1425   0.715E-04    0.130E-04
RMM:  16    -0.413216275944E+03    0.35070E-05   -0.96852E-08  1191   0.668E-04    0.110E-04
RMM:  17    -0.413216273748E+03    0.21960E-05   -0.61804E-08  1039   0.627E-04    0.697E-05
RMM:  18    -0.413216271040E+03    0.27082E-05   -0.54309E-08  1116   0.625E-04    0.464E-05
RMM:  19    -0.413216268792E+03    0.22484E-05   -0.43377E-08  1100   0.601E-04    0.312E-05
RMM:  20    -0.413216268119E+03    0.67302E-06   -0.20970E-08   812   0.549E-04
   43 T=    71. E= -.41286632E+03 F= -.41321627E+03 E0= -.41319526E+03  EK= 0.34995E+00 SP= 0.00E+00 SK= 0.00E+00
       N       E                     dE             d eps       ncg     rms          rms(c)
RMM:   1    -0.413233687201E+03   -0.17418E-01   -0.10204E+01  4313   0.129E+00    0.949E-01
RMM:   2    -0.413222964021E+03    0.10723E-01   -0.16032E-01  4308   0.155E-01    0.708E-01
RMM:   3    -0.413222372872E+03    0.59115E-03   -0.20362E-02  5063   0.888E-02    0.317E-01
RMM:   4    -0.413261268872E+03   -0.38896E-01   -0.59288E-02  5100   0.206E-01    0.858E-01
RMM:   5    -0.413217431767E+03    0.43837E-01   -0.18816E-02  4730   0.142E-01    0.631E-02
RMM:   6    -0.413217506866E+03   -0.75100E-04   -0.34350E-03  5744   0.554E-02    0.365E-02
RMM:   7    -0.413217514602E+03   -0.77361E-05   -0.50484E-04  5752   0.207E-02    0.241E-02
RMM:   8    -0.413217511719E+03    0.28835E-05   -0.13018E-04  5203   0.119E-02    0.129E-02
RMM:   9    -0.413217501099E+03    0.10620E-04   -0.20665E-05  4453   0.575E-03    0.525E-03
RMM:  10    -0.413217498803E+03    0.22961E-05   -0.46927E-06  2889   0.274E-03    0.335E-03
RMM:  11    -0.413217496397E+03    0.24061E-05   -0.13279E-06  2504   0.190E-03    0.183E-03
RMM:  12    -0.413217492432E+03    0.39647E-05   -0.89033E-07  2469   0.157E-03    0.708E-04
RMM:  13    -0.413217489795E+03    0.26371E-05   -0.44396E-07  2223   0.112E-03    0.345E-04
RMM:  14    -0.413217488330E+03    0.14646E-05   -0.23001E-07  1769   0.835E-04    0.228E-04
RMM:  15    -0.413217485284E+03    0.30469E-05   -0.15458E-07  1397   0.732E-04    0.121E-04
RMM:  16    -0.413217483085E+03    0.21985E-05   -0.94351E-08  1156   0.663E-04    0.892E-05
RMM:  17    -0.413217481160E+03    0.19249E-05   -0.69518E-08  1121   0.639E-04    0.623E-05
RMM:  18    -0.413217478742E+03    0.24184E-05   -0.57490E-08  1133   0.626E-04    0.356E-05
RMM:  19    -0.413217476855E+03    0.18867E-05   -0.40397E-08  1046   0.590E-04    0.292E-05
RMM:  20    -0.413217476280E+03    0.57547E-06   -0.20846E-08   805   0.548E-04
   44 T=    72. E= -.41286610E+03 F= -.41321748E+03 E0= -.41319649E+03  EK= 0.35138E+00 SP= 0.00E+00 SK= 0.00E+00
       N       E                     dE             d eps       ncg     rms          rms(c)
RMM:   1    -0.413251367621E+03   -0.33891E-01   -0.10341E+01  4311   0.144E+00    0.974E-01
RMM:   2    -0.413223725276E+03    0.27642E-01   -0.16800E-01  4322   0.166E-01    0.705E-01
RMM:   3    -0.413226172485E+03   -0.24472E-02   -0.21561E-02  5097   0.995E-02    0.389E-01
RMM:   4    -0.413251175967E+03   -0.25003E-01   -0.51376E-02  5063   0.194E-01    0.743E-01
RMM:   5    -0.413218861482E+03    0.32314E-01   -0.12915E-02  4694   0.123E-01    0.621E-02
RMM:   6    -0.413218874381E+03   -0.12899E-04   -0.25384E-03  5678   0.482E-02    0.368E-02
RMM:   7    -0.413218869197E+03    0.51840E-05   -0.42256E-04  5669   0.196E-02    0.241E-02
RMM:   8    -0.413218862571E+03    0.66258E-05   -0.12272E-04  5124   0.119E-02    0.118E-02
RMM:   9    -0.413218849647E+03    0.12925E-04   -0.17291E-05  4374   0.565E-03    0.482E-03
RMM:  10    -0.413218845558E+03    0.40890E-05   -0.36765E-06  2788   0.252E-03    0.289E-03
RMM:  11    -0.413218840450E+03    0.51076E-05   -0.12458E-06  2497   0.185E-03    0.155E-03
RMM:  12    -0.413218834008E+03    0.64422E-05   -0.71742E-07  2439   0.144E-03    0.631E-04
RMM:  13    -0.413218830233E+03    0.37747E-05   -0.35036E-07  2050   0.101E-03    0.307E-04
RMM:  14    -0.413218827452E+03    0.27810E-05   -0.19665E-07  1621   0.794E-04    0.195E-04
RMM:  15    -0.413218822220E+03    0.52320E-05   -0.14304E-07  1412   0.729E-04    0.133E-04
RMM:  16    -0.413218819670E+03    0.25501E-05   -0.84036E-08  1137   0.651E-04    0.868E-05
RMM:  17    -0.413218816181E+03    0.34893E-05   -0.71767E-08  1201   0.642E-04    0.498E-05
RMM:  18    -0.413218813390E+03    0.27908E-05   -0.55667E-08  1155   0.610E-04    0.395E-05
RMM:  19    -0.413218811451E+03    0.19385E-05   -0.37071E-08  1002   0.574E-04    0.274E-05
RMM:  20    -0.413218811091E+03    0.36037E-06   -0.18042E-08   748   0.532E-04
   45 T=    72. E= -.41286638E+03 F= -.41321881E+03 E0= -.41319785E+03  EK= 0.35243E+00 SP= 0.00E+00 SK= 0.00E+00
       N       E                     dE             d eps       ncg     rms          rms(c)
RMM:   1    -0.413245321234E+03   -0.26510E-01   -0.10183E+01  4310   0.149E+00    0.957E-01
RMM:   2    -0.413223605898E+03    0.21715E-01   -0.16026E-01  4345   0.175E-01    0.699E-01
RMM:   3    -0.413228664030E+03   -0.50581E-02   -0.24061E-02  5107   0.111E-01    0.440E-01
RMM:   4    -0.413244377142E+03   -0.15713E-01   -0.47453E-02  5051   0.189E-01    0.663E-01
RMM:   5    -0.413218757282E+03    0.25620E-01   -0.93724E-03  4656   0.110E-01    0.596E-02
RMM:   6    -0.413218745521E+03    0.11761E-04   -0.19980E-03  5589   0.428E-02    0.347E-02
RMM:   7    -0.413218742188E+03    0.33324E-05   -0.35647E-04  5585   0.185E-02    0.228E-02
RMM:   8    -0.413218733789E+03    0.83994E-05   -0.12163E-04  5078   0.118E-02    0.110E-02
RMM:   9    -0.413218721242E+03    0.12547E-04   -0.15452E-05  4264   0.554E-03    0.463E-03
RMM:  10    -0.413218717662E+03    0.35793E-05   -0.31325E-06  2735   0.238E-03    0.270E-03
RMM:  11    -0.413218712777E+03    0.48853E-05   -0.11789E-06  2485   0.179E-03    0.140E-03
RMM:  12    -0.413218707293E+03    0.54840E-05   -0.66701E-07  2426   0.138E-03    0.635E-04
RMM:  13    -0.413218703974E+03    0.33192E-05   -0.31967E-07  1959   0.968E-04    0.308E-04
RMM:  14    -0.413218701139E+03    0.28351E-05   -0.17996E-07  1500   0.761E-04    0.182E-04
RMM:  15    -0.413218696437E+03    0.47023E-05   -0.13527E-07  1317   0.712E-04    0.124E-04
RMM:  16    -0.413218694135E+03    0.23013E-05   -0.83403E-08  1127   0.648E-04    0.838E-05
RMM:  17    -0.413218690257E+03    0.38779E-05   -0.79469E-08  1274   0.654E-04    0.560E-05
RMM:  18    -0.413218688274E+03    0.19829E-05   -0.49640E-08  1061   0.585E-04    0.373E-05
RMM:  19    -0.413218686655E+03    0.16190E-05   -0.33456E-08   921   0.558E-04    0.192E-05
RMM:  20    -0.413218686288E+03    0.36764E-06   -0.18524E-08   745   0.529E-04
   46 T=    72. E= -.41286622E+03 F= -.41321869E+03 E0= -.41319774E+03  EK= 0.35246E+00 SP= 0.00E+00 SK= 0.00E+00
       N       E                     dE             d eps       ncg     rms          rms(c)
RMM:   1    -0.413233621947E+03   -0.14935E-01   -0.10100E+01  4311   0.149E+00    0.948E-01
RMM:   2    -0.413223170151E+03    0.10452E-01   -0.15727E-01  4353   0.181E-01    0.708E-01
RMM:   3    -0.413229789035E+03   -0.66189E-02   -0.26738E-02  5093   0.123E-01    0.473E-01
RMM:   4    -0.413242614468E+03   -0.12825E-01   -0.48810E-02  5044   0.193E-01    0.649E-01
RMM:   5    -0.413217937450E+03    0.24677E-01   -0.85875E-03  4627   0.108E-01    0.588E-02
RMM:   6    -0.413217909666E+03    0.27785E-04   -0.18535E-03  5555   0.412E-02    0.329E-02
RMM:   7    -0.413217905352E+03    0.43134E-05   -0.32784E-04  5593   0.177E-02    0.219E-02
RMM:   8    -0.413217896261E+03    0.90910E-05   -0.12428E-04  5090   0.118E-02    0.105E-02
RMM:   9    -0.413217885658E+03    0.10603E-04   -0.15097E-05  4212   0.547E-03    0.434E-03
RMM:  10    -0.413217883378E+03    0.22804E-05   -0.30436E-06  2717   0.234E-03    0.252E-03
RMM:  11    -0.413217880058E+03    0.33202E-05   -0.11980E-06  2495   0.177E-03    0.131E-03
RMM:  12    -0.413217876404E+03    0.36540E-05   -0.67736E-07  2411   0.136E-03    0.654E-04
RMM:  13    -0.413217873958E+03    0.24459E-05   -0.32733E-07  1912   0.963E-04    0.308E-04
RMM:  14    -0.413217871702E+03    0.22560E-05   -0.19087E-07  1461   0.761E-04    0.176E-04
RMM:  15    -0.413217868385E+03    0.33166E-05   -0.15271E-07  1337   0.720E-04    0.121E-04
RMM:  16    -0.413217866604E+03    0.17816E-05   -0.93856E-08  1149   0.651E-04    0.864E-05
RMM:  17    -0.413217863217E+03    0.33865E-05   -0.10424E-07  1408   0.674E-04    0.628E-05
RMM:  18    -0.413217862001E+03    0.12166E-05   -0.49346E-08   967   0.570E-04    0.350E-05
RMM:  19    -0.413217860925E+03    0.10754E-05   -0.35459E-08   905   0.548E-04    0.195E-05
RMM:  20    -0.413217860371E+03    0.55392E-06   -0.22134E-08   771   0.524E-04
   47 T=    72. E= -.41286632E+03 F= -.41321786E+03 E0= -.41319693E+03  EK= 0.35154E+00 SP= 0.00E+00 SK= 0.00E+00
       N       E                     dE             d eps       ncg     rms          rms(c)
RMM:   1    -0.413248707013E+03   -0.30846E-01   -0.10172E+01  4306   0.166E+00    0.964E-01
RMM:   2    -0.413221233123E+03    0.27474E-01   -0.17655E-01  4412   0.197E-01    0.707E-01
RMM:   3    -0.413232671764E+03   -0.11439E-01   -0.28400E-02  5120   0.136E-01    0.566E-01
RMM:   4    -0.413233644529E+03   -0.97276E-03   -0.44948E-02  5012   0.187E-01    0.555E-01
RMM:   5    -0.413216137076E+03    0.17507E-01   -0.59811E-03  4567   0.973E-02    0.592E-02
RMM:   6    -0.413216072424E+03    0.64652E-04   -0.11893E-03  5264   0.353E-02    0.322E-02
RMM:   7    -0.413216068905E+03    0.35190E-05   -0.23798E-04  5546   0.154E-02    0.201E-02
RMM:   8    -0.413216063064E+03    0.58404E-05   -0.14179E-04  5146   0.124E-02    0.116E-02
RMM:   9    -0.413216047264E+03    0.15800E-04   -0.18043E-05  4418   0.595E-03    0.441E-03
RMM:  10    -0.413216044192E+03    0.30724E-05   -0.32701E-06  2755   0.238E-03    0.247E-03
RMM:  11    -0.413216038410E+03    0.57812E-05   -0.13700E-06  2486   0.190E-03    0.131E-03
RMM:  12    -0.413216034059E+03    0.43512E-05   -0.61271E-07  2399   0.136E-03    0.751E-04
RMM:  13    -0.413216030248E+03    0.38117E-05   -0.29580E-07  1833   0.950E-04    0.373E-04
RMM:  14    -0.413216026393E+03    0.38543E-05   -0.16702E-07  1453   0.749E-04    0.212E-04
RMM:  15    -0.413216022532E+03    0.38611E-05   -0.12000E-07  1290   0.692E-04    0.143E-04
RMM:  16    -0.413216020090E+03    0.24417E-05   -0.80821E-08  1175   0.630E-04    0.119E-04
RMM:  17    -0.413216016420E+03    0.36708E-05   -0.80521E-08  1259   0.628E-04    0.634E-05
RMM:  18    -0.413216014569E+03    0.18507E-05   -0.40937E-08   910   0.551E-04    0.534E-05
RMM:  19    -0.413216013960E+03    0.60918E-06   -0.22302E-08   712   0.515E-04
   48 T=    71. E= -.41286661E+03 F= -.41321601E+03 E0= -.41319509E+03  EK= 0.34941E+00 SP= 0.00E+00 SK= 0.00E+00
       N       E                     dE             d eps       ncg     rms          rms(c)
RMM:   1    -0.413249765941E+03   -0.33751E-01   -0.10030E+01  4305   0.179E+00    0.955E-01
RMM:   2    -0.413217072355E+03    0.32694E-01   -0.17842E-01  4487   0.208E-01    0.697E-01
RMM:   3    -0.413234373302E+03   -0.17301E-01   -0.32586E-02  5140   0.151E-01    0.651E-01
RMM:   4    -0.413224223727E+03    0.10150E-01   -0.42442E-02  4982   0.185E-01    0.469E-01
RMM:   5    -0.413212193288E+03    0.12030E-01   -0.45480E-03  4540   0.895E-02    0.604E-02
RMM:   6    -0.413212071769E+03    0.12152E-03   -0.66344E-04  4852   0.299E-02    0.321E-02
RMM:   7    -0.413212062510E+03    0.92586E-05   -0.20674E-04  5857   0.144E-02    0.141E-02
RMM:   8    -0.413212055878E+03    0.66319E-05   -0.76262E-05  5195   0.102E-02    0.113E-02
RMM:   9    -0.413212048675E+03    0.72027E-05   -0.19281E-05  4477   0.531E-03    0.435E-03
RMM:  10    -0.413212044912E+03    0.37635E-05   -0.28376E-06  2645   0.262E-03    0.243E-03
RMM:  11    -0.413212039084E+03    0.58279E-05   -0.16821E-06  2483   0.217E-03    0.150E-03
RMM:  12    -0.413212034915E+03    0.41694E-05   -0.66741E-07  2423   0.148E-03    0.909E-04
RMM:  13    -0.413212030829E+03    0.40857E-05   -0.31425E-07  2174   0.996E-04    0.549E-04
RMM:  14    -0.413212024689E+03    0.61400E-05   -0.23667E-07  1758   0.842E-04    0.403E-04
RMM:  15    -0.413212021328E+03    0.33604E-05   -0.11449E-07  1111   0.646E-04    0.173E-04
RMM:  16    -0.413212019245E+03    0.20835E-05   -0.83748E-08  1116   0.619E-04    0.967E-05
RMM:  17    -0.413212015193E+03    0.40518E-05   -0.97937E-08  1329   0.659E-04    0.159E-04
RMM:  18    -0.413212014196E+03    0.99669E-06   -0.39551E-08   900   0.551E-04
   49 T=    70. E= -.41286650E+03 F= -.41321201E+03 E0= -.41319110E+03  EK= 0.34551E+00 SP= 0.00E+00 SK= 0.00E+00
[...]
RMM:   7    -0.413339882873E+03    0.12740E-03   -0.59789E-04  5127   0.323E-02    0.468E-02
RMM:   8    -0.413339887805E+03   -0.49313E-05   -0.30952E-04  4744   0.224E-02    0.223E-02
RMM:   9    -0.413339894485E+03   -0.66801E-05   -0.96897E-05  5306   0.117E-02    0.127E-02
RMM:  10    -0.413339895348E+03   -0.86383E-06   -0.35076E-05  5313   0.696E-03    0.680E-03
RMM:  11    -0.413339899204E+03   -0.38555E-05   -0.69832E-06  3290   0.346E-03    0.383E-03
RMM:  12    -0.413339903601E+03   -0.43970E-05   -0.29909E-06  2743   0.284E-03    0.180E-03
RMM:  13    -0.413339905769E+03   -0.21683E-05   -0.10576E-06  2485   0.179E-03    0.827E-04
RMM:  14    -0.413339907706E+03   -0.19366E-05   -0.70527E-07  2364   0.133E-03    0.522E-04
RMM:  15    -0.413339909228E+03   -0.15223E-05   -0.57727E-07  2154   0.110E-03    0.308E-04
RMM:  16    -0.413339909863E+03   -0.63495E-06   -0.38719E-07  1832   0.895E-04
  139 T=    96. E= -.41286641E+03 F= -.41333991E+03 E0= -.41332023E+03  EK= 0.47350E+00 SP= 0.00E+00 SK= 0.00E+00
       N       E                     dE             d eps       ncg     rms          rms(c)
RMM:   1    -0.413468689982E+03   -0.12878E+00   -0.12018E+01  4297   0.671E+00    0.106E+00
RMM:   2    -0.413440468327E+03    0.28222E-01   -0.25815E-01  5357   0.623E-01    0.919E-01
RMM:   3    -0.413462315898E+03   -0.21848E-01   -0.78195E-02  5599   0.291E-01    0.105E+00
RMM:   4    -0.413431230579E+03    0.31085E-01   -0.43325E-02  5064   0.243E-01    0.398E-01
RMM:   5    -0.413430961072E+03    0.26951E-03   -0.35451E-02  5034   0.231E-01    0.222E-01
RMM:   6    -0.413428548803E+03    0.24123E-02   -0.89621E-03  5097   0.119E-01    0.111E-01
RMM:   7    -0.413428180239E+03    0.36856E-03   -0.92736E-04  4737   0.448E-02    0.620E-02
RMM:   8    -0.413428169887E+03    0.10352E-04   -0.81374E-04  5417   0.339E-02    0.281E-02
RMM:   9    -0.413428183021E+03   -0.13133E-04   -0.18196E-04  5693   0.157E-02    0.170E-02
RMM:  10    -0.413428189196E+03   -0.61749E-05   -0.63185E-05  5328   0.953E-03    0.874E-03
RMM:  11    -0.413428202680E+03   -0.13484E-04   -0.18177E-05  4408   0.548E-03    0.574E-03
RMM:  12    -0.413428208455E+03   -0.57752E-05   -0.53328E-06  3098   0.329E-03    0.274E-03
RMM:  13    -0.413428212548E+03   -0.40929E-05   -0.22934E-06  2703   0.230E-03    0.112E-03
RMM:  14    -0.413428215306E+03   -0.27576E-05   -0.16626E-06  2599   0.183E-03    0.731E-04
RMM:  15    -0.413428216217E+03   -0.91086E-06   -0.11782E-06  2364   0.139E-03
  140 T=   112. E= -.41287659E+03 F= -.41342822E+03 E0= -.41340871E+03  EK= 0.55163E+00 SP= 0.00E+00 SK= 0.00E+00
       N       E                     dE             d eps       ncg     rms          rms(c)
RMM:   1    -0.413516619334E+03   -0.88404E-01   -0.13715E+01  4298   0.718E+00    0.108E+00
RMM:   2    -0.413488212199E+03    0.28407E-01   -0.30891E-01  5341   0.689E-01    0.103E+00
RMM:   3    -0.413485675917E+03    0.25363E-02   -0.77484E-02  5550   0.302E-01    0.987E-01
RMM:   4    -0.413465643523E+03    0.20032E-01   -0.41480E-02  5218   0.237E-01    0.480E-01
RMM:   5    -0.413466423143E+03   -0.77962E-03   -0.42338E-02  5023   0.250E-01    0.281E-01
RMM:   6    -0.413462942688E+03    0.34805E-02   -0.14467E-02  5096   0.149E-01    0.139E-01
RMM:   7    -0.413462323841E+03    0.61885E-03   -0.13515E-03  4710   0.570E-02    0.703E-02
RMM:   8    -0.413462323899E+03   -0.57884E-07   -0.11424E-03  5575   0.391E-02    0.342E-02
RMM:   9    -0.413462338024E+03   -0.14125E-04   -0.22577E-04  5490   0.184E-02    0.194E-02
RMM:  10    -0.413462344114E+03   -0.60905E-05   -0.77181E-05  5439   0.106E-02    0.921E-03
RMM:  11    -0.413462359829E+03   -0.15715E-04   -0.21545E-05  4664   0.582E-03    0.618E-03
RMM:  12    -0.413462370353E+03   -0.10524E-04   -0.72990E-06  3412   0.384E-03    0.320E-03
RMM:  13    -0.413462376389E+03   -0.60363E-05   -0.34099E-06  2830   0.273E-03    0.141E-03
RMM:  14    -0.413462379809E+03   -0.34198E-05   -0.25898E-06  2720   0.211E-03    0.964E-04
RMM:  15    -0.413462380553E+03   -0.74477E-06   -0.19925E-06  2539   0.171E-03
  141 T=   120. E= -.41287387E+03 F= -.41346238E+03 E0= -.41344290E+03  EK= 0.58851E+00 SP= 0.00E+00 SK= 0.00E+00
       N       E                     dE             d eps       ncg     rms          rms(c)
RMM:   1    -0.413532427137E+03   -0.70047E-01   -0.13912E+01  4296   0.701E+00    0.855E-01
RMM:   2    -0.413482650093E+03    0.49777E-01   -0.30346E-01  5329   0.692E-01    0.884E-01
RMM:   3    -0.413476361283E+03    0.62888E-02   -0.62231E-02  5599   0.275E-01    0.804E-01
RMM:   4    -0.413462928065E+03    0.13433E-01   -0.25166E-02  5265   0.190E-01    0.441E-01
RMM:   5    -0.413463970526E+03   -0.10425E-02   -0.24013E-02  4931   0.194E-01    0.256E-01
RMM:   6    -0.413462223121E+03    0.17474E-02   -0.13186E-02  5067   0.138E-01    0.136E-01
RMM:   7    -0.413461476190E+03    0.74693E-03   -0.15624E-03  4673   0.599E-02    0.648E-02
RMM:   8    -0.413461476960E+03   -0.76972E-06   -0.92733E-04  5714   0.353E-02    0.351E-02
RMM:   9    -0.413461478206E+03   -0.12466E-05   -0.20036E-04  4952   0.181E-02    0.175E-02
RMM:  10    -0.413461481869E+03   -0.36627E-05   -0.68969E-05  5584   0.101E-02    0.873E-03
RMM:  11    -0.413461490852E+03   -0.89836E-05   -0.19667E-05  4612   0.547E-03    0.639E-03
RMM:  12    -0.413461498499E+03   -0.76468E-05   -0.56830E-06  3175   0.354E-03    0.307E-03
RMM:  13    -0.413461502109E+03   -0.36095E-05   -0.30134E-06  2786   0.251E-03    0.134E-03
RMM:  14    -0.413461504045E+03   -0.19366E-05   -0.20662E-06  2646   0.198E-03    0.907E-04
RMM:  15    -0.413461503940E+03    0.10514E-06   -0.15551E-06  2458   0.156E-03
  142 T=   120. E= -.41287030E+03 F= -.41346150E+03 E0= -.41344209E+03  EK= 0.59120E+00 SP= 0.00E+00 SK= 0.00E+00
       N       E                     dE             d eps       ncg     rms          rms(c)
RMM:   1    -0.413579490000E+03   -0.11799E+00   -0.14150E+01  4286   0.670E+00    0.781E-01
RMM:   2    -0.413492626161E+03    0.86864E-01   -0.31330E-01  5306   0.703E-01    0.769E-01
RMM:   3    -0.413500470344E+03   -0.78442E-02   -0.63484E-02  5654   0.273E-01    0.804E-01
RMM:   4    -0.413482402698E+03    0.18068E-01   -0.21757E-02  5237   0.177E-01    0.426E-01
RMM:   5    -0.413482570198E+03   -0.16750E-03   -0.15121E-02  4742   0.162E-01    0.220E-01
RMM:   6    -0.413482189230E+03    0.38097E-03   -0.10597E-02  5021   0.123E-01    0.123E-01
RMM:   7    -0.413481387231E+03    0.80200E-03   -0.19218E-03  4943   0.605E-02    0.575E-02
RMM:   8    -0.413481360595E+03    0.26636E-04   -0.58645E-04  5766   0.283E-02    0.345E-02
RMM:   9    -0.413481345029E+03    0.15566E-04   -0.19732E-04  4648   0.180E-02    0.133E-02
RMM:  10    -0.413481347530E+03   -0.25010E-05   -0.51240E-05  5584   0.862E-03    0.842E-03
RMM:  11    -0.413481349094E+03   -0.15640E-05   -0.13215E-05  4183   0.470E-03    0.509E-03
RMM:  12    -0.413481351223E+03   -0.21290E-05   -0.33789E-06  2812   0.289E-03    0.273E-03
RMM:  13    -0.413481351990E+03   -0.76706E-06   -0.18203E-06  2634   0.202E-03
  143 T=   124. E= -.41287024E+03 F= -.41348135E+03 E0= -.41346206E+03  EK= 0.61111E+00 SP= 0.00E+00 SK= 0.00E+00
       N       E                     dE             d eps       ncg     rms          rms(c)
RMM:   1    -0.413655558206E+03   -0.17421E+00   -0.15278E+01  4278   0.680E+00    0.812E-01
RMM:   2    -0.413536276180E+03    0.11928E+00   -0.35554E-01  5319   0.743E-01    0.747E-01
RMM:   3    -0.413557002897E+03   -0.20727E-01   -0.67895E-02  5663   0.280E-01    0.851E-01
RMM:   4    -0.413534147380E+03    0.22856E-01   -0.23140E-02  5230   0.174E-01    0.479E-01
RMM:   5    -0.413532770745E+03    0.13766E-02   -0.14894E-02  4504   0.165E-01    0.207E-01
RMM:   6    -0.413532370981E+03    0.39976E-03   -0.55375E-03  4794   0.995E-02    0.865E-02
RMM:   7    -0.413532179460E+03    0.19152E-03   -0.14997E-03  5609   0.475E-02    0.618E-02
RMM:   8    -0.413532068667E+03    0.11079E-03   -0.32162E-04  4995   0.232E-02    0.372E-02
RMM:   9    -0.413532038291E+03    0.30376E-04   -0.22913E-04  4475   0.192E-02    0.125E-02
RMM:  10    -0.413532041921E+03   -0.36300E-05   -0.56883E-05  5583   0.874E-03    0.869E-03
RMM:  11    -0.413532041191E+03    0.72979E-06   -0.11765E-05  4018   0.449E-03    0.402E-03
RMM:  12    -0.413532041557E+03   -0.36621E-06   -0.24598E-06  2696   0.255E-03
  144 T=   134. E= -.41287312E+03 F= -.41353204E+03 E0= -.41351293E+03  EK= 0.65892E+00 SP= 0.00E+00 SK= 0.00E+00
       N       E                     dE             d eps       ncg     rms          rms(c)
RMM:   1    -0.413701397306E+03   -0.16936E+00   -0.16834E+01  4267   0.739E+00    0.945E-01
RMM:   2    -0.413575070065E+03    0.12633E+00   -0.41380E-01  5343   0.800E-01    0.845E-01
RMM:   3    -0.413579555955E+03   -0.44859E-02   -0.51753E-02  5630   0.260E-01    0.650E-01
RMM:   4    -0.413608116642E+03   -0.28561E-01   -0.49068E-02  5335   0.214E-01    0.854E-01
RMM:   5    -0.413575846428E+03    0.32270E-01   -0.36219E-02  4850   0.231E-01    0.228E-01
RMM:   6    -0.413574593927E+03    0.12525E-02   -0.10434E-02  5219   0.128E-01    0.101E-01
RMM:   7    -0.413574202805E+03    0.39112E-03   -0.23822E-03  5567   0.571E-02    0.644E-02
RMM:   8    -0.413574114048E+03    0.88758E-04   -0.37475E-04  5367   0.240E-02    0.419E-02
RMM:   9    -0.413574065029E+03    0.49019E-04   -0.24351E-04  4454   0.203E-02    0.117E-02
RMM:  10    -0.413574073209E+03   -0.81798E-05   -0.81172E-05  5680   0.104E-02    0.101E-02
RMM:  11    -0.413574075701E+03   -0.24924E-05   -0.14225E-05  4018   0.459E-03    0.549E-03
RMM:  12    -0.413574081489E+03   -0.57885E-05   -0.39904E-06  2929   0.310E-03    0.277E-03
RMM:  13    -0.413574088743E+03   -0.72535E-05   -0.19939E-06  2642   0.230E-03    0.130E-03
RMM:  14    -0.413574095944E+03   -0.72015E-05   -0.13728E-06  2566   0.172E-03    0.750E-04
RMM:  15    -0.413574102551E+03   -0.66069E-05   -0.11111E-06  2467   0.142E-03    0.580E-04
RMM:  16    -0.413574109244E+03   -0.66923E-05   -0.11342E-06  2376   0.132E-03    0.327E-04
RMM:  17    -0.413574114509E+03   -0.52655E-05   -0.91166E-07  2171   0.113E-03    0.252E-04
RMM:  18    -0.413574119355E+03   -0.48457E-05   -0.78505E-07  2099   0.106E-03    0.181E-04
RMM:  19    -0.413574121986E+03   -0.26306E-05   -0.40145E-07  1642   0.798E-04    0.113E-04
RMM:  20    -0.413574123711E+03   -0.17250E-05   -0.17184E-07  1240   0.653E-04    0.632E-05
RMM:  21    -0.413574125441E+03   -0.17306E-05   -0.12241E-07  1231   0.627E-04    0.556E-05
RMM:  22    -0.413574125947E+03   -0.50542E-06   -0.56474E-08   979   0.568E-04
  145 T=   142. E= -.41287761E+03 F= -.41357413E+03 E0= -.41355523E+03  EK= 0.69651E+00 SP= 0.00E+00 SK= 0.00E+00
       N       E                     dE             d eps       ncg     rms          rms(c)
RMM:   1    -0.413644596165E+03   -0.70471E-01   -0.17279E+01  4277   0.776E+00    0.115E+00
RMM:   2    -0.413543222269E+03    0.10137E+00   -0.44202E-01  5320   0.818E-01    0.994E-01
RMM:   3    -0.413566902102E+03   -0.23680E-01   -0.75233E-02  5676   0.309E-01    0.906E-01
RMM:   4    -0.413563360813E+03    0.35413E-02   -0.57085E-02  5159   0.244E-01    0.744E-01
RMM:   5    -0.413546616358E+03    0.16744E-01   -0.42968E-02  5022   0.258E-01    0.262E-01
RMM:   6    -0.413543526323E+03    0.30900E-02   -0.11924E-02  4924   0.139E-01    0.113E-01
RMM:   7    -0.413542856647E+03    0.66968E-03   -0.20049E-03  5129   0.611E-02    0.526E-02
RMM:   8    -0.413542812381E+03    0.44267E-04   -0.53733E-04  5914   0.273E-02    0.349E-02
RMM:   9    -0.413542780468E+03    0.31913E-04   -0.17105E-04  4743   0.171E-02    0.139E-02
RMM:  10    -0.413542782251E+03   -0.17834E-05   -0.55844E-05  5565   0.915E-03    0.890E-03
RMM:  11    -0.413542786389E+03   -0.41380E-05   -0.11215E-05  3792   0.424E-03    0.565E-03
RMM:  12    -0.413542795113E+03   -0.87241E-05   -0.44839E-06  2985   0.342E-03    0.300E-03
RMM:  13    -0.413542806389E+03   -0.11276E-04   -0.27434E-06  2732   0.270E-03    0.162E-03
RMM:  14    -0.413542816832E+03   -0.10442E-04   -0.16269E-06  2609   0.191E-03    0.905E-04
RMM:  15    -0.413542826564E+03   -0.97321E-05   -0.14345E-06  2581   0.162E-03    0.752E-04
RMM:  16    -0.413542839758E+03   -0.13194E-04   -0.24607E-06  2719   0.190E-03    0.515E-04
RMM:  17    -0.413542845513E+03   -0.57545E-05   -0.10726E-06  2094   0.118E-03    0.337E-04
RMM:  18    -0.413542851333E+03   -0.58207E-05   -0.82262E-07  2317   0.114E-03    0.272E-04
RMM:  19    -0.413542856153E+03   -0.48194E-05   -0.67489E-07  1895   0.950E-04    0.177E-04
RMM:  20    -0.413542858026E+03   -0.18735E-05   -0.24089E-07  1345   0.680E-04    0.105E-04
RMM:  21    -0.413542860461E+03   -0.24350E-05   -0.16828E-07  1320   0.654E-04    0.630E-05
RMM:  22    -0.413542861547E+03   -0.10855E-05   -0.84259E-08  1082   0.581E-04    0.489E-05
RMM:  23    -0.413542862315E+03   -0.76866E-06   -0.50484E-08  1015   0.555E-04
  146 T=   135. E= -.41287889E+03 F= -.41354286E+03 E0= -.41352410E+03  EK= 0.66397E+00 SP= 0.00E+00 SK= 0.00E+00
       N       E                     dE             d eps       ncg     rms          rms(c)
RMM:   1    -0.413489088946E+03    0.53773E-01   -0.15199E+01  4281   0.735E+00    0.121E+00
RMM:   2    -0.413425275793E+03    0.63813E-01   -0.41012E-01  5320   0.764E-01    0.100E+00
RMM:   3    -0.413442957938E+03   -0.17682E-01   -0.73826E-02  5564   0.323E-01    0.775E-01
RMM:   4    -0.413480959174E+03   -0.38001E-01   -0.91692E-02  5200   0.293E-01    0.101E+00
RMM:   5    -0.413427554042E+03    0.53405E-01   -0.50815E-02  5016   0.271E-01    0.202E-01
RMM:   6    -0.413426192890E+03    0.13612E-02   -0.94820E-03  5257   0.121E-01    0.968E-02
RMM:   7    -0.413425688855E+03    0.50403E-03   -0.21060E-03  5214   0.546E-02    0.432E-02
RMM:   8    -0.413425656569E+03    0.32286E-04   -0.53387E-04  5858   0.270E-02    0.257E-02
RMM:   9    -0.413425642596E+03    0.13973E-04   -0.12208E-04  5505   0.131E-02    0.169E-02
RMM:  10    -0.413425638223E+03    0.43730E-05   -0.48436E-05  5430   0.865E-03    0.791E-03
RMM:  11    -0.413425642470E+03   -0.42463E-05   -0.19016E-05  4553   0.507E-03    0.648E-03
RMM:  12    -0.413425648341E+03   -0.58719E-05   -0.41717E-06  2903   0.339E-03    0.275E-03
RMM:  13    -0.413425656419E+03   -0.80777E-05   -0.27621E-06  2721   0.258E-03    0.144E-03
RMM:  14    -0.413425666089E+03   -0.96695E-05   -0.17677E-06  2621   0.205E-03    0.827E-04
RMM:  15    -0.413425674326E+03   -0.82370E-05   -0.13408E-06  2572   0.160E-03    0.653E-04
RMM:  16    -0.413425683930E+03   -0.96048E-05   -0.17191E-06  2588   0.161E-03    0.386E-04
RMM:  17    -0.413425690889E+03   -0.69588E-05   -0.14618E-06  2361   0.136E-03    0.276E-04
RMM:  18    -0.413425695055E+03   -0.41661E-05   -0.77972E-07  2000   0.101E-03    0.181E-04
RMM:  19    -0.413425698309E+03   -0.32538E-05   -0.45926E-07  1731   0.836E-04    0.117E-04
RMM:  20    -0.413425700576E+03   -0.22670E-05   -0.23954E-07  1403   0.693E-04    0.801E-05
RMM:  21    -0.413425702176E+03   -0.15996E-05   -0.14222E-07  1236   0.624E-04    0.500E-05
RMM:  22    -0.413425703068E+03   -0.89199E-06   -0.74049E-08  1040   0.570E-04
  147 T=   113. E= -.41287071E+03 F= -.41342570E+03 E0= -.41340682E+03  EK= 0.55499E+00 SP= 0.00E+00 SK= 0.00E+00
       N       E                     dE             d eps       ncg     rms          rms(c)
RMM:   1    -0.413399471721E+03    0.26230E-01   -0.11970E+01  4278   0.640E+00    0.101E+00
RMM:   2    -0.413356832963E+03    0.42639E-01   -0.35399E-01  5389   0.672E-01    0.830E-01
RMM:   3    -0.413400925656E+03   -0.44093E-01   -0.95855E-02  5484   0.329E-01    0.109E+00
RMM:   4    -0.413355479981E+03    0.45446E-01   -0.55495E-02  5179   0.268E-01    0.469E-01
RMM:   5    -0.413351664730E+03    0.38153E-02   -0.17057E-02  4827   0.180E-01    0.140E-01
RMM:   6    -0.413352158656E+03   -0.49393E-03   -0.82083E-03  5548   0.103E-01    0.123E-01
RMM:   7    -0.413351339912E+03    0.81874E-03   -0.21177E-03  5030   0.573E-02    0.493E-02
RMM:   8    -0.413351314645E+03    0.25267E-04   -0.71896E-04  5796   0.306E-02    0.257E-02
RMM:   9    -0.413351307968E+03    0.66767E-05   -0.16529E-04  5768   0.149E-02    0.203E-02
RMM:  10    -0.413351295004E+03    0.12964E-04   -0.41157E-05  5085   0.841E-03    0.757E-03
RMM:  11    -0.413351297425E+03   -0.24212E-05   -0.24991E-05  5069   0.553E-03    0.547E-03
RMM:  12    -0.413351298854E+03   -0.14290E-05   -0.27991E-06  2734   0.277E-03    0.214E-03
RMM:  13    -0.413351301320E+03   -0.24653E-05   -0.14739E-06  2573   0.188E-03    0.106E-03
RMM:  14    -0.413351304801E+03   -0.34816E-05   -0.10310E-06  2472   0.156E-03    0.524E-04
RMM:  15    -0.413351306970E+03   -0.21684E-05   -0.61209E-07  2126   0.112E-03    0.347E-04
RMM:  16    -0.413351309882E+03   -0.29122E-05   -0.75697E-07  2390   0.119E-03    0.293E-04
RMM:  17    -0.413351312062E+03   -0.21806E-05   -0.57512E-07  1851   0.953E-04    0.214E-04
RMM:  18    -0.413351313719E+03   -0.16562E-05   -0.44963E-07  1837   0.889E-04    0.109E-04
RMM:  19    -0.413351314794E+03   -0.10756E-05   -0.26051E-07  1546   0.719E-04    0.801E-05
RMM:  20    -0.413351315719E+03   -0.92522E-06   -0.15105E-07  1233   0.619E-04
  148 T=   100. E= -.41285955E+03 F= -.41335132E+03 E0= -.41333204E+03  EK= 0.49176E+00 SP= 0.00E+00 SK= 0.00E+00
       N       E                     dE             d eps       ncg     rms          rms(c)
RMM:   1    -0.413539924723E+03   -0.18861E+00   -0.12495E+01  4276   0.637E+00    0.113E+00
RMM:   2    -0.413513888619E+03    0.26036E-01   -0.44103E-01  5407   0.746E-01    0.118E+00
RMM:   3    -0.413491625482E+03    0.22263E-01   -0.10437E-01  5390   0.357E-01    0.998E-01
RMM:   4    -0.413472045409E+03    0.19580E-01   -0.66579E-02  5299   0.305E-01    0.491E-01
RMM:   5    -0.413469700471E+03    0.23449E-02   -0.30261E-02  4938   0.224E-01    0.234E-01
RMM:   6    -0.413467697236E+03    0.20032E-02   -0.13440E-02  5020   0.143E-01    0.127E-01
RMM:   7    -0.413467085564E+03    0.61167E-03   -0.15073E-03  4672   0.589E-02    0.512E-02
RMM:   8    -0.413467066785E+03    0.18780E-04   -0.34866E-04  5278   0.243E-02    0.287E-02
RMM:   9    -0.413467070948E+03   -0.41634E-05   -0.16990E-04  5556   0.156E-02    0.176E-02
RMM:  10    -0.413467064010E+03    0.69384E-05   -0.36460E-05  5209   0.758E-03    0.845E-03
RMM:  11    -0.413467063176E+03    0.83368E-06   -0.21561E-05  5018   0.529E-03    0.431E-03
RMM:  12    -0.413467062495E+03    0.68103E-06   -0.31054E-06  2759   0.270E-03
  149 T=   121. E= -.41287121E+03 F= -.41346706E+03 E0= -.41344724E+03  EK= 0.59586E+00 SP= 0.00E+00 SK= 0.00E+00
       N       E                     dE             d eps       ncg     rms          rms(c)
RMM:   1    -0.413739436970E+03   -0.27237E+00   -0.17248E+01  4284   0.761E+00    0.153E+00
RMM:   2    -0.413713768163E+03    0.25669E-01   -0.67911E-01  5399   0.961E-01    0.166E+00
RMM:   3    -0.413661450668E+03    0.52317E-01   -0.17033E-01  5388   0.463E-01    0.137E+00
RMM:   4    -0.413628714089E+03    0.32737E-01   -0.98516E-02  5289   0.375E-01    0.684E-01
RMM:   5    -0.413628564556E+03    0.14953E-03   -0.66325E-02  4983   0.320E-01    0.368E-01
RMM:   6    -0.413621729005E+03    0.68356E-02   -0.26352E-02  4906   0.203E-01    0.152E-01
RMM:   7    -0.413621026299E+03    0.70271E-03   -0.25540E-03  4964   0.769E-02    0.680E-02
RMM:   8    -0.413620960626E+03    0.65672E-04   -0.48442E-04  4719   0.306E-02    0.391E-02
RMM:   9    -0.413620965617E+03   -0.49904E-05   -0.26478E-04  5108   0.204E-02    0.211E-02
RMM:  10    -0.413620959131E+03    0.64853E-05   -0.77303E-05  5478   0.106E-02    0.986E-03
RMM:  11    -0.413620959963E+03   -0.83126E-06   -0.33295E-05  5506   0.638E-03    0.644E-03
RMM:  12    -0.413620959874E+03    0.88410E-07   -0.77276E-06  3693   0.391E-03
  150 T=   149. E= -.41288679E+03 F= -.41362096E+03 E0= -.41360034E+03  EK= 0.73417E+00 SP= 0.00E+00 SK= 0.00E+00
