       N       E                     dE             d eps       ncg     rms          rms(c)
RMM:   1     0.220158155384E+04    0.22016E+04   -0.52440E+04  2132   0.654E+02
RMM:   2     0.705757870278E+03   -0.14958E+04   -0.16263E+04  2132   0.177E+02
RMM:   3     0.137894746504E+03   -0.56786E+03   -0.65708E+03  2132   0.117E+02
RMM:   4    -0.159310179683E+03   -0.29720E+03   -0.27855E+03  2132   0.936E+01
RMM:   5    -0.287576858050E+03   -0.12827E+03   -0.11456E+03  2132   0.595E+01
RMM:   6    -0.350036079192E+03   -0.62459E+02   -0.55138E+02  2132   0.423E+01
RMM:   7    -0.382885700801E+03   -0.32850E+02   -0.30391E+02  2132   0.293E+01
RMM:   8    -0.404272263240E+03   -0.21387E+02   -0.18367E+02  2132   0.233E+01
RMM:   9    -0.435989398876E+03   -0.31717E+02   -0.30664E+02  6103   0.173E+01
RMM:  10    -0.441297646448E+03   -0.53082E+01   -0.63295E+01  6399   0.539E+00
RMM:  11    -0.442515465716E+03   -0.12178E+01   -0.11222E+01  6228   0.174E+00
RMM:  12    -0.442889646457E+03   -0.37418E+00   -0.27301E+00  6364   0.601E-01    0.134E+02
RMM:  13    -0.425535364825E+03    0.17354E+02   -0.80788E+01  4672   0.119E+01    0.712E+01
RMM:  14    -0.498213545408E+03   -0.72678E+02   -0.53469E+02  5428   0.231E+01    0.305E+01
RMM:  15    -0.415151044561E+03    0.83063E+02   -0.19794E+02  5079   0.163E+01    0.653E+00
RMM:  16    -0.414057612132E+03    0.10934E+01   -0.39079E+01  6070   0.605E+00    0.429E+00
RMM:  17    -0.413220982303E+03    0.83663E+00   -0.23692E+00  5359   0.184E+00    0.246E+00
RMM:  18    -0.413167558020E+03    0.53424E-01   -0.86168E-01  5961   0.955E-01    0.162E+00
RMM:  19    -0.413167442604E+03    0.11542E-03   -0.28360E-01  5736   0.562E-01    0.855E-01
RMM:  20    -0.413182575102E+03   -0.15132E-01   -0.21343E-01  5444   0.497E-01    0.531E-01
RMM:  21    -0.413167560701E+03    0.15014E-01   -0.32109E-02  5021   0.219E-01    0.254E-01
RMM:  22    -0.413165690997E+03    0.18697E-02   -0.15106E-02  6035   0.104E-01    0.141E-01
RMM:  23    -0.413164306195E+03    0.13848E-02   -0.55461E-03  5896   0.679E-02    0.801E-02
RMM:  24    -0.413162968653E+03    0.13375E-02   -0.16323E-03  5360   0.394E-02    0.378E-02
RMM:  25    -0.413162696934E+03    0.27172E-03   -0.83455E-04  5660   0.244E-02    0.296E-02
RMM:  26    -0.413162918404E+03   -0.22147E-03   -0.67985E-04  5828   0.268E-02    0.324E-02
RMM:  27    -0.413163343476E+03   -0.42507E-03   -0.18610E-04  4558   0.193E-02    0.173E-02
RMM:  28    -0.413163839362E+03   -0.49589E-03   -0.20426E-04  5264   0.201E-02    0.849E-03
RMM:  29    -0.413164189334E+03   -0.34997E-03   -0.94584E-05  4323   0.140E-02    0.473E-03
RMM:  30    -0.413164400493E+03   -0.21116E-03   -0.69605E-05  3981   0.964E-03    0.304E-03
RMM:  31    -0.413164513152E+03   -0.11266E-03   -0.47705E-05  3131   0.630E-03    0.251E-03
RMM:  32    -0.413164536520E+03   -0.23368E-04   -0.19650E-05  2944   0.297E-03    0.124E-03
RMM:  33    -0.413164545167E+03   -0.86468E-05   -0.79638E-06  2759   0.204E-03    0.453E-04
RMM:  34    -0.413164547242E+03   -0.20755E-05   -0.42785E-06  2644   0.160E-03    0.801E-04
RMM:  35    -0.413164546185E+03    0.10576E-05   -0.20712E-06  2140   0.109E-03    0.703E-04
RMM:  36    -0.413164545131E+03    0.10542E-05   -0.11747E-06  1464   0.829E-04    0.372E-04
RMM:  37    -0.413164545512E+03   -0.38110E-06   -0.36386E-06  1766   0.804E-04
    1 T=    61. E= -.41286677E+03 F= -.41316455E+03 E0= -.41314204E+03  EK= 0.29777E+00 SP= 0.00E+00 SK= 0.00E+00
       N       E                     dE             d eps       ncg     rms          rms(c)
RMM:   1    -0.413160207438E+03    0.43377E-02   -0.97352E+00  3987   0.645E-01    0.885E-01
RMM:   2    -0.413167656574E+03   -0.74491E-02   -0.11917E-01  4029   0.937E-02    0.648E-01
RMM:   3    -0.413164545852E+03    0.31107E-02   -0.12147E-02  4808   0.453E-02    0.108E-01
RMM:   4    -0.413188755599E+03   -0.24210E-01   -0.25458E-02  5200   0.133E-01    0.650E-01
RMM:   5    -0.413164105885E+03    0.24650E-01   -0.12053E-02  4840   0.109E-01    0.446E-02
RMM:   6    -0.413164277492E+03   -0.17161E-03   -0.21236E-03  5790   0.445E-02    0.301E-02
RMM:   7    -0.413164283429E+03   -0.59368E-05   -0.36982E-04  5677   0.176E-02    0.189E-02
RMM:   8    -0.413164282427E+03    0.10019E-05   -0.53662E-05  5041   0.786E-03    0.859E-03
RMM:   9    -0.413164284720E+03   -0.22935E-05   -0.11239E-05  3660   0.364E-03    0.656E-03
RMM:  10    -0.413164289627E+03   -0.49064E-05   -0.18814E-06  2578   0.207E-03    0.412E-03
RMM:  11    -0.413164294832E+03   -0.52055E-05   -0.13382E-06  2527   0.175E-03    0.210E-03
RMM:  12    -0.413164301804E+03   -0.69717E-05   -0.16050E-06  2563   0.179E-03    0.886E-04
RMM:  13    -0.413164303404E+03   -0.15997E-05   -0.53237E-07  2297   0.116E-03    0.554E-04
RMM:  14    -0.413164303506E+03   -0.10191E-06   -0.28560E-07  1741   0.800E-04
    2 T=    61. E= -.41286665E+03 F= -.41316430E+03 E0= -.41314180E+03  EK= 0.29765E+00 SP= 0.00E+00 SK= 0.00E+00
       N       E                     dE             d eps       ncg     rms          rms(c)
RMM:   1    -0.413161299229E+03    0.30042E-02   -0.97409E+00  4194   0.649E-01    0.906E-01
RMM:   2    -0.413167725846E+03   -0.64266E-02   -0.11730E-01  4060   0.930E-02    0.642E-01
RMM:   3    -0.413165081992E+03    0.26439E-02   -0.11836E-02  4744   0.445E-02    0.117E-01
RMM:   4    -0.413187386535E+03   -0.22305E-01   -0.22865E-02  5173   0.126E-01    0.625E-01
RMM:   5    -0.413164711066E+03    0.22675E-01   -0.11087E-02  4836   0.104E-01    0.448E-02
RMM:   6    -0.413164864302E+03   -0.15324E-03   -0.19496E-03  5775   0.427E-02    0.309E-02
RMM:   7    -0.413164857225E+03    0.70770E-05   -0.35638E-04  5623   0.178E-02    0.188E-02
RMM:   8    -0.413164849618E+03    0.76079E-05   -0.48694E-05  4997   0.775E-03    0.863E-03
RMM:   9    -0.413164848549E+03    0.10688E-05   -0.98191E-06  3541   0.350E-03    0.662E-03
RMM:  10    -0.413164848858E+03   -0.30968E-06   -0.16520E-06  2548   0.210E-03
    3 T=    61. E= -.41286702E+03 F= -.41316485E+03 E0= -.41314235E+03  EK= 0.29783E+00 SP= 0.00E+00 SK= 0.00E+00
       N       E                     dE             d eps       ncg     rms          rms(c)
RMM:   1    -0.413160780523E+03    0.40680E-02   -0.96638E+00  4223   0.651E-01    0.890E-01
RMM:   2    -0.413167376531E+03   -0.65960E-02   -0.11674E-01  4185   0.917E-02    0.636E-01
RMM:   3    -0.413167882008E+03   -0.50548E-03   -0.13955E-02  5126   0.683E-02    0.261E-01
RMM:   4    -0.413196648840E+03   -0.28767E-01   -0.42700E-02  5132   0.175E-01    0.739E-01
RMM:   5    -0.413164514610E+03    0.32134E-01   -0.13519E-02  4751   0.122E-01    0.598E-02
RMM:   6    -0.413164591671E+03   -0.77061E-04   -0.24158E-03  5567   0.491E-02    0.301E-02
RMM:   7    -0.413164614058E+03   -0.22386E-04   -0.39983E-04  6040   0.173E-02    0.185E-02
RMM:   8    -0.413164612311E+03    0.17469E-05   -0.69543E-05  5253   0.909E-03    0.805E-03
RMM:   9    -0.413164610181E+03    0.21296E-05   -0.98785E-06  3516   0.373E-03    0.409E-03
RMM:  10    -0.413164611409E+03   -0.12280E-05   -0.22844E-06  2594   0.224E-03    0.277E-03
RMM:  11    -0.413164612948E+03   -0.15390E-05   -0.14072E-06  2530   0.186E-03    0.154E-03
RMM:  12    -0.413164613881E+03   -0.93337E-06   -0.80523E-07  2500   0.144E-03
    4 T=    61. E= -.41286679E+03 F= -.41316461E+03 E0= -.41314213E+03  EK= 0.29783E+00 SP= 0.00E+00 SK= 0.00E+00
       N       E                     dE             d eps       ncg     rms          rms(c)
RMM:   1    -0.413160750209E+03    0.38627E-02   -0.97178E+00  4235   0.657E-01    0.883E-01
RMM:   2    -0.413167880737E+03   -0.71305E-02   -0.11908E-01  4064   0.902E-02    0.646E-01
RMM:   3    -0.413165184020E+03    0.26967E-02   -0.12186E-02  4946   0.439E-02    0.119E-01
RMM:   4    -0.413195255816E+03   -0.30072E-01   -0.31497E-02  5143   0.148E-01    0.724E-01
RMM:   5    -0.413164580513E+03    0.30675E-01   -0.14689E-02  4815   0.120E-01    0.470E-02
RMM:   6    -0.413164771170E+03   -0.19066E-03   -0.24742E-03  5764   0.487E-02    0.305E-02
RMM:   7    -0.413164779457E+03   -0.82865E-05   -0.39973E-04  5770   0.182E-02    0.194E-02
RMM:   8    -0.413164778378E+03    0.10793E-05   -0.61574E-05  5058   0.832E-03    0.904E-03
RMM:   9    -0.413164779367E+03   -0.98987E-06   -0.12096E-05  3819   0.393E-03    0.668E-03
RMM:  10    -0.413164783378E+03   -0.40105E-05   -0.17890E-06  2566   0.210E-03    0.424E-03
RMM:  11    -0.413164787653E+03   -0.42755E-05   -0.12952E-06  2531   0.178E-03    0.218E-03
RMM:  12    -0.413164793347E+03   -0.56933E-05   -0.17279E-06  2586   0.187E-03    0.961E-04
RMM:  13    -0.413164794394E+03   -0.10469E-05   -0.47417E-07  2310   0.119E-03    0.615E-04
RMM:  14    -0.413164794431E+03   -0.37748E-07   -0.20938E-07  1734   0.806E-04
    5 T=    61. E= -.41286680E+03 F= -.41316479E+03 E0= -.41314232E+03  EK= 0.29799E+00 SP= 0.00E+00 SK= 0.00E+00
       N       E                     dE             d eps       ncg     rms          rms(c)
RMM:   1    -0.413161603126E+03    0.31913E-02   -0.97421E+00  4247   0.663E-01    0.902E-01
RMM:   2    -0.413167941284E+03   -0.63382E-02   -0.11770E-01  4088   0.918E-02    0.644E-01
RMM:   3    -0.413165450639E+03    0.24906E-02   -0.11916E-02  4788   0.429E-02    0.113E-01
RMM:   4    -0.413187301615E+03   -0.21851E-01   -0.22349E-02  5149   0.125E-01    0.619E-01
RMM:   5    -0.413165083522E+03    0.22218E-01   -0.10840E-02  4824   0.103E-01    0.443E-02
RMM:   6    -0.413165232735E+03   -0.14921E-03   -0.18985E-03  5769   0.421E-02    0.304E-02
RMM:   7    -0.413165227271E+03    0.54632E-05   -0.34584E-04  5615   0.175E-02    0.186E-02
RMM:   8    -0.413165219863E+03    0.74087E-05   -0.47766E-05  4947   0.767E-03    0.859E-03
RMM:   9    -0.413165218702E+03    0.11603E-05   -0.94162E-06  3503   0.347E-03    0.660E-03
RMM:  10    -0.413165219181E+03   -0.47900E-06   -0.15859E-06  2544   0.209E-03
    6 T=    61. E= -.41286691E+03 F= -.41316522E+03 E0= -.41314276E+03  EK= 0.29831E+00 SP= 0.00E+00 SK= 0.00E+00
       N       E                     dE             d eps       ncg     rms          rms(c)
RMM:   1    -0.413161247650E+03    0.39711E-02   -0.96908E+00  4256   0.665E-01    0.897E-01
RMM:   2    -0.413167730124E+03   -0.64825E-02   -0.11703E-01  4224   0.917E-02    0.637E-01
RMM:   3    -0.413168102918E+03   -0.37279E-03   -0.13926E-02  5111   0.662E-02    0.256E-01
RMM:   4    -0.413197585205E+03   -0.29482E-01   -0.42963E-02  5120   0.175E-01    0.745E-01
RMM:   5    -0.413164902318E+03    0.32683E-01   -0.13908E-02  4755   0.123E-01    0.595E-02
RMM:   6    -0.413164989458E+03   -0.87140E-04   -0.24625E-03  5572   0.495E-02    0.306E-02
RMM:   7    -0.413165009452E+03   -0.19994E-04   -0.40210E-04  6014   0.173E-02    0.187E-02
RMM:   8    -0.413165005789E+03    0.36629E-05   -0.69247E-05  5225   0.907E-03    0.811E-03
RMM:   9    -0.413165002253E+03    0.35356E-05   -0.98632E-06  3503   0.372E-03    0.420E-03
RMM:  10    -0.413165002160E+03    0.93249E-07   -0.23294E-06  2596   0.224E-03
    7 T=    61. E= -.41286657E+03 F= -.41316500E+03 E0= -.41314255E+03  EK= 0.29843E+00 SP= 0.00E+00 SK= 0.00E+00
       N       E                     dE             d eps       ncg     rms          rms(c)
RMM:   1    -0.413161514694E+03    0.34876E-02   -0.97021E+00  4264   0.669E-01    0.881E-01
RMM:   2    -0.413168779311E+03   -0.72646E-02   -0.11854E-01  4175   0.913E-02    0.644E-01
RMM:   3    -0.413166344731E+03    0.24346E-02   -0.12367E-02  4979   0.502E-02    0.144E-01
RMM:   4    -0.413204157500E+03   -0.37813E-01   -0.41148E-02  5139   0.169E-01    0.810E-01
RMM:   5    -0.413165354784E+03    0.38803E-01   -0.18433E-02  4808   0.135E-01    0.516E-02
RMM:   6    -0.413165563374E+03   -0.20859E-03   -0.30386E-03  5751   0.546E-02    0.317E-02
RMM:   7    -0.413165573216E+03   -0.98424E-05   -0.46605E-04  5868   0.191E-02    0.205E-02
RMM:   8    -0.413165572820E+03    0.39655E-06   -0.71913E-05  5220   0.890E-03    0.950E-03
RMM:   9    -0.413165572530E+03    0.29007E-06   -0.13775E-05  3948   0.417E-03    0.640E-03
RMM:  10    -0.413165575602E+03   -0.30723E-05   -0.22195E-06  2590   0.218E-03    0.414E-03
RMM:  11    -0.413165578408E+03   -0.28058E-05   -0.12080E-06  2525   0.172E-03    0.217E-03
RMM:  12    -0.413165582222E+03   -0.38140E-05   -0.16648E-06  2568   0.186E-03    0.867E-04
RMM:  13    -0.413165583274E+03   -0.10528E-05   -0.57504E-07  2333   0.124E-03    0.649E-04
RMM:  14    -0.413165583096E+03    0.17846E-06   -0.23498E-07  1827   0.838E-04
    8 T=    61. E= -.41286682E+03 F= -.41316558E+03 E0= -.41314315E+03  EK= 0.29876E+00 SP= 0.00E+00 SK= 0.00E+00
       N       E                     dE             d eps       ncg     rms          rms(c)
RMM:   1    -0.413161965298E+03    0.36180E-02   -0.97462E+00  4281   0.677E-01    0.897E-01
RMM:   2    -0.413168908557E+03   -0.69433E-02   -0.11829E-01  4187   0.936E-02    0.647E-01
RMM:   3    -0.413166021536E+03    0.28870E-02   -0.12045E-02  4793   0.440E-02    0.112E-01
RMM:   4    -0.413189672670E+03   -0.23651E-01   -0.24379E-02  5150   0.130E-01    0.643E-01
RMM:   5    -0.413165608394E+03    0.24064E-01   -0.11784E-02  4816   0.107E-01    0.444E-02
RMM:   6    -0.413165760020E+03   -0.15163E-03   -0.19996E-03  5779   0.433E-02    0.295E-02
RMM:   7    -0.413165759786E+03    0.23341E-06   -0.34417E-04  5647   0.175E-02    0.186E-02
RMM:   8    -0.413165752684E+03    0.71028E-05   -0.53388E-05  4960   0.801E-03    0.879E-03
RMM:   9    -0.413165751328E+03    0.13554E-05   -0.10640E-05  3678   0.371E-03    0.676E-03
RMM:  10    -0.413165752014E+03   -0.68622E-06   -0.15928E-06  2542   0.209E-03
    9 T=    61. E= -.41286680E+03 F= -.41316575E+03 E0= -.41314334E+03  EK= 0.29896E+00 SP= 0.00E+00 SK= 0.00E+00
       N       E                     dE             d eps       ncg     rms          rms(c)
RMM:   1    -0.413162343675E+03    0.34077E-02   -0.97197E+00  4294   0.679E-01    0.904E-01
RMM:   2    -0.413168677695E+03   -0.63340E-02   -0.11703E-01  4283   0.944E-02    0.639E-01
RMM:   3    -0.413169266747E+03   -0.58905E-03   -0.14312E-02  5093   0.701E-02    0.268E-01
RMM:   4    -0.413196833262E+03   -0.27567E-01   -0.42026E-02  5108   0.173E-01    0.727E-01
RMM:   5    -0.413165746666E+03    0.31087E-01   -0.13062E-02  4742   0.120E-01    0.590E-02
RMM:   6    -0.413165826054E+03   -0.79387E-04   -0.23581E-03  5566   0.481E-02    0.309E-02
RMM:   7    -0.413165838004E+03   -0.11951E-04   -0.38844E-04  5990   0.171E-02    0.188E-02
RMM:   8    -0.413165833111E+03    0.48939E-05   -0.67811E-05  5212   0.901E-03    0.810E-03
RMM:   9    -0.413165828208E+03    0.49027E-05   -0.95410E-06  3485   0.371E-03    0.416E-03
RMM:  10    -0.413165826985E+03    0.12227E-05   -0.22268E-06  2583   0.223E-03    0.280E-03
RMM:  11    -0.413165825073E+03    0.19120E-05   -0.13058E-06  2523   0.181E-03    0.149E-03
RMM:  12    -0.413165823154E+03    0.19196E-05   -0.77617E-07  2479   0.142E-03    0.534E-04
RMM:  13    -0.413165822164E+03    0.98971E-06   -0.37832E-07  2103   0.101E-03
   10 T=    61. E= -.41286666E+03 F= -.41316582E+03 E0= -.41314344E+03  EK= 0.29916E+00 SP= 0.00E+00 SK= 0.00E+00
       N       E                     dE             d eps       ncg     rms          rms(c)
RMM:   1    -0.413162659825E+03    0.31633E-02   -0.96825E+00  4289   0.685E-01    0.882E-01
RMM:   2    -0.413169647035E+03   -0.69872E-02   -0.11820E-01  4240   0.948E-02    0.642E-01
RMM:   3    -0.413167037614E+03    0.26094E-02   -0.12044E-02  4897   0.470E-02    0.125E-01
RMM:   4    -0.413198629506E+03   -0.31592E-01   -0.33328E-02  5138   0.152E-01    0.741E-01
RMM:   5    -0.413166379365E+03    0.32250E-01   -0.15596E-02  4807   0.123E-01    0.480E-02
RMM:   6    -0.413166575793E+03   -0.19643E-03   -0.26235E-03  5766   0.496E-02    0.314E-02
RMM:   7    -0.413166578383E+03   -0.25897E-05   -0.41722E-04  5735   0.185E-02    0.200E-02
RMM:   8    -0.413166572888E+03    0.54951E-05   -0.62992E-05  5076   0.846E-03    0.936E-03
RMM:   9    -0.413166571203E+03    0.16845E-05   -0.12592E-05  3857   0.401E-03    0.688E-03
RMM:  10    -0.413166572246E+03   -0.10433E-05   -0.18150E-06  2561   0.212E-03    0.437E-03
RMM:  11    -0.413166573461E+03   -0.12150E-05   -0.13054E-06  2522   0.180E-03    0.223E-03
RMM:  12    -0.413166574938E+03   -0.14766E-05   -0.16455E-06  2569   0.188E-03    0.938E-04
RMM:  13    -0.413166575134E+03   -0.19655E-06   -0.47902E-07  2317   0.121E-03
   11 T=    61. E= -.41286696E+03 F= -.41316658E+03 E0= -.41314422E+03  EK= 0.29962E+00 SP= 0.00E+00 SK= 0.00E+00
       N       E                     dE             d eps       ncg     rms          rms(c)
RMM:   1    -0.413162711477E+03    0.38635E-02   -0.97539E+00  4295   0.687E-01    0.893E-01
RMM:   2    -0.413169608509E+03   -0.68970E-02   -0.11897E-01  4231   0.942E-02    0.649E-01
RMM:   3    -0.413166812677E+03    0.27958E-02   -0.12190E-02  4804   0.441E-02    0.111E-01
RMM:   4    -0.413191660194E+03   -0.24848E-01   -0.25767E-02  5137   0.133E-01    0.659E-01
RMM:   5    -0.413166366336E+03    0.25294E-01   -0.12291E-02  4812   0.109E-01    0.448E-02
RMM:   6    -0.413166531670E+03   -0.16533E-03   -0.21430E-03  5806   0.439E-02    0.290E-02
RMM:   7    -0.413166536698E+03   -0.50279E-05   -0.33607E-04  5690   0.173E-02    0.185E-02
RMM:   8    -0.413166530000E+03    0.66981E-05   -0.59627E-05  4977   0.823E-03    0.917E-03
RMM:   9    -0.413166528349E+03    0.16512E-05   -0.11619E-05  3838   0.390E-03    0.703E-03
RMM:  10    -0.413166529166E+03   -0.81721E-06   -0.16259E-06  2547   0.211E-03
   12 T=    61. E= -.41286662E+03 F= -.41316653E+03 E0= -.41314420E+03  EK= 0.29991E+00 SP= 0.00E+00 SK= 0.00E+00
       N       E                     dE             d eps       ncg     rms          rms(c)
RMM:   1    -0.413163921422E+03    0.26069E-02   -0.97525E+00  4298   0.698E-01    0.909E-01
RMM:   2    -0.413169609845E+03   -0.56884E-02   -0.11743E-01  4303   0.898E-02    0.642E-01
RMM:   3    -0.413171147239E+03   -0.15374E-02   -0.14994E-02  5124   0.713E-02    0.288E-01
RMM:   4    -0.413195836073E+03   -0.24689E-01   -0.41233E-02  5106   0.171E-01    0.701E-01
RMM:   5    -0.413167016359E+03    0.28820E-01   -0.11802E-02  4720   0.115E-01    0.588E-02
RMM:   6    -0.413167081125E+03   -0.64767E-04   -0.21994E-03  5526   0.462E-02    0.309E-02
RMM:   7    -0.413167093328E+03   -0.12202E-04   -0.37304E-04  5993   0.171E-02    0.188E-02
RMM:   8    -0.413167086377E+03    0.69511E-05   -0.66173E-05  5186   0.902E-03    0.804E-03
RMM:   9    -0.413167080573E+03    0.58037E-05   -0.90116E-06  3446   0.369E-03    0.409E-03
RMM:  10    -0.413167078651E+03    0.19223E-05   -0.20667E-06  2568   0.219E-03    0.272E-03
RMM:  11    -0.413167075625E+03    0.30260E-05   -0.12931E-06  2514   0.181E-03    0.150E-03
RMM:  12    -0.413167072852E+03    0.27728E-05   -0.73560E-07  2468   0.141E-03    0.541E-04
RMM:  13    -0.413167071354E+03    0.14979E-05   -0.36530E-07  2076   0.100E-03    0.321E-04
RMM:  14    -0.413167069946E+03    0.14077E-05   -0.22182E-07  1642   0.803E-04    0.221E-04
RMM:  15    -0.413167067808E+03    0.21384E-05   -0.19910E-07  1479   0.746E-04    0.124E-04
RMM:  16    -0.413167065678E+03    0.21297E-05   -0.16510E-07  1372   0.699E-04    0.123E-04
RMM:  17    -0.413167063524E+03    0.21540E-05   -0.14055E-07  1342   0.667E-04    0.659E-05
RMM:  18    -0.413167062204E+03    0.13200E-05   -0.80896E-08  1025   0.590E-04    0.305E-05
RMM:  19    -0.413167061543E+03    0.66152E-06   -0.44248E-08   869   0.553E-04
   13 T=    61. E= -.41286665E+03 F= -.41316706E+03 E0= -.41314476E+03  EK= 0.30041E+00 SP= 0.00E+00 SK= 0.00E+00
       N       E                     dE             d eps       ncg     rms          rms(c)
RMM:   1    -0.413163768799E+03    0.32934E-02   -0.96829E+00  4293   0.695E-01    0.886E-01
RMM:   2    -0.413170614630E+03   -0.68458E-02   -0.11805E-01  4239   0.909E-02    0.640E-01
RMM:   3    -0.413168292624E+03    0.23220E-02   -0.12044E-02  4945   0.451E-02    0.133E-01
RMM:   4    -0.413201995216E+03   -0.33703E-01   -0.35999E-02  5138   0.157E-01    0.765E-01
RMM:   5    -0.413167556336E+03    0.34439E-01   -0.16702E-02  4801   0.127E-01    0.493E-02
RMM:   6    -0.413167753456E+03   -0.19712E-03   -0.27675E-03  5755   0.511E-02    0.323E-02
RMM:   7    -0.413167753197E+03    0.25953E-06   -0.43296E-04  5720   0.189E-02    0.204E-02
RMM:   8    -0.413167746701E+03    0.64962E-05   -0.66494E-05  5132   0.869E-03    0.956E-03
RMM:   9    -0.413167743574E+03    0.31270E-05   -0.13479E-05  3959   0.414E-03    0.685E-03
RMM:  10    -0.413167743351E+03    0.22219E-06   -0.19060E-06  2564   0.214E-03
   14 T=    61. E= -.41286679E+03 F= -.41316774E+03 E0= -.41314547E+03  EK= 0.30095E+00 SP= 0.00E+00 SK= 0.00E+00
       N       E                     dE             d eps       ncg     rms          rms(c)
RMM:   1    -0.413163983615E+03    0.37600E-02   -0.97692E+00  4304   0.702E-01    0.890E-01
RMM:   2    -0.413171133234E+03   -0.71496E-02   -0.11966E-01  4318   0.934E-02    0.651E-01
RMM:   3    -0.413173118200E+03   -0.19850E-02   -0.16304E-02  5128   0.786E-02    0.320E-01
RMM:   4    -0.413195922129E+03   -0.22804E-01   -0.43258E-02  5095   0.176E-01    0.692E-01
RMM:   5    -0.413167716805E+03    0.28205E-01   -0.11111E-02  4697   0.113E-01    0.584E-02
RMM:   6    -0.413167763669E+03   -0.46864E-04   -0.20957E-03  5503   0.449E-02    0.290E-02
RMM:   7    -0.413167782787E+03   -0.19118E-04   -0.35023E-04  5987   0.169E-02    0.181E-02
RMM:   8    -0.413167782259E+03    0.52850E-06   -0.67011E-05  5176   0.907E-03    0.774E-03
RMM:   9    -0.413167780253E+03    0.20057E-05   -0.91159E-06  3445   0.376E-03    0.384E-03
RMM:  10    -0.413167781284E+03   -0.10310E-05   -0.18871E-06  2557   0.212E-03    0.253E-03
RMM:  11    -0.413167782805E+03   -0.15215E-05   -0.14597E-06  2533   0.186E-03    0.154E-03
RMM:  12    -0.413167783243E+03   -0.43799E-06   -0.70689E-07  2465   0.139E-03
   15 T=    61. E= -.41286648E+03 F= -.41316778E+03 E0= -.41314555E+03  EK= 0.30130E+00 SP= 0.00E+00 SK= 0.00E+00
       N       E                     dE             d eps       ncg     rms          rms(c)
RMM:   1    -0.413165450357E+03    0.23324E-02   -0.97763E+00  4300   0.703E-01    0.911E-01
RMM:   2    -0.413171847106E+03   -0.63967E-02   -0.11812E-01  4253   0.953E-02    0.645E-01
RMM:   3    -0.413169443305E+03    0.24038E-02   -0.12348E-02  4930   0.484E-02    0.142E-01
RMM:   4    -0.413204787747E+03   -0.35344E-01   -0.37880E-02  5134   0.161E-01    0.783E-01
RMM:   5    -0.413168649747E+03    0.36138E-01   -0.17499E-02  4796   0.130E-01    0.507E-02
RMM:   6    -0.413168857360E+03   -0.20761E-03   -0.29296E-03  5765   0.526E-02    0.336E-02
RMM:   7    -0.413168851137E+03    0.62226E-05   -0.45306E-04  5744   0.196E-02    0.213E-02
RMM:   8    -0.413168840112E+03    0.11025E-04   -0.71974E-05  5158   0.904E-03    0.103E-02
RMM:   9    -0.413168833946E+03    0.61659E-05   -0.14062E-05  4028   0.425E-03    0.728E-03
RMM:  10    -0.413168830194E+03    0.37519E-05   -0.20524E-06  2578   0.222E-03    0.458E-03
RMM:  11    -0.413168827077E+03    0.31171E-05   -0.12762E-06  2520   0.179E-03    0.247E-03
RMM:  12    -0.413168821882E+03    0.51949E-05   -0.17796E-06  2583   0.199E-03    0.101E-03
RMM:  13    -0.413168819746E+03    0.21359E-05   -0.54700E-07  2371   0.130E-03    0.738E-04
RMM:  14    -0.413168819862E+03   -0.11568E-06   -0.23732E-07  1900   0.855E-04
   16 T=    61. E= -.41286684E+03 F= -.41316882E+03 E0= -.41314662E+03  EK= 0.30198E+00 SP= 0.00E+00 SK= 0.00E+00
       N       E                     dE             d eps       ncg     rms          rms(c)
RMM:   1    -0.413165567744E+03    0.32520E-02   -0.97017E+00  4298   0.706E-01    0.892E-01
RMM:   2    -0.413172376814E+03   -0.68091E-02   -0.11791E-01  4254   0.958E-02    0.640E-01
RMM:   3    -0.413169662899E+03    0.27139E-02   -0.11932E-02  4808   0.474E-02    0.124E-01
RMM:   4    -0.413198381317E+03   -0.28718E-01   -0.30042E-02  5127   0.144E-01    0.707E-01
RMM:   5    -0.413169101563E+03    0.29280E-01   -0.14290E-02  4802   0.117E-01    0.471E-02
RMM:   6    -0.413169281115E+03   -0.17955E-03   -0.24432E-03  5791   0.472E-02    0.312E-02
RMM:   7    -0.413169278246E+03    0.28691E-05   -0.38341E-04  5671   0.183E-02    0.197E-02
RMM:   8    -0.413169267813E+03    0.10434E-04   -0.63829E-05  5033   0.859E-03    0.963E-03
RMM:   9    -0.413169263205E+03    0.46072E-05   -0.12732E-05  3948   0.406E-03    0.721E-03
RMM:  10    -0.413169260821E+03    0.23840E-05   -0.17751E-06  2559   0.213E-03    0.454E-03
RMM:  11    -0.413169258448E+03    0.23737E-05   -0.13707E-06  2521   0.187E-03    0.227E-03
RMM:  12    -0.413169255132E+03    0.33158E-05   -0.14726E-06  2531   0.185E-03    0.902E-04
RMM:  13    -0.413169254122E+03    0.10099E-05   -0.45384E-07  2294   0.119E-03    0.577E-04
RMM:  14    -0.413169253904E+03    0.21818E-06   -0.21139E-07  1795   0.813E-04
   17 T=    62. E= -.41286674E+03 F= -.41316925E+03 E0= -.41314709E+03  EK= 0.30251E+00 SP= 0.00E+00 SK= 0.00E+00
       N       E                     dE             d eps       ncg     rms          rms(c)
RMM:   1    -0.413166027400E+03    0.32267E-02   -0.97784E+00  4297   0.714E-01    0.889E-01
RMM:   2    -0.413173091924E+03   -0.70645E-02   -0.12019E-01  4266   0.952E-02    0.652E-01
RMM:   3    -0.413170166696E+03    0.29252E-02   -0.12592E-02  4855   0.479E-02    0.118E-01
RMM:   4    -0.413200276100E+03   -0.30109E-01   -0.31684E-02  5125   0.147E-01    0.724E-01
RMM:   5    -0.413169565379E+03    0.30711E-01   -0.15029E-02  4802   0.120E-01    0.473E-02
RMM:   6    -0.413169747213E+03   -0.18183E-03   -0.24745E-03  5783   0.482E-02    0.310E-02
RMM:   7    -0.413169750259E+03   -0.30462E-05   -0.39886E-04  5675   0.183E-02    0.195E-02
RMM:   8    -0.413169744514E+03    0.57451E-05   -0.62305E-05  5085   0.846E-03    0.921E-03
RMM:   9    -0.413169742119E+03    0.23953E-05   -0.12617E-05  3850   0.401E-03    0.676E-03
RMM:  10    -0.413169742451E+03   -0.33178E-06   -0.17457E-06  2554   0.209E-03
   18 T=    62. E= -.41286661E+03 F= -.41316974E+03 E0= -.41314762E+03  EK= 0.30314E+00 SP= 0.00E+00 SK= 0.00E+00
       N       E                     dE             d eps       ncg     rms          rms(c)
RMM:   1    -0.413167771636E+03    0.19705E-02   -0.98047E+00  4300   0.724E-01    0.910E-01
RMM:   2    -0.413173820631E+03   -0.60490E-02   -0.11905E-01  4314   0.932E-02    0.649E-01
RMM:   3    -0.413175191569E+03   -0.13709E-02   -0.15321E-02  5115   0.733E-02    0.291E-01
RMM:   4    -0.413200736546E+03   -0.25545E-01   -0.42808E-02  5091   0.175E-01    0.712E-01
RMM:   5    -0.413170890093E+03    0.29846E-01   -0.12189E-02  4709   0.117E-01    0.586E-02
RMM:   6    -0.413170960035E+03   -0.69942E-04   -0.22605E-03  5547   0.466E-02    0.308E-02
RMM:   7    -0.413170972134E+03   -0.12099E-04   -0.37560E-04  5981   0.171E-02    0.191E-02
RMM:   8    -0.413170965093E+03    0.70406E-05   -0.68739E-05  5181   0.912E-03    0.818E-03
RMM:   9    -0.413170958362E+03    0.67312E-05   -0.95210E-06  3502   0.378E-03    0.410E-03
RMM:  10    -0.413170955908E+03    0.24537E-05   -0.21099E-06  2580   0.219E-03    0.272E-03
RMM:  11    -0.413170952088E+03    0.38207E-05   -0.12246E-06  2504   0.179E-03    0.149E-03
RMM:  12    -0.413170948566E+03    0.35216E-05   -0.69092E-07  2460   0.139E-03    0.519E-04
RMM:  13    -0.413170946702E+03    0.18635E-05   -0.34268E-07  2075   0.987E-04    0.317E-04
RMM:  14    -0.413170945062E+03    0.16408E-05   -0.19701E-07  1599   0.785E-04    0.221E-04
RMM:  15    -0.413170942307E+03    0.27544E-05   -0.16051E-07  1374   0.723E-04    0.115E-04
RMM:  16    -0.413170939764E+03    0.25433E-05   -0.12979E-07  1321   0.683E-04    0.121E-04
RMM:  17    -0.413170937025E+03    0.27387E-05   -0.11369E-07  1301   0.659E-04    0.679E-05
RMM:  18    -0.413170935282E+03    0.17436E-05   -0.68775E-08  1049   0.592E-04    0.296E-05
RMM:  19    -0.413170934402E+03    0.87952E-06   -0.39750E-08   895   0.553E-04
   19 T=    62. E= -.41286689E+03 F= -.41317093E+03 E0= -.41314886E+03  EK= 0.30404E+00 SP= 0.00E+00 SK= 0.00E+00
       N       E                     dE             d eps       ncg     rms          rms(c)
RMM:   1    -0.413167817516E+03    0.31178E-02   -0.97479E+00  4296   0.717E-01    0.900E-01
RMM:   2    -0.413173978688E+03   -0.61612E-02   -0.11850E-01  4264   0.919E-02    0.642E-01
RMM:   3    -0.413171963163E+03    0.20155E-02   -0.12294E-02  4962   0.468E-02    0.144E-01
RMM:   4    -0.413208113869E+03   -0.36151E-01   -0.39137E-02  5133   0.164E-01    0.792E-01
RMM:   5    -0.413171112465E+03    0.37001E-01   -0.17958E-02  4793   0.132E-01    0.512E-02
RMM:   6    -0.413171315676E+03   -0.20321E-03   -0.29590E-03  5755   0.530E-02    0.337E-02
RMM:   7    -0.413171310584E+03    0.50922E-05   -0.46189E-04  5717   0.197E-02    0.213E-02
RMM:   8    -0.413171300227E+03    0.10357E-04   -0.73531E-05  5185   0.914E-03    0.102E-02
RMM:   9    -0.413171293973E+03    0.62544E-05   -0.14572E-05  4078   0.431E-03    0.712E-03
RMM:  10    -0.413171290407E+03    0.35651E-05   -0.20542E-06  2569   0.220E-03    0.451E-03
RMM:  11    -0.413171287477E+03    0.29305E-05   -0.11965E-06  2514   0.174E-03    0.246E-03
RMM:  12    -0.413171282665E+03    0.48116E-05   -0.15814E-06  2540   0.193E-03    0.974E-04
RMM:  13    -0.413171280538E+03    0.21269E-05   -0.53994E-07  2356   0.129E-03    0.747E-04
RMM:  14    -0.413171280699E+03   -0.16057E-06   -0.23975E-07  1894   0.858E-04
   20 T=    62. E= -.41286657E+03 F= -.41317128E+03 E0= -.41314925E+03  EK= 0.30471E+00 SP= 0.00E+00 SK= 0.00E+00
       N       E                     dE             d eps       ncg     rms          rms(c)
RMM:   1    -0.413168656566E+03    0.26240E-02   -0.97949E+00  4295   0.728E-01    0.889E-01
RMM:   2    -0.413175766295E+03   -0.71097E-02   -0.12097E-01  4274   0.935E-02    0.652E-01
RMM:   3    -0.413172796075E+03    0.29702E-02   -0.12577E-02  4857   0.457E-02    0.113E-01
RMM:   4    -0.413200018341E+03   -0.27222E-01   -0.28484E-02  5128   0.140E-01    0.689E-01
RMM:   5    -0.413172282562E+03    0.27736E-01   -0.13633E-02  4803   0.114E-01    0.457E-02
RMM:   6    -0.413172447158E+03   -0.16460E-03   -0.22733E-03  5822   0.455E-02    0.291E-02
RMM:   7    -0.413172451619E+03   -0.44612E-05   -0.33621E-04  5672   0.175E-02    0.180E-02
RMM:   8    -0.413172445132E+03    0.64870E-05   -0.66037E-05  5017   0.851E-03    0.961E-03
RMM:   9    -0.413172441129E+03    0.40029E-05   -0.12866E-05  4013   0.413E-03    0.712E-03
RMM:  10    -0.413172440457E+03    0.67279E-06   -0.17137E-06  2554   0.210E-03
   21 T=    62. E= -.41286679E+03 F= -.41317244E+03 E0= -.41315045E+03  EK= 0.30565E+00 SP= 0.00E+00 SK= 0.00E+00
       N       E                     dE             d eps       ncg     rms          rms(c)
RMM:   1    -0.413173256283E+03   -0.81515E-03   -0.98725E+00  4295   0.770E-01    0.907E-01
RMM:   2    -0.413176679370E+03   -0.34231E-02   -0.12443E-01  4314   0.991E-02    0.653E-01
RMM:   3    -0.413177249850E+03   -0.57048E-03   -0.14862E-02  5092   0.714E-02    0.277E-01
RMM:   4    -0.413207222627E+03   -0.29973E-01   -0.46084E-02  5106   0.181E-01    0.756E-01
RMM:   5    -0.413173388191E+03    0.33834E-01   -0.14300E-02  4728   0.125E-01    0.586E-02
RMM:   6    -0.413173486680E+03   -0.98489E-04   -0.25619E-03  5608   0.499E-02    0.311E-02
RMM:   7    -0.413173496784E+03   -0.10104E-04   -0.40117E-04  5950   0.179E-02    0.195E-02
RMM:   8    -0.413173491056E+03    0.57282E-05   -0.72770E-05  5179   0.938E-03    0.845E-03
RMM:   9    -0.413173484479E+03    0.65772E-05   -0.11405E-05  3675   0.401E-03    0.429E-03
RMM:  10    -0.413173482057E+03    0.24214E-05   -0.23726E-06  2605   0.226E-03    0.294E-03
RMM:  11    -0.413173478636E+03    0.34209E-05   -0.11912E-06  2506   0.176E-03    0.153E-03
RMM:  12    -0.413173474931E+03    0.37052E-05   -0.72601E-07  2463   0.140E-03    0.502E-04
RMM:  13    -0.413173472881E+03    0.20502E-05   -0.35899E-07  2103   0.100E-03    0.306E-04
RMM:  14    -0.413173471418E+03    0.14631E-05   -0.19938E-07  1604   0.784E-04    0.215E-04
RMM:  15    -0.413173468924E+03    0.24940E-05   -0.14567E-07  1319   0.710E-04    0.107E-04
RMM:  16    -0.413173466066E+03    0.28576E-05   -0.12860E-07  1330   0.691E-04    0.130E-04
RMM:  17    -0.413173463834E+03    0.22320E-05   -0.91039E-08  1193   0.638E-04    0.777E-05
RMM:  18    -0.413173461315E+03    0.25195E-05   -0.78396E-08  1160   0.616E-04    0.371E-05
RMM:  19    -0.413173460370E+03    0.94494E-06   -0.38143E-08   878   0.556E-04
   22 T=    62. E= -.41286685E+03 F= -.41317346E+03 E0= -.41315152E+03  EK= 0.30661E+00 SP= 0.00E+00 SK= 0.00E+00
       N       E                     dE             d eps       ncg     rms          rms(c)
RMM:   1    -0.413170816687E+03    0.26446E-02   -0.98129E+00  4293   0.731E-01    0.910E-01
RMM:   2    -0.413177298016E+03   -0.64813E-02   -0.11949E-01  4280   0.967E-02    0.646E-01
RMM:   3    -0.413174711134E+03    0.25869E-02   -0.12438E-02  4887   0.491E-02    0.138E-01
RMM:   4    -0.413208434916E+03   -0.33724E-01   -0.35858E-02  5133   0.157E-01    0.765E-01
RMM:   5    -0.413174008629E+03    0.34426E-01   -0.16853E-02  4794   0.127E-01    0.500E-02
RMM:   6    -0.413174199995E+03   -0.19137E-03   -0.28113E-03  5793   0.513E-02    0.333E-02
RMM:   7    -0.413174195462E+03    0.45329E-05   -0.42872E-04  5691   0.194E-02    0.208E-02
RMM:   8    -0.413174184418E+03    0.11044E-04   -0.74906E-05  5137   0.919E-03    0.104E-02
RMM:   9    -0.413174177139E+03    0.72790E-05   -0.14781E-05  4117   0.437E-03    0.743E-03
RMM:  10    -0.413174172455E+03    0.46840E-05   -0.20230E-06  2573   0.221E-03    0.468E-03
RMM:  11    -0.413174168371E+03    0.40840E-05   -0.12733E-06  2512   0.181E-03    0.252E-03
RMM:  12    -0.413174161923E+03    0.64487E-05   -0.16766E-06  2548   0.199E-03    0.102E-03
RMM:  13    -0.413174159541E+03    0.23821E-05   -0.52597E-07  2353   0.130E-03    0.709E-04
RMM:  14    -0.413174159554E+03   -0.13479E-07   -0.23882E-07  1905   0.860E-04
   23 T=    63. E= -.41286665E+03 F= -.41317416E+03 E0= -.41315226E+03  EK= 0.30751E+00 SP= 0.00E+00 SK= 0.00E+00
       N       E                     dE             d eps       ncg     rms          rms(c)
RMM:   1    -0.413173090099E+03    0.10694E-02   -0.98292E+00  4296   0.758E-01    0.891E-01
RMM:   2    -0.413179359762E+03   -0.62697E-02   -0.12388E-01  4284   0.101E-01    0.652E-01
RMM:   3    -0.413176005383E+03    0.33544E-02   -0.12328E-02  4747   0.468E-02    0.110E-01
RMM:   4    -0.413198687889E+03   -0.22683E-01   -0.23373E-02  5131   0.127E-01    0.630E-01
RMM:   5    -0.413175632755E+03    0.23055E-01   -0.11462E-02  4806   0.104E-01    0.442E-02
RMM:   6    -0.413175756903E+03   -0.12415E-03   -0.19324E-03  5817   0.415E-02    0.276E-02
RMM:   7    -0.413175759438E+03   -0.25354E-05   -0.26358E-04  5655   0.159E-02    0.154E-02
RMM:   8    -0.413175754834E+03    0.46042E-05   -0.57386E-05  4982   0.787E-03    0.943E-03
RMM:   9    -0.413175750090E+03    0.47436E-05   -0.11400E-05  3912   0.394E-03    0.699E-03
RMM:  10    -0.413175748469E+03    0.16210E-05   -0.16194E-06  2548   0.212E-03    0.433E-03
RMM:  11    -0.413175746440E+03    0.20295E-05   -0.15023E-06  2522   0.198E-03    0.212E-03
RMM:  12    -0.413175743845E+03    0.25945E-05   -0.12177E-06  2503   0.173E-03    0.797E-04
RMM:  13    -0.413175743047E+03    0.79790E-06   -0.40226E-07  2198   0.111E-03
   24 T=    63. E= -.41286697E+03 F= -.41317574E+03 E0= -.41315390E+03  EK= 0.30877E+00 SP= 0.00E+00 SK= 0.00E+00
       N       E                     dE             d eps       ncg     rms          rms(c)
RMM:   1    -0.413174187780E+03    0.15561E-02   -0.99054E+00  4297   0.765E-01    0.906E-01
RMM:   2    -0.413180282881E+03   -0.60951E-02   -0.12411E-01  4281   0.102E-01    0.658E-01
RMM:   3    -0.413176905655E+03    0.33772E-02   -0.12550E-02  4696   0.475E-02    0.108E-01
RMM:   4    -0.413197113188E+03   -0.20208E-01   -0.20684E-02  5134   0.120E-01    0.595E-01
RMM:   5    -0.413176599243E+03    0.20514E-01   -0.10178E-02  4812   0.982E-02    0.433E-02
RMM:   6    -0.413176698207E+03   -0.98963E-04   -0.17208E-03  5827   0.389E-02    0.261E-02
RMM:   7    -0.413176696563E+03    0.16439E-05   -0.20083E-04  5620   0.141E-02    0.125E-02
RMM:   8    -0.413176692325E+03    0.42378E-05   -0.37150E-05  4826   0.630E-03    0.856E-03
RMM:   9    -0.413176688669E+03    0.36558E-05   -0.84819E-06  3504   0.331E-03    0.655E-03
RMM:  10    -0.413176686786E+03    0.18829E-05   -0.15046E-06  2537   0.208E-03    0.416E-03
RMM:  11    -0.413176683533E+03    0.32536E-05   -0.18046E-06  2561   0.209E-03    0.201E-03
RMM:  12    -0.413176679641E+03    0.38913E-05   -0.11206E-06  2481   0.172E-03    0.966E-04
RMM:  13    -0.413176678882E+03    0.75973E-06   -0.35593E-07  2204   0.108E-03
   25 T=    63. E= -.41286674E+03 F= -.41317668E+03 E0= -.41315488E+03  EK= 0.30994E+00 SP= 0.00E+00 SK= 0.00E+00
       N       E                     dE             d eps       ncg     rms          rms(c)
RMM:   1    -0.413175217553E+03    0.14621E-02   -0.99041E+00  4295   0.755E-01    0.919E-01
RMM:   2    -0.413181095195E+03   -0.58776E-02   -0.12083E-01  4281   0.990E-02    0.651E-01
RMM:   3    -0.413178327385E+03    0.27678E-02   -0.12491E-02  4698   0.466E-02    0.116E-01
RMM:   4    -0.413198555800E+03   -0.20228E-01   -0.20730E-02  5135   0.120E-01    0.596E-01
RMM:   5    -0.413178018380E+03    0.20537E-01   -0.10292E-02  4814   0.984E-02    0.446E-02
RMM:   6    -0.413178113071E+03   -0.94690E-04   -0.17425E-03  5816   0.392E-02    0.273E-02
RMM:   7    -0.413178104819E+03    0.82517E-05   -0.22857E-04  5655   0.153E-02    0.147E-02
RMM:   8    -0.413178097024E+03    0.77952E-05   -0.49725E-05  4949   0.738E-03    0.931E-03
RMM:   9    -0.413178090555E+03    0.64686E-05   -0.97640E-06  3723   0.369E-03    0.702E-03
RMM:  10    -0.413178085517E+03    0.50379E-05   -0.15081E-06  2528   0.211E-03    0.424E-03
RMM:  11    -0.413178079074E+03    0.64429E-05   -0.14826E-06  2526   0.197E-03    0.211E-03
RMM:  12    -0.413178071577E+03    0.74977E-05   -0.10743E-06  2475   0.167E-03    0.772E-04
RMM:  13    -0.413178069434E+03    0.21424E-05   -0.38542E-07  2191   0.109E-03    0.525E-04
RMM:  14    -0.413178068529E+03    0.90515E-06   -0.18510E-07  1662   0.780E-04
   26 T=    63. E= -.41286674E+03 F= -.41317807E+03 E0= -.41315632E+03  EK= 0.31132E+00 SP= 0.00E+00 SK= 0.00E+00
       N       E                     dE             d eps       ncg     rms          rms(c)
RMM:   1    -0.413182854207E+03   -0.47848E-02   -0.99392E+00  4295   0.818E-01    0.895E-01
RMM:   2    -0.413183003278E+03   -0.14907E-03   -0.13485E-01  4281   0.104E-01    0.654E-01
RMM:   3    -0.413180105881E+03    0.28974E-02   -0.11742E-02  4747   0.459E-02    0.125E-01
RMM:   4    -0.413202856667E+03   -0.22751E-01   -0.23454E-02  5145   0.127E-01    0.631E-01
RMM:   5    -0.413179755453E+03    0.23101E-01   -0.11599E-02  4815   0.105E-01    0.448E-02
RMM:   6    -0.413179869672E+03   -0.11422E-03   -0.19123E-03  5822   0.417E-02    0.290E-02
RMM:   7    -0.413179866766E+03    0.29059E-05   -0.30470E-04  5644   0.170E-02    0.174E-02
RMM:   8    -0.413179857748E+03    0.90178E-05   -0.59246E-05  4975   0.827E-03    0.922E-03
RMM:   9    -0.413179852558E+03    0.51894E-05   -0.11392E-05  3837   0.395E-03    0.681E-03
RMM:  10    -0.413179849664E+03    0.28950E-05   -0.15903E-06  2541   0.210E-03    0.419E-03
RMM:  11    -0.413179846381E+03    0.32830E-05   -0.12813E-06  2511   0.185E-03    0.205E-03
RMM:  12    -0.413179842363E+03    0.40176E-05   -0.11530E-06  2490   0.169E-03    0.819E-04
RMM:  13    -0.413179841001E+03    0.13621E-05   -0.40033E-07  2211   0.111E-03    0.514E-04
RMM:  14    -0.413179840445E+03    0.55584E-06   -0.19305E-07  1710   0.788E-04
   27 T=    64. E= -.41286691E+03 F= -.41317984E+03 E0= -.41315814E+03  EK= 0.31293E+00 SP= 0.00E+00 SK= 0.00E+00
       N       E                     dE             d eps       ncg     rms          rms(c)
RMM:   1    -0.413178208313E+03    0.16327E-02   -0.99893E+00  4298   0.779E-01    0.907E-01
RMM:   2    -0.413184282812E+03   -0.60745E-02   -0.12466E-01  4278   0.102E-01    0.663E-01
RMM:   3    -0.413181299331E+03    0.29835E-02   -0.13080E-02  4758   0.495E-02    0.108E-01
RMM:   4    -0.413204043464E+03   -0.22744E-01   -0.23385E-02  5138   0.127E-01    0.631E-01
RMM:   5    -0.413180937168E+03    0.23106E-01   -0.11547E-02  4808   0.104E-01    0.448E-02
RMM:   6    -0.413181052619E+03   -0.11545E-03   -0.19177E-03  5827   0.418E-02    0.285E-02
RMM:   7    -0.413181052018E+03    0.60113E-06   -0.29440E-04  5648   0.167E-02    0.168E-02
RMM:   8    -0.413181044836E+03    0.71823E-05   -0.60573E-05  4976   0.825E-03    0.933E-03
RMM:   9    -0.413181039786E+03    0.50500E-05   -0.11510E-05  3906   0.400E-03    0.684E-03
RMM:  10    -0.413181037532E+03    0.22530E-05   -0.16036E-06  2540   0.210E-03    0.419E-03
RMM:  11    -0.413181035022E+03    0.25105E-05   -0.13156E-06  2515   0.186E-03    0.208E-03
RMM:  12    -0.413181031746E+03    0.32762E-05   -0.11752E-06  2493   0.170E-03    0.788E-04
RMM:  13    -0.413181030521E+03    0.12249E-05   -0.40020E-07  2207   0.111E-03    0.510E-04
RMM:  14    -0.413181030065E+03    0.45558E-06   -0.19273E-07  1684   0.785E-04
   28 T=    64. E= -.41286663E+03 F= -.41318103E+03 E0= -.41315938E+03  EK= 0.31440E+00 SP= 0.00E+00 SK= 0.00E+00
       N       E                     dE             d eps       ncg     rms          rms(c)
RMM:   1    -0.413179915930E+03    0.11146E-02   -0.10008E+01  4291   0.769E-01    0.927E-01
RMM:   2    -0.413186062323E+03   -0.61464E-02   -0.12305E-01  4269   0.103E-01    0.658E-01
RMM:   3    -0.413183143397E+03    0.29189E-02   -0.12924E-02  4572   0.496E-02    0.110E-01
RMM:   4    -0.413196179766E+03   -0.13036E-01   -0.13295E-02  5146   0.965E-02    0.480E-01
RMM:   5    -0.413182994707E+03    0.13185E-01   -0.67063E-03  4829   0.792E-02    0.421E-02
RMM:   6    -0.413183038532E+03   -0.43825E-04   -0.11688E-03  5838   0.319E-02    0.245E-02
RMM:   7    -0.413183032438E+03    0.60944E-05   -0.15333E-04  5508   0.131E-02    0.120E-02
RMM:   8    -0.413183023265E+03    0.91726E-05   -0.24162E-05  4533   0.534E-03    0.749E-03
RMM:   9    -0.413183020920E+03    0.23452E-05   -0.60510E-06  3174   0.296E-03    0.604E-03
RMM:  10    -0.413183015347E+03    0.55724E-05   -0.12357E-06  2503   0.200E-03    0.335E-03
RMM:  11    -0.413183008962E+03    0.63855E-05   -0.11922E-06  2504   0.178E-03    0.171E-03
RMM:  12    -0.413183002633E+03    0.63290E-05   -0.78356E-07  2426   0.144E-03    0.831E-04
RMM:  13    -0.413183000681E+03    0.19521E-05   -0.30336E-07  2110   0.968E-04    0.477E-04
RMM:  14    -0.413182999359E+03    0.13223E-05   -0.14075E-07  1460   0.712E-04    0.370E-04
RMM:  15    -0.413182994610E+03    0.47483E-05   -0.16031E-07  1858   0.764E-04    0.302E-04
RMM:  16    -0.413182991957E+03    0.26530E-05   -0.65173E-08  1126   0.606E-04    0.250E-04
RMM:  17    -0.413182988980E+03    0.29774E-05   -0.44248E-08   916   0.564E-04    0.170E-04
RMM:  18    -0.413182985753E+03    0.32265E-05   -0.46363E-08   963   0.577E-04    0.341E-05
RMM:  19    -0.413182984367E+03    0.13860E-05   -0.22524E-08   807   0.559E-04    0.513E-05
RMM:  20    -0.413182984158E+03    0.20929E-06   -0.10139E-08   681   0.537E-04
   29 T=    64. E= -.41286676E+03 F= -.41318298E+03 E0= -.41316139E+03  EK= 0.31623E+00 SP= 0.00E+00 SK= 0.00E+00
       N       E                     dE             d eps       ncg     rms          rms(c)
RMM:   1    -0.413182187687E+03    0.79668E-03   -0.99772E+00  4287   0.805E-01    0.907E-01
RMM:   2    -0.413188333351E+03   -0.61457E-02   -0.12423E-01  4269   0.113E-01    0.656E-01
RMM:   3    -0.413184901220E+03    0.34321E-02   -0.12847E-02  4498   0.527E-02    0.102E-01
RMM:   4    -0.413194995199E+03   -0.10094E-01   -0.10355E-02  5144   0.854E-02    0.423E-01
RMM:   5    -0.413184812571E+03    0.10183E-01   -0.52011E-03  4828   0.697E-02    0.404E-02
RMM:   6    -0.413184849827E+03   -0.37256E-04   -0.94385E-04  5825   0.288E-02    0.247E-02
RMM:   7    -0.413184851274E+03   -0.14472E-05   -0.22660E-04  5411   0.151E-02    0.165E-02
RMM:   8    -0.413184834483E+03    0.16791E-04   -0.27178E-05  4599   0.640E-03    0.731E-03
RMM:   9    -0.413184832435E+03    0.20478E-05   -0.51455E-06  2990   0.285E-03    0.528E-03
RMM:  10    -0.413184829025E+03    0.34105E-05   -0.14934E-06  2501   0.204E-03    0.289E-03
RMM:  11    -0.413184825511E+03    0.35139E-05   -0.95836E-07  2480   0.164E-03    0.146E-03
RMM:  12    -0.413184822189E+03    0.33214E-05   -0.55904E-07  2356   0.126E-03    0.743E-04
RMM:  13    -0.413184820614E+03    0.15752E-05   -0.26043E-07  1942   0.888E-04    0.320E-04
RMM:  14    -0.413184818832E+03    0.17824E-05   -0.14410E-07  1421   0.716E-04    0.198E-04
RMM:  15    -0.413184816166E+03    0.26659E-05   -0.97046E-08  1238   0.664E-04    0.949E-05
RMM:  16    -0.413184814238E+03    0.19275E-05   -0.58696E-08   996   0.617E-04    0.723E-05
RMM:  17    -0.413184812534E+03    0.17041E-05   -0.39583E-08   893   0.593E-04    0.459E-05
RMM:  18    -0.413184809590E+03    0.29441E-05   -0.58625E-08  1144   0.621E-04    0.399E-05
RMM:  19    -0.413184809014E+03    0.57608E-06   -0.20536E-08   759   0.545E-04
   30 T=    65. E= -.41286671E+03 F= -.41318481E+03 E0= -.41316326E+03  EK= 0.31809E+00 SP= 0.00E+00 SK= 0.00E+00
       N       E                     dE             d eps       ncg     rms          rms(c)
RMM:   1    -0.413190545596E+03   -0.57360E-02   -0.10163E+01  4292   0.837E-01    0.909E-01
RMM:   2    -0.413190591513E+03   -0.45918E-04   -0.13265E-01  4285   0.119E-01    0.669E-01
RMM:   3    -0.413186473619E+03    0.41179E-02   -0.13216E-02  4376   0.584E-02    0.962E-02
RMM:   4    -0.413192292091E+03   -0.58185E-02   -0.61707E-03  5160   0.660E-02    0.322E-01
RMM:   5    -0.413186447438E+03    0.58447E-02   -0.29970E-03  4822   0.532E-02    0.387E-02
RMM:   6    -0.413186478949E+03   -0.31511E-04   -0.65741E-04  5760   0.244E-02    0.259E-02
RMM:   7    -0.413186471450E+03    0.74988E-05   -0.22913E-04  5262   0.152E-02    0.162E-02
RMM:   8    -0.413186459942E+03    0.11508E-04   -0.18978E-05  4266   0.564E-03    0.682E-03
RMM:   9    -0.413186458826E+03    0.11165E-05   -0.29763E-06  2713   0.231E-03    0.445E-03
RMM:  10    -0.413186457140E+03    0.16861E-05   -0.12725E-06  2486   0.181E-03    0.238E-03
RMM:  11    -0.413186455581E+03    0.15582E-05   -0.79317E-07  2430   0.144E-03    0.112E-03
RMM:  12    -0.413186453951E+03    0.16309E-05   -0.42734E-07  2187   0.108E-03    0.503E-04
RMM:  13    -0.413186452763E+03    0.11880E-05   -0.21958E-07  1699   0.813E-04    0.269E-04
RMM:  14    -0.413186451281E+03    0.14814E-05   -0.12048E-07  1224   0.686E-04    0.174E-04
RMM:  15    -0.413186449010E+03    0.22712E-05   -0.94274E-08  1136   0.656E-04    0.838E-05
RMM:  16    -0.413186447810E+03    0.11995E-05   -0.51718E-08   949   0.603E-04    0.623E-05
RMM:  17    -0.413186445786E+03    0.20245E-05   -0.50834E-08   980   0.599E-04    0.382E-05
RMM:  18    -0.413186444207E+03    0.15794E-05   -0.38482E-08   947   0.579E-04    0.318E-05
RMM:  19    -0.413186443641E+03    0.56599E-06   -0.13967E-08   683   0.537E-04
   31 T=    65. E= -.41286656E+03 F= -.41318644E+03 E0= -.41316495E+03  EK= 0.31989E+00 SP= 0.00E+00 SK= 0.00E+00
       N       E                     dE             d eps       ncg     rms          rms(c)
RMM:   1    -0.413186332351E+03    0.11186E-03   -0.10133E+01  4286   0.811E-01    0.932E-01
RMM:   2    -0.413192691565E+03   -0.63592E-02   -0.12671E-01  4282   0.124E-01    0.666E-01
RMM:   3    -0.413189016288E+03    0.36753E-02   -0.13314E-02  4265   0.565E-02    0.100E-01
RMM:   4    -0.413189259424E+03   -0.24314E-03   -0.89699E-04  4991   0.217E-02    0.664E-02
RMM:   5    -0.413189102032E+03    0.15739E-03   -0.19098E-04  4823   0.137E-02    0.441E-02
RMM:   6    -0.413189098733E+03    0.32991E-05   -0.33582E-04  5266   0.181E-02    0.292E-02
RMM:   7    -0.413189055112E+03    0.43621E-04   -0.18105E-04  4809   0.140E-02    0.151E-02
RMM:   8    -0.413189051374E+03    0.37380E-05   -0.21317E-05  4332   0.503E-03    0.557E-03
RMM:   9    -0.413189050001E+03    0.13728E-05   -0.32077E-06  2463   0.210E-03    0.205E-03
RMM:  10    -0.413189041891E+03    0.81096E-05   -0.97411E-07  2373   0.152E-03    0.829E-04
RMM:  11    -0.413189037952E+03    0.39397E-05   -0.23401E-07  1727   0.840E-04    0.464E-04
RMM:  12    -0.413189034538E+03    0.34137E-05   -0.15763E-07  1535   0.739E-04    0.257E-04
RMM:  13    -0.413189030418E+03    0.41200E-05   -0.13113E-07  1414   0.696E-04    0.153E-04
RMM:  14    -0.413189025277E+03    0.51416E-05   -0.95406E-08  1119   0.645E-04    0.137E-04
RMM:  15    -0.413189022910E+03    0.23662E-05   -0.38334E-08   744   0.566E-04    0.839E-05
RMM:  16    -0.413189019339E+03    0.35716E-05   -0.44489E-08   859   0.585E-04    0.459E-05
RMM:  17    -0.413189018538E+03    0.80029E-06   -0.16272E-08   610   0.533E-04
   32 T=    66. E= -.41286702E+03 F= -.41318902E+03 E0= -.41316757E+03  EK= 0.32200E+00 SP= 0.00E+00 SK= 0.00E+00
       N       E                     dE             d eps       ncg     rms          rms(c)
RMM:   1    -0.413188055902E+03    0.96344E-03   -0.10100E+01  4283   0.821E-01    0.920E-01
RMM:   2    -0.413194460876E+03   -0.64050E-02   -0.12751E-01  4272   0.123E-01    0.662E-01
RMM:   3    -0.413190997560E+03    0.34633E-02   -0.13105E-02  4289   0.571E-02    0.998E-02
RMM:   4    -0.413192019404E+03   -0.10218E-02   -0.15897E-03  5146   0.325E-02    0.136E-01
RMM:   5    -0.413191064111E+03    0.95529E-03   -0.54800E-04  4803   0.235E-02    0.393E-02
RMM:   6    -0.413191075935E+03   -0.11825E-04   -0.37342E-04  5441   0.191E-02    0.290E-02
RMM:   7    -0.413191039567E+03    0.36369E-04   -0.19813E-04  4926   0.141E-02    0.167E-02
RMM:   8    -0.413191033335E+03    0.62320E-05   -0.21741E-05  4444   0.522E-03    0.630E-03
RMM:   9    -0.413191031874E+03    0.14610E-05   -0.31847E-06  2518   0.216E-03    0.282E-03
RMM:  10    -0.413191026475E+03    0.53991E-05   -0.90044E-07  2388   0.151E-03    0.145E-03
RMM:  11    -0.413191022294E+03    0.41804E-05   -0.43177E-07  2122   0.103E-03    0.590E-04
RMM:  12    -0.413191018110E+03    0.41843E-05   -0.24604E-07  1684   0.832E-04    0.226E-04
RMM:  13    -0.413191014556E+03    0.35540E-05   -0.13472E-07  1243   0.698E-04    0.185E-04
RMM:  14    -0.413191011168E+03    0.33878E-05   -0.77784E-08   929   0.631E-04    0.125E-04
RMM:  15    -0.413191006266E+03    0.49028E-05   -0.84246E-08  1072   0.643E-04    0.680E-05
RMM:  16    -0.413191003477E+03    0.27889E-05   -0.48413E-08   854   0.586E-04    0.714E-05
RMM:  17    -0.413191001933E+03    0.15435E-05   -0.24706E-08   642   0.547E-04    0.270E-05
RMM:  18    -0.413191001153E+03    0.77997E-06   -0.18969E-08   615   0.534E-04
   33 T=    66. E= -.41286691E+03 F= -.41319100E+03 E0= -.41316960E+03  EK= 0.32409E+00 SP= 0.00E+00 SK= 0.00E+00
       N       E                     dE             d eps       ncg     rms          rms(c)
RMM:   1    -0.413195325692E+03   -0.43238E-02   -0.10252E+01  4298   0.877E-01    0.914E-01
RMM:   2    -0.413197027243E+03   -0.17016E-02   -0.13554E-01  4279   0.131E-01    0.674E-01
RMM:   3    -0.413193454034E+03    0.35732E-02   -0.13433E-02  4256   0.619E-02    0.929E-02
RMM:   4    -0.413193854682E+03   -0.40065E-03   -0.10437E-03  5072   0.240E-02    0.849E-02
RMM:   5    -0.413193518685E+03    0.33600E-03   -0.23907E-04  4772   0.155E-02    0.397E-02
RMM:   6    -0.413193530492E+03   -0.11806E-04   -0.32379E-04  5343   0.174E-02    0.276E-02
RMM:   7    -0.413193498871E+03    0.31620E-04   -0.18515E-04  4835   0.135E-02    0.175E-02
RMM:   8    -0.413193493623E+03    0.52488E-05   -0.22739E-05  4140   0.481E-03    0.558E-03
RMM:   9    -0.413193493186E+03    0.43704E-06   -0.27235E-06  2419   0.205E-03
   34 T=    66. E= -.41286695E+03 F= -.41319349E+03 E0= -.41317214E+03  EK= 0.32654E+00 SP= 0.00E+00 SK= 0.00E+00
       N       E                     dE             d eps       ncg     rms          rms(c)
RMM:   1    -0.413197649287E+03   -0.41557E-02   -0.10321E+01  4303   0.915E-01    0.937E-01
RMM:   2    -0.413199552832E+03   -0.19035E-02   -0.13571E-01  4276   0.132E-01    0.675E-01
RMM:   3    -0.413196280234E+03    0.32726E-02   -0.13395E-02  4478   0.627E-02    0.112E-01
RMM:   4    -0.413206605199E+03   -0.10325E-01   -0.10590E-02  5169   0.876E-02    0.429E-01
RMM:   5    -0.413196261299E+03    0.10344E-01   -0.53064E-03  4822   0.714E-02    0.431E-02
RMM:   6    -0.413196252804E+03    0.84951E-05   -0.98342E-04  5764   0.315E-02    0.316E-02
RMM:   7    -0.413196242801E+03    0.10003E-04   -0.29455E-04  5360   0.166E-02    0.166E-02
RMM:   8    -0.413196230303E+03    0.12499E-04   -0.28726E-05  4677   0.632E-03    0.709E-03
RMM:   9    -0.413196227370E+03    0.29327E-05   -0.48272E-06  2924   0.267E-03    0.427E-03
RMM:  10    -0.413196221455E+03    0.59152E-05   -0.12249E-06  2506   0.187E-03    0.225E-03
RMM:  11    -0.413196215212E+03    0.62432E-05   -0.82563E-07  2472   0.146E-03    0.115E-03
RMM:  12    -0.413196209489E+03    0.57221E-05   -0.46556E-07  2253   0.113E-03    0.530E-04
RMM:  13    -0.413196206636E+03    0.28538E-05   -0.23004E-07  1767   0.832E-04    0.281E-04
RMM:  14    -0.413196203068E+03    0.35672E-05   -0.12903E-07  1273   0.697E-04    0.174E-04
RMM:  15    -0.413196197187E+03    0.58818E-05   -0.10783E-07  1260   0.681E-04    0.989E-05
RMM:  16    -0.413196194211E+03    0.29757E-05   -0.65818E-08  1085   0.621E-04    0.836E-05
RMM:  17    -0.413196190301E+03    0.39096E-05   -0.62694E-08  1184   0.617E-04    0.529E-05
RMM:  18    -0.413196187489E+03    0.28121E-05   -0.40434E-08  1012   0.577E-04    0.242E-05
RMM:  19    -0.413196186924E+03    0.56496E-06   -0.18611E-08   732   0.525E-04
   35 T=    67. E= -.41286704E+03 F= -.41319619E+03 E0= -.41317488E+03  EK= 0.32915E+00 SP= 0.00E+00 SK= 0.00E+00
       N       E                     dE             d eps       ncg     rms          rms(c)
RMM:   1    -0.413195805646E+03    0.38184E-03   -0.10282E+01  4302   0.880E-01    0.936E-01
RMM:   2    -0.413201462454E+03   -0.56568E-02   -0.13229E-01  4254   0.131E-01    0.670E-01
RMM:   3    -0.413198335392E+03    0.31271E-02   -0.13442E-02  4409   0.622E-02    0.110E-01
RMM:   4    -0.413203255555E+03   -0.49202E-02   -0.53485E-03  5169   0.618E-02    0.298E-01
RMM:   5    -0.413198360335E+03    0.48952E-02   -0.25508E-03  4821   0.496E-02    0.410E-02
RMM:   6    -0.413198367650E+03   -0.73152E-05   -0.62661E-04  5665   0.252E-02    0.300E-02
RMM:   7    -0.413198345348E+03    0.22303E-04   -0.25619E-04  5152   0.160E-02    0.167E-02
RMM:   8    -0.413198334723E+03    0.10624E-04   -0.23574E-05  4581   0.583E-03    0.704E-03
RMM:   9    -0.413198332238E+03    0.24856E-05   -0.34104E-06  2696   0.235E-03    0.395E-03
RMM:  10    -0.413198326402E+03    0.58354E-05   -0.11522E-06  2488   0.178E-03    0.206E-03
RMM:  11    -0.413198321182E+03    0.52205E-05   -0.64177E-07  2400   0.129E-03    0.101E-03
RMM:  12    -0.413198316069E+03    0.51126E-05   -0.36980E-07  2099   0.102E-03    0.432E-04
RMM:  13    -0.413198312478E+03    0.35908E-05   -0.19674E-07  1621   0.790E-04    0.234E-04
RMM:  14    -0.413198308845E+03    0.36337E-05   -0.10363E-07  1171   0.674E-04    0.173E-04
RMM:  15    -0.413198303616E+03    0.52291E-05   -0.81966E-08  1131   0.652E-04    0.792E-05
RMM:  16    -0.413198300943E+03    0.26724E-05   -0.54032E-08  1022   0.607E-04    0.669E-05
RMM:  17    -0.413198297913E+03    0.30298E-05   -0.49534E-08  1102   0.597E-04    0.380E-05
RMM:  18    -0.413198295114E+03    0.27996E-05   -0.36207E-08  1000   0.571E-04    0.288E-05
RMM:  19    -0.413198294755E+03    0.35927E-06   -0.13307E-08   665   0.515E-04
   36 T=    68. E= -.41286671E+03 F= -.41319829E+03 E0= -.41317703E+03  EK= 0.33159E+00 SP= 0.00E+00 SK= 0.00E+00
       N       E                     dE             d eps       ncg     rms          rms(c)
RMM:   1    -0.413208393755E+03   -0.10099E-01   -0.10448E+01  4304   0.980E-01    0.921E-01
RMM:   2    -0.413205253856E+03    0.31399E-02   -0.15279E-01  4254   0.139E-01    0.681E-01
RMM:   3    -0.413201357416E+03    0.38964E-02   -0.12568E-02  4561   0.596E-02    0.133E-01
RMM:   4    -0.413218916529E+03   -0.17559E-01   -0.17848E-02  5154   0.113E-01    0.556E-01
RMM:   5    -0.413201242963E+03    0.17674E-01   -0.89369E-03  4809   0.924E-02    0.448E-02
RMM:   6    -0.413201254902E+03   -0.11939E-04   -0.15544E-03  5829   0.376E-02    0.288E-02
RMM:   7    -0.413201267381E+03   -0.12479E-04   -0.30567E-04  5509   0.169E-02    0.182E-02
RMM:   8    -0.413201250832E+03    0.16549E-04   -0.50503E-05  4952   0.795E-03    0.853E-03
RMM:   9    -0.413201249769E+03    0.10633E-05   -0.98450E-06  3648   0.383E-03    0.598E-03
RMM:  10    -0.413201246793E+03    0.29757E-05   -0.15645E-06  2537   0.217E-03    0.337E-03
RMM:  11    -0.413201244252E+03    0.25408E-05   -0.97517E-07  2498   0.161E-03    0.185E-03
RMM:  12    -0.413201240096E+03    0.41560E-05   -0.10415E-06  2487   0.159E-03    0.947E-04
RMM:  13    -0.413201238066E+03    0.20303E-05   -0.38480E-07  2174   0.107E-03    0.483E-04
RMM:  14    -0.413201237236E+03    0.82983E-06   -0.17938E-07  1570   0.761E-04
   37 T=    68. E= -.41286695E+03 F= -.41320124E+03 E0= -.41318002E+03  EK= 0.33428E+00 SP= 0.00E+00 SK= 0.00E+00
       N       E                     dE             d eps       ncg     rms          rms(c)
RMM:   1    -0.413224790405E+03   -0.23552E-01   -0.10689E+01  4307   0.109E+00    0.939E-01
RMM:   2    -0.413207887847E+03    0.16903E-01   -0.16924E-01  4252   0.139E-01    0.688E-01
RMM:   3    -0.413203980387E+03    0.39075E-02   -0.12051E-02  4773   0.558E-02    0.172E-01
RMM:   4    -0.413240481986E+03   -0.36502E-01   -0.37545E-02  5155   0.162E-01    0.794E-01
RMM:   5    -0.413203509897E+03    0.36972E-01   -0.18640E-02  4793   0.133E-01    0.524E-02
RMM:   6    -0.413203598541E+03   -0.88644E-04   -0.31300E-03  5847   0.523E-02    0.333E-02
RMM:   7    -0.413203607382E+03   -0.88410E-05   -0.37386E-04  5648   0.181E-02    0.168E-02
RMM:   8    -0.413203599773E+03    0.76093E-05   -0.48146E-05  4791   0.716E-03    0.893E-03
RMM:   9    -0.413203598943E+03    0.83026E-06   -0.18084E-05  4295   0.438E-03    0.745E-03
RMM:  10    -0.413203593494E+03    0.54482E-05   -0.34404E-06  2791   0.264E-03    0.442E-03
RMM:  11    -0.413203589877E+03    0.36175E-05   -0.16382E-06  2526   0.204E-03    0.265E-03
RMM:  12    -0.413203581847E+03    0.80297E-05   -0.20007E-06  2545   0.227E-03    0.123E-03
RMM:  13    -0.413203579066E+03    0.27811E-05   -0.57903E-07  2409   0.141E-03    0.767E-04
RMM:  14    -0.413203579002E+03    0.63657E-07   -0.24520E-07  1983   0.887E-04
   38 T=    69. E= -.41286673E+03 F= -.41320358E+03 E0= -.41318240E+03  EK= 0.33685E+00 SP= 0.00E+00 SK= 0.00E+00
       N       E                     dE             d eps       ncg     rms          rms(c)
RMM:   1    -0.413205693461E+03   -0.21144E-02   -0.10494E+01  4306   0.991E-01    0.953E-01
RMM:   2    -0.413210102251E+03   -0.44088E-02   -0.13770E-01  4261   0.124E-01    0.680E-01
RMM:   3    -0.413206816300E+03    0.32860E-02   -0.14079E-02  4928   0.582E-02    0.162E-01
RMM:   4    -0.413249147007E+03   -0.42331E-01   -0.45230E-02  5131   0.177E-01    0.855E-01
RMM:   5    -0.413206004582E+03    0.43142E-01   -0.21335E-02  4792   0.143E-01    0.558E-02
RMM:   6    -0.413206114869E+03   -0.11029E-03   -0.35396E-03  5831   0.561E-02    0.347E-02
RMM:   7    -0.413206123736E+03   -0.88675E-05   -0.42480E-04  5677   0.191E-02    0.178E-02
RMM:   8    -0.413206114481E+03    0.92546E-05   -0.50773E-05  4773   0.711E-03    0.897E-03
RMM:   9    -0.413206107361E+03    0.71203E-05   -0.94091E-06  3190   0.333E-03    0.535E-03
RMM:  10    -0.413206102633E+03    0.47283E-05   -0.18718E-06  2528   0.208E-03    0.345E-03
RMM:  11    -0.413206092734E+03    0.98992E-05   -0.22840E-06  2587   0.236E-03    0.161E-03
RMM:  12    -0.413206087199E+03    0.55343E-05   -0.10293E-06  2458   0.175E-03    0.104E-03
RMM:  13    -0.413206084371E+03    0.28281E-05   -0.41099E-07  2293   0.115E-03    0.727E-04
RMM:  14    -0.413206083256E+03    0.11156E-05   -0.19227E-07  1743   0.800E-04    0.481E-04
RMM:  15    -0.413206079591E+03    0.36649E-05   -0.13684E-07  1619   0.740E-04    0.202E-04
RMM:  16    -0.413206074436E+03    0.51544E-05   -0.10699E-07  1528   0.689E-04    0.258E-04
RMM:  17    -0.413206073084E+03    0.13526E-05   -0.44057E-08   932   0.572E-04    0.199E-04
RMM:  18    -0.413206066313E+03    0.67713E-05   -0.69806E-08  1270   0.630E-04    0.114E-04
RMM:  19    -0.413206065591E+03    0.72182E-06   -0.23725E-08   811   0.539E-04
   39 T=    69. E= -.41286658E+03 F= -.41320607E+03 E0= -.41318492E+03  EK= 0.33949E+00 SP= 0.00E+00 SK= 0.00E+00
       N       E                     dE             d eps       ncg     rms          rms(c)
RMM:   1    -0.413229599890E+03   -0.23534E-01   -0.10721E+01  4312   0.117E+00    0.931E-01
RMM:   2    -0.413213531073E+03    0.16069E-01   -0.16637E-01  4268   0.136E-01    0.687E-01
RMM:   3    -0.413210527481E+03    0.30036E-02   -0.13038E-02  5015   0.627E-02    0.219E-01
RMM:   4    -0.413264665534E+03   -0.54138E-01   -0.61534E-02  5126   0.207E-01    0.967E-01
RMM:   5    -0.413208857386E+03    0.55808E-01   -0.27020E-02  4775   0.163E-01    0.617E-02
RMM:   6    -0.413209024193E+03   -0.16681E-03   -0.44712E-03  5812   0.632E-02    0.368E-02
RMM:   7    -0.413209039645E+03   -0.15452E-04   -0.57243E-04  5774   0.214E-02    0.230E-02
RMM:   8    -0.413209040546E+03   -0.90061E-06   -0.12979E-04  5260   0.114E-02    0.140E-02
RMM:   9    -0.413209028220E+03    0.12326E-04   -0.26972E-05  4658   0.609E-03    0.680E-03
RMM:  10    -0.413209024868E+03    0.33513E-05   -0.53985E-06  2978   0.299E-03    0.426E-03
RMM:  11    -0.413209022182E+03    0.26860E-05   -0.15167E-06  2508   0.203E-03    0.254E-03
RMM:  12    -0.413209016611E+03    0.55709E-05   -0.14107E-06  2500   0.197E-03    0.928E-04
RMM:  13    -0.413209013096E+03    0.35158E-05   -0.64734E-07  2415   0.139E-03    0.651E-04
RMM:  14    -0.413209012624E+03    0.47183E-06   -0.28941E-07  2057   0.945E-04
   40 T=    70. E= -.41286679E+03 F= -.41320901E+03 E0= -.41318791E+03  EK= 0.34222E+00 SP= 0.00E+00 SK= 0.00E+00
       N       E                     dE             d eps       ncg     rms          rms(c)
RMM:   1    -0.413223072268E+03   -0.14059E-01   -0.10760E+01  4310   0.114E+00    0.945E-01
RMM:   2    -0.413215780161E+03    0.72921E-02   -0.15663E-01  4269   0.139E-01    0.696E-01
RMM:   3    -0.413212971820E+03    0.28083E-02   -0.14552E-02  5028   0.660E-02    0.219E-01
RMM:   4    -0.413265340050E+03   -0.52368E-01   -0.61127E-02  5122   0.206E-01    0.953E-01
RMM:   5    -0.413211012551E+03    0.54327E-01   -0.25880E-02  4775   0.160E-01    0.612E-02
RMM:   6    -0.413211175013E+03   -0.16246E-03   -0.43566E-03  5809   0.621E-02    0.361E-02
RMM:   7    -0.413211190664E+03   -0.15651E-04   -0.53932E-04  5786   0.210E-02    0.219E-02
RMM:   8    -0.413211192155E+03   -0.14915E-05   -0.12573E-04  5251   0.110E-02    0.141E-02
RMM:   9    -0.413211178662E+03    0.13493E-04   -0.26825E-05  4683   0.606E-03    0.688E-03
RMM:  10    -0.413211174838E+03    0.38246E-05   -0.53067E-06  2969   0.303E-03    0.426E-03
RMM:  11    -0.413211171784E+03    0.30535E-05   -0.15160E-06  2503   0.206E-03    0.253E-03
RMM:  12    -0.413211165570E+03    0.62145E-05   -0.13641E-06  2497   0.195E-03    0.934E-04
RMM:  13    -0.413211161694E+03    0.38757E-05   -0.63477E-07  2416   0.138E-03    0.610E-04
RMM:  14    -0.413211160930E+03    0.76416E-06   -0.28607E-07  2056   0.936E-04
   41 T=    70. E= -.41286658E+03 F= -.41321116E+03 E0= -.41319009E+03  EK= 0.34458E+00 SP= 0.00E+00 SK= 0.00E+00
       N       E                     dE             d eps       ncg     rms          rms(c)
RMM:   1    -0.413218006580E+03   -0.68449E-02   -0.10704E+01  4312   0.116E+00    0.967E-01
RMM:   2    -0.413217835492E+03    0.17109E-03   -0.14638E-01  4300   0.133E-01    0.690E-01
RMM:   3    -0.413216855739E+03    0.97975E-03   -0.16164E-02  5071   0.738E-02    0.266E-01
RMM:   4    -0.413257887607E+03   -0.41032E-01   -0.55012E-02  5095   0.197E-01    0.863E-01
RMM:   5    -0.413213704977E+03    0.44183E-01   -0.19930E-02  4755   0.144E-01    0.608E-02
RMM:   6    -0.413213806628E+03   -0.10165E-03   -0.34842E-03  5773   0.559E-02    0.359E-02
RMM:   7    -0.413213813969E+03   -0.73412E-05   -0.47990E-04  5741   0.201E-02    0.221E-02
RMM:   8    -0.413213811143E+03    0.28258E-05   -0.13124E-04  5227   0.115E-02    0.135E-02
RMM:   9    -0.413213795328E+03    0.15815E-04   -0.22509E-05  4525   0.586E-03    0.584E-03
RMM:  10    -0.413213789383E+03    0.59451E-05   -0.50069E-06  2955   0.285E-03    0.369E-03
RMM:  11    -0.413213784040E+03    0.53431E-05   -0.12418E-06  2492   0.192E-03    0.207E-03
RMM:  12    -0.413213774740E+03    0.92995E-05   -0.93855E-07  2468   0.167E-03    0.787E-04
RMM:  13    -0.413213769082E+03    0.56583E-05   -0.44930E-07  2325   0.117E-03    0.431E-04
RMM:  14    -0.413213767437E+03    0.16453E-05   -0.22653E-07  1865   0.843E-04    0.295E-04
RMM:  15    -0.413213763531E+03    0.39061E-05   -0.12834E-07  1405   0.702E-04    0.142E-04
RMM:  16    -0.413213757906E+03    0.56248E-05   -0.94337E-08  1261   0.671E-04    0.147E-04
RMM:  17    -0.413213754890E+03    0.30155E-05   -0.59902E-08  1083   0.620E-04    0.961E-05
RMM:  18    -0.413213751019E+03    0.38710E-05   -0.57557E-08  1227   0.624E-04    0.714E-05
RMM:  19    -0.413213748107E+03    0.29124E-05   -0.38809E-08  1066   0.587E-04    0.406E-05
RMM:  20    -0.413213747508E+03    0.59884E-06   -0.20006E-08   804   0.541E-04
   42 T=    71. E= -.41286684E+03 F= -.41321375E+03 E0= -.41319271E+03  EK= 0.34691E+00 SP= 0.00E+00 SK= 0.00E+00
       N       E                     dE             d eps       ncg     rms          rms(c)
RMM:   1    -0.413245911770E+03   -0.32164E-01   -0.10923E+01  4312   0.136E+00    0.944E-01
RMM:   2    -0.413220002636E+03    0.25909E-01   -0.17147E-01  4309   0.147E-01    0.691E-01
RMM:   3    -0.413220041902E+03   -0.39266E-04   -0.15488E-02  5084   0.794E-02    0.318E-01
RMM:   4    -0.413258897317E+03   -0.38855E-01   -0.57080E-02  5097   0.202E-01    0.855E-01
RMM:   5    -0.413215738366E+03    0.43159E-01   -0.19121E-02  4739   0.143E-01    0.627E-02
RMM:   6    -0.413215815352E+03   -0.76986E-04   -0.33436E-03  5739   0.551E-02    0.359E-02
RMM:   7    -0.413215822065E+03   -0.67125E-05   -0.49640E-04  5778   0.201E-02    0.237E-02
RMM:   8    -0.413215818197E+03    0.38679E-05   -0.12989E-04  5196   0.117E-02    0.126E-02
RMM:   9    -0.413215805546E+03    0.12651E-04   -0.21632E-05  4507   0.580E-03    0.499E-03
RMM:  10    -0.413215802193E+03    0.33529E-05   -0.46172E-06  2874   0.270E-03    0.320E-03
RMM:  11    -0.413215798335E+03    0.38578E-05   -0.13097E-06  2501   0.189E-03    0.175E-03
RMM:  12    -0.413215792862E+03    0.54735E-05   -0.77537E-07  2452   0.150E-03    0.647E-04
RMM:  13    -0.413215789551E+03    0.33105E-05   -0.38751E-07  2152   0.106E-03    0.309E-04
RMM:  14    -0.413215787593E+03    0.19584E-05   -0.20832E-07  1691   0.813E-04    0.208E-04
RMM:  15    -0.413215783888E+03    0.37051E-05   -0.13583E-07  1344   0.715E-04    0.110E-04
RMM:  16    -0.413215781338E+03    0.25496E-05   -0.87880E-08  1160   0.661E-04    0.828E-05
RMM:  17    -0.413215778877E+03    0.24606E-05   -0.66570E-08  1117   0.639E-04    0.523E-05
RMM:  18    -0.413215776192E+03    0.26853E-05   -0.56210E-08  1162   0.623E-04    0.354E-05
RMM:  19    -0.413215774443E+03    0.17494E-05   -0.36387E-08   972   0.579E-04    0.250E-05
RMM:  20    -0.413215773855E+03    0.58745E-06   -0.20068E-08   791   0.549E-04
   43 T=    71. E= -.41286696E+03 F= -.41321577E+03 E0= -.41319476E+03  EK= 0.34882E+00 SP= 0.00E+00 SK= 0.00E+00
       N       E                     dE             d eps       ncg     rms          rms(c)
RMM:   1    -0.413227557166E+03   -0.11783E-01   -0.10832E+01  4312   0.131E+00    0.949E-01
RMM:   2    -0.413221539383E+03    0.60178E-02   -0.15773E-01  4300   0.158E-01    0.702E-01
RMM:   3    -0.413222495308E+03   -0.95593E-03   -0.18295E-02  5069   0.901E-02    0.337E-01
RMM:   4    -0.413256473637E+03   -0.33978E-01   -0.55514E-02  5075   0.200E-01    0.816E-01
RMM:   5    -0.413217002517E+03    0.39471E-01   -0.16606E-02  4713   0.135E-01    0.608E-02
RMM:   6    -0.413217057451E+03   -0.54934E-04   -0.30293E-03  5726   0.522E-02    0.347E-02
RMM:   7    -0.413217060928E+03   -0.34770E-05   -0.44722E-04  5750   0.196E-02    0.228E-02
RMM:   8    -0.413217059712E+03    0.12160E-05   -0.11938E-04  5169   0.113E-02    0.118E-02
RMM:   9    -0.413217049398E+03    0.10314E-04   -0.19253E-05  4407   0.556E-03    0.477E-03
RMM:  10    -0.413217046992E+03    0.24067E-05   -0.39678E-06  2795   0.258E-03    0.300E-03
RMM:  11    -0.413217044140E+03    0.28514E-05   -0.12772E-06  2500   0.185E-03    0.162E-03
RMM:  12    -0.413217039985E+03    0.41549E-05   -0.79350E-07  2443   0.148E-03    0.628E-04
RMM:  13    -0.413217037409E+03    0.25760E-05   -0.39151E-07  2101   0.105E-03    0.294E-04
RMM:  14    -0.413217035710E+03    0.16994E-05   -0.21446E-07  1618   0.806E-04    0.192E-04
RMM:  15    -0.413217032200E+03    0.35094E-05   -0.15313E-07  1340   0.728E-04    0.117E-04
RMM:  16    -0.413217030461E+03    0.17398E-05   -0.93354E-08  1131   0.660E-04    0.805E-05
RMM:  17    -0.413217028281E+03    0.21801E-05   -0.74078E-08  1132   0.646E-04    0.501E-05
RMM:  18    -0.413217026015E+03    0.22658E-05   -0.60032E-08  1116   0.624E-04    0.340E-05
RMM:  19    -0.413217024458E+03    0.15565E-05   -0.38611E-08   951   0.585E-04    0.201E-05
RMM:  20    -0.413217023846E+03    0.61213E-06   -0.22818E-08   789   0.555E-04
   44 T=    71. E= -.41286681E+03 F= -.41321702E+03 E0= -.41319603E+03  EK= 0.35021E+00 SP= 0.00E+00 SK= 0.00E+00
       N       E                     dE             d eps       ncg     rms          rms(c)
RMM:   1    -0.413252036934E+03   -0.35012E-01   -0.11051E+01  4312   0.149E+00    0.973E-01
RMM:   2    -0.413222438857E+03    0.29598E-01   -0.17385E-01  4327   0.169E-01    0.700E-01
RMM:   3    -0.413227143689E+03   -0.47048E-02   -0.20015E-02  5122   0.103E-01    0.429E-01
RMM:   4    -0.413245659228E+03   -0.18516E-01   -0.47514E-02  5056   0.188E-01    0.688E-01
RMM:   5    -0.413218474982E+03    0.27184E-01   -0.10622E-02  4663   0.115E-01    0.600E-02
RMM:   6    -0.413218464118E+03    0.10864E-04   -0.21337E-03  5623   0.444E-02    0.347E-02
RMM:   7    -0.413218461767E+03    0.23516E-05   -0.36091E-04  5637   0.182E-02    0.229E-02
RMM:   8    -0.413218454469E+03    0.72972E-05   -0.11910E-04  5085   0.115E-02    0.109E-02
RMM:   9    -0.413218441643E+03    0.12826E-04   -0.16756E-05  4350   0.556E-03    0.440E-03
RMM:  10    -0.413218437824E+03    0.38192E-05   -0.32113E-06  2751   0.237E-03    0.259E-03
RMM:  11    -0.413218432008E+03    0.58158E-05   -0.12088E-06  2483   0.182E-03    0.142E-03
RMM:  12    -0.413218425930E+03    0.60784E-05   -0.62471E-07  2434   0.137E-03    0.625E-04
RMM:  13    -0.413218422336E+03    0.35936E-05   -0.29701E-07  1919   0.939E-04    0.301E-04
RMM:  14    -0.413218419014E+03    0.33223E-05   -0.16879E-07  1487   0.746E-04    0.171E-04
RMM:  15    -0.413218414087E+03    0.49266E-05   -0.12483E-07  1302   0.700E-04    0.121E-04
RMM:  16    -0.413218411233E+03    0.28538E-05   -0.80162E-08  1134   0.646E-04    0.892E-05
RMM:  17    -0.413218406730E+03    0.45030E-05   -0.80073E-08  1335   0.657E-04    0.635E-05
RMM:  18    -0.413218404722E+03    0.20087E-05   -0.44889E-08  1015   0.577E-04    0.449E-05
RMM:  19    -0.413218403091E+03    0.16303E-05   -0.30988E-08   913   0.557E-04    0.230E-05
RMM:  20    -0.413218402806E+03    0.28543E-06   -0.16345E-08   725   0.524E-04
   45 T=    72. E= -.41286718E+03 F= -.41321840E+03 E0= -.41319743E+03  EK= 0.35122E+00 SP= 0.00E+00 SK= 0.00E+00
       N       E                     dE             d eps       ncg     rms          rms(c)
RMM:   1    -0.413261110009E+03   -0.42707E-01   -0.11039E+01  4311   0.161E+00    0.955E-01
RMM:   2    -0.413222380986E+03    0.38729E-01   -0.18570E-01  4352   0.186E-01    0.695E-01
RMM:   3    -0.413229497016E+03   -0.71160E-02   -0.21005E-02  5120   0.112E-01    0.485E-01
RMM:   4    -0.413240891865E+03   -0.11395E-01   -0.45153E-02  5041   0.184E-01    0.632E-01
RMM:   5    -0.413218410918E+03    0.22481E-01   -0.86373E-03  4620   0.108E-01    0.594E-02
RMM:   6    -0.413218371768E+03    0.39150E-04   -0.17198E-03  5503   0.405E-02    0.337E-02
RMM:   7    -0.413218367759E+03    0.40089E-05   -0.30934E-04  5620   0.171E-02    0.229E-02
RMM:   8    -0.413218359311E+03    0.84482E-05   -0.12478E-04  5075   0.116E-02    0.105E-02
RMM:   9    -0.413218346446E+03    0.12865E-04   -0.17040E-05  4361   0.566E-03    0.424E-03
RMM:  10    -0.413218343260E+03    0.31859E-05   -0.28946E-06  2724   0.227E-03    0.245E-03
RMM:  11    -0.413218337547E+03    0.57132E-05   -0.12757E-06  2491   0.182E-03    0.135E-03
RMM:  12    -0.413218332722E+03    0.48247E-05   -0.58781E-07  2438   0.133E-03    0.677E-04
RMM:  13    -0.413218329259E+03    0.34633E-05   -0.28118E-07  1838   0.908E-04    0.323E-04
RMM:  14    -0.413218325845E+03    0.34141E-05   -0.16124E-07  1392   0.728E-04    0.175E-04
RMM:  15    -0.413218321858E+03    0.39865E-05   -0.11742E-07  1249   0.682E-04    0.120E-04
RMM:  16    -0.413218319077E+03    0.27814E-05   -0.80202E-08  1142   0.639E-04    0.100E-04
RMM:  17    -0.413218315078E+03    0.39986E-05   -0.78991E-08  1297   0.647E-04    0.635E-05
RMM:  18    -0.413218312978E+03    0.21000E-05   -0.46099E-08  1035   0.575E-04    0.477E-05
RMM:  19    -0.413218311948E+03    0.10306E-05   -0.27695E-08   833   0.532E-04    0.298E-05
RMM:  20    -0.413218311425E+03    0.52274E-06   -0.17584E-08   717   0.517E-04
   46 T=    72. E= -.41286708E+03 F= -.41321831E+03 E0= -.41319736E+03  EK= 0.35123E+00 SP= 0.00E+00 SK= 0.00E+00
       N       E                     dE             d eps       ncg     rms          rms(c)
RMM:   1    -0.413239823125E+03   -0.21511E-01   -0.10851E+01  4311   0.159E+00    0.943E-01
RMM:   2    -0.413222011091E+03    0.17812E-01   -0.17866E-01  4366   0.191E-01    0.706E-01
RMM:   3    -0.413230952435E+03   -0.89413E-02   -0.23537E-02  5111   0.124E-01    0.517E-01
RMM:   4    -0.413239398742E+03   -0.84463E-02   -0.46994E-02  5028   0.189E-01    0.617E-01
RMM:   5    -0.413217622114E+03    0.21777E-01   -0.78710E-03  4600   0.106E-01    0.589E-02
RMM:   6    -0.413217572181E+03    0.49933E-04   -0.15842E-03  5453   0.391E-02    0.324E-02
RMM:   7    -0.413217571131E+03    0.10499E-05   -0.28328E-04  5624   0.165E-02    0.222E-02
RMM:   8    -0.413217565036E+03    0.60952E-05   -0.12769E-04  5087   0.117E-02    0.103E-02
RMM:   9    -0.413217553485E+03    0.11551E-04   -0.16464E-05  4320   0.561E-03    0.415E-03
RMM:  10    -0.413217551373E+03    0.21122E-05   -0.29122E-06  2715   0.226E-03    0.240E-03
RMM:  11    -0.413217547403E+03    0.39700E-05   -0.13459E-06  2504   0.184E-03    0.131E-03
RMM:  12    -0.413217544225E+03    0.31777E-05   -0.60326E-07  2431   0.134E-03    0.690E-04
RMM:  13    -0.413217541630E+03    0.25944E-05   -0.30066E-07  1825   0.926E-04    0.334E-04
RMM:  14    -0.413217539071E+03    0.25594E-05   -0.17294E-07  1392   0.741E-04    0.177E-04
RMM:  15    -0.413217536238E+03    0.28328E-05   -0.12888E-07  1280   0.692E-04    0.118E-04
RMM:  16    -0.413217534226E+03    0.20121E-05   -0.84464E-08  1122   0.636E-04    0.968E-05
RMM:  17    -0.413217531037E+03    0.31890E-05   -0.86177E-08  1256   0.652E-04    0.596E-05
RMM:  18    -0.413217529549E+03    0.14886E-05   -0.45546E-08   974   0.576E-04    0.462E-05
RMM:  19    -0.413217528808E+03    0.74086E-06   -0.26060E-08   799   0.539E-04
   47 T=    71. E= -.41286714E+03 F= -.41321753E+03 E0= -.41319659E+03  EK= 0.35039E+00 SP= 0.00E+00 SK= 0.00E+00
       N       E                     dE             d eps       ncg     rms          rms(c)
RMM:   1    -0.413243596730E+03   -0.26067E-01   -0.10824E+01  4305   0.172E+00    0.965E-01
RMM:   2    -0.413219958206E+03    0.23639E-01   -0.17541E-01  4415   0.201E-01    0.702E-01
RMM:   3    -0.413236318462E+03   -0.16360E-01   -0.29963E-02  5140   0.145E-01    0.628E-01
RMM:   4    -0.413229093275E+03    0.72252E-02   -0.42668E-02  4986   0.184E-01    0.490E-01
RMM:   5    -0.413215884859E+03    0.13208E-01   -0.47508E-03  4531   0.908E-02    0.580E-02
RMM:   6    -0.413215779764E+03    0.10509E-03   -0.76084E-04  4934   0.305E-02    0.308E-02
RMM:   7    -0.413215770419E+03    0.93448E-05   -0.17083E-04  5774   0.127E-02    0.127E-02
RMM:   8    -0.413215769295E+03    0.11242E-05   -0.64538E-05  5241   0.841E-03    0.929E-03
RMM:   9    -0.413215759331E+03    0.99642E-05   -0.16418E-05  4352   0.484E-03    0.455E-03
RMM:  10    -0.413215757081E+03    0.22495E-05   -0.20493E-06  2547   0.232E-03    0.235E-03
RMM:  11    -0.413215751212E+03    0.58692E-05   -0.17206E-06  2514   0.205E-03    0.148E-03
RMM:  12    -0.413215747304E+03    0.39083E-05   -0.60763E-07  2383   0.141E-03    0.871E-04
RMM:  13    -0.413215743384E+03    0.39196E-05   -0.27923E-07  1892   0.952E-04    0.476E-04
RMM:  14    -0.413215738680E+03    0.47036E-05   -0.18199E-07  1657   0.769E-04    0.344E-04
RMM:  15    -0.413215734364E+03    0.43164E-05   -0.10455E-07  1074   0.615E-04    0.162E-04
RMM:  16    -0.413215732027E+03    0.23366E-05   -0.66340E-08   964   0.577E-04    0.119E-04
RMM:  17    -0.413215729238E+03    0.27896E-05   -0.58422E-08   994   0.581E-04    0.901E-05
RMM:  18    -0.413215726706E+03    0.25322E-05   -0.45577E-08   966   0.577E-04    0.575E-05
RMM:  19    -0.413215725571E+03    0.11346E-05   -0.24000E-08   747   0.527E-04    0.414E-05
RMM:  20    -0.413215724703E+03    0.86784E-06   -0.21119E-08   714   0.513E-04
   48 T=    71. E= -.41286733E+03 F= -.41321572E+03 E0= -.41319479E+03  EK= 0.34839E+00 SP= 0.00E+00 SK= 0.00E+00
       N       E                     dE             d eps       ncg     rms          rms(c)
RMM:   1    -0.413244838771E+03   -0.29113E-01   -0.10681E+01  4305   0.185E+00    0.956E-01
RMM:   2    -0.413215841814E+03    0.28997E-01   -0.17686E-01  4478   0.213E-01    0.692E-01
RMM:   3    -0.413239660971E+03   -0.23819E-01   -0.35800E-02  5153   0.163E-01    0.724E-01
RMM:   4    -0.413220738238E+03    0.18923E-01   -0.41567E-02  4958   0.185E-01    0.411E-01
RMM:   5    -0.413212001703E+03    0.87365E-02   -0.41862E-03  4594   0.880E-02    0.633E-02
RMM:   6    -0.413211829457E+03    0.17225E-03   -0.46383E-04  4694   0.288E-02    0.332E-02
RMM:   7    -0.413211841152E+03   -0.11695E-04   -0.30789E-04  5755   0.183E-02    0.244E-02
RMM:   8    -0.413211805985E+03    0.35167E-04   -0.10487E-04  5019   0.117E-02    0.930E-03
RMM:   9    -0.413211799731E+03    0.62541E-05   -0.20001E-05  4912   0.570E-03    0.484E-03
RMM:  10    -0.413211795651E+03    0.40802E-05   -0.23799E-06  2632   0.243E-03    0.259E-03
RMM:  11    -0.413211789661E+03    0.59893E-05   -0.14865E-06  2504   0.199E-03    0.184E-03
RMM:  12    -0.413211785948E+03    0.37136E-05   -0.45035E-07  2402   0.126E-03    0.962E-04
RMM:  13    -0.413211781478E+03    0.44693E-05   -0.26802E-07  1994   0.890E-04    0.475E-04
RMM:  14    -0.413211776041E+03    0.54373E-05   -0.22598E-07  1806   0.807E-04    0.383E-04
RMM:  15    -0.413211771407E+03    0.46336E-05   -0.12203E-07  1184   0.652E-04    0.155E-04
RMM:  16    -0.413211768887E+03    0.25202E-05   -0.71373E-08  1045   0.601E-04    0.920E-05
RMM:  17    -0.413211765276E+03    0.36115E-05   -0.75865E-08  1207   0.625E-04    0.747E-05
[...]
RMM:   2    -0.413372276949E+03    0.14292E-01   -0.34211E-01  5430   0.568E-01    0.509E-01
RMM:   3    -0.413393727934E+03   -0.21451E-01   -0.44256E-02  5501   0.231E-01    0.706E-01
RMM:   4    -0.413374005624E+03    0.19722E-01   -0.20625E-02  5099   0.163E-01    0.310E-01
RMM:   5    -0.413373651472E+03    0.35415E-03   -0.13849E-02  5074   0.154E-01    0.151E-01
RMM:   6    -0.413373048662E+03    0.60281E-03   -0.34010E-03  5107   0.753E-02    0.872E-02
RMM:   7    -0.413372859417E+03    0.18925E-03   -0.70674E-04  4936   0.366E-02    0.474E-02
RMM:   8    -0.413372833195E+03    0.26223E-04   -0.46139E-04  5226   0.268E-02    0.232E-02
RMM:   9    -0.413372833631E+03   -0.43621E-06   -0.12297E-04  5620   0.133E-02    0.160E-02
RMM:  10    -0.413372830306E+03    0.33252E-05   -0.42408E-05  5264   0.806E-03    0.650E-03
RMM:  11    -0.413372831507E+03   -0.12016E-05   -0.11449E-05  4007   0.412E-03    0.483E-03
RMM:  12    -0.413372830801E+03    0.70567E-06   -0.34851E-06  2854   0.298E-03
  139 T=   110. E= -.41283329E+03 F= -.41337283E+03 E0= -.41335245E+03  EK= 0.53954E+00 SP= 0.00E+00 SK= 0.00E+00
       N       E                     dE             d eps       ncg     rms          rms(c)
RMM:   1    -0.413654767517E+03   -0.28194E+00   -0.16285E+01  4285   0.736E+00    0.116E+00
RMM:   2    -0.413595081867E+03    0.59686E-01   -0.58349E-01  5424   0.807E-01    0.971E-01
RMM:   3    -0.413643881239E+03   -0.48799E-01   -0.11955E-01  5423   0.376E-01    0.126E+00
RMM:   4    -0.413586219834E+03    0.57661E-01   -0.62651E-02  5078   0.292E-01    0.524E-01
RMM:   5    -0.413585075949E+03    0.11439E-02   -0.33301E-02  4996   0.239E-01    0.242E-01
RMM:   6    -0.413583743207E+03    0.13327E-02   -0.15581E-02  5231   0.150E-01    0.158E-01
RMM:   7    -0.413582773512E+03    0.96970E-03   -0.19609E-03  4655   0.647E-02    0.773E-02
RMM:   8    -0.413582737602E+03    0.35910E-04   -0.90738E-04  5562   0.367E-02    0.375E-02
RMM:   9    -0.413582731444E+03    0.61574E-05   -0.34159E-04  5280   0.225E-02    0.206E-02
RMM:  10    -0.413582725497E+03    0.59475E-05   -0.71898E-05  5541   0.105E-02    0.101E-02
RMM:  11    -0.413582729672E+03   -0.41753E-05   -0.33112E-05  5264   0.675E-03    0.765E-03
RMM:  12    -0.413582731213E+03   -0.15406E-05   -0.78999E-06  3609   0.403E-03    0.342E-03
RMM:  13    -0.413582730625E+03    0.58792E-06   -0.35254E-06  2851   0.271E-03
  140 T=   150. E= -.41284527E+03 F= -.41358273E+03 E0= -.41356274E+03  EK= 0.73746E+00 SP= 0.00E+00 SK= 0.00E+00
       N       E                     dE             d eps       ncg     rms          rms(c)
RMM:   1    -0.413698393721E+03   -0.11566E+00   -0.19907E+01  4284   0.807E+00    0.166E+00
RMM:   2    -0.413616562490E+03    0.81831E-01   -0.81104E-01  5413   0.977E-01    0.145E+00
RMM:   3    -0.413698308131E+03   -0.81746E-01   -0.20447E-01  5410   0.487E-01    0.174E+00
RMM:   4    -0.413599105374E+03    0.99203E-01   -0.12088E-01  5132   0.401E-01    0.785E-01
RMM:   5    -0.413594347622E+03    0.47578E-02   -0.55438E-02  4915   0.313E-01    0.284E-01
RMM:   6    -0.413592086162E+03    0.22615E-02   -0.28242E-02  5191   0.199E-01    0.193E-01
RMM:   7    -0.413590143848E+03    0.19423E-02   -0.35307E-03  4682   0.867E-02    0.855E-02
RMM:   8    -0.413590113448E+03    0.30400E-04   -0.11221E-03  5556   0.410E-02    0.435E-02
RMM:   9    -0.413590113503E+03   -0.54803E-07   -0.44114E-04  5289   0.258E-02    0.230E-02
RMM:  10    -0.413590107430E+03    0.60731E-05   -0.83212E-05  5548   0.113E-02    0.125E-02
RMM:  11    -0.413590109801E+03   -0.23718E-05   -0.46315E-05  5434   0.792E-03    0.820E-03
RMM:  12    -0.413590110338E+03   -0.53688E-06   -0.80500E-06  3585   0.409E-03
  141 T=   151. E= -.41285041E+03 F= -.41359011E+03 E0= -.41357043E+03  EK= 0.73970E+00 SP= 0.00E+00 SK= 0.00E+00
       N       E                     dE             d eps       ncg     rms          rms(c)
RMM:   1    -0.413442899491E+03    0.14721E+00   -0.17050E+01  4270   0.748E+00    0.190E+00
RMM:   2    -0.413406444411E+03    0.36455E-01   -0.79949E-01  5407   0.961E-01    0.169E+00
RMM:   3    -0.413507642513E+03   -0.10120E+00   -0.22893E-01  5394   0.506E-01    0.195E+00
RMM:   4    -0.413393592169E+03    0.11405E+00   -0.15225E-01  5192   0.442E-01    0.944E-01
RMM:   5    -0.413383836902E+03    0.97553E-02   -0.62765E-02  4811   0.339E-01    0.276E-01
RMM:   6    -0.413381519062E+03    0.23178E-02   -0.28231E-02  5195   0.201E-01    0.187E-01
RMM:   7    -0.413379418165E+03    0.21009E-02   -0.40461E-03  4738   0.905E-02    0.760E-02
RMM:   8    -0.413379369494E+03    0.48671E-04   -0.10572E-03  5507   0.405E-02    0.408E-02
RMM:   9    -0.413379364683E+03    0.48112E-05   -0.40757E-04  5506   0.249E-02    0.251E-02
RMM:  10    -0.413379352557E+03    0.12126E-04   -0.79209E-05  5457   0.111E-02    0.132E-02
RMM:  11    -0.413379350923E+03    0.16338E-05   -0.48940E-05  5501   0.799E-03    0.792E-03
RMM:  12    -0.413379348008E+03    0.29152E-05   -0.68414E-06  3336   0.374E-03    0.381E-03
RMM:  13    -0.413379346342E+03    0.16664E-05   -0.38829E-06  2917   0.278E-03    0.180E-03
RMM:  14    -0.413379343519E+03    0.28228E-05   -0.13760E-06  2531   0.195E-03    0.805E-04
RMM:  15    -0.413379341077E+03    0.24424E-05   -0.74042E-07  2298   0.133E-03    0.594E-04
RMM:  16    -0.413379336988E+03    0.40881E-05   -0.64206E-07  2249   0.116E-03    0.362E-04
RMM:  17    -0.413379332270E+03    0.47187E-05   -0.54970E-07  1948   0.962E-04    0.266E-04
RMM:  18    -0.413379326462E+03    0.58076E-05   -0.57443E-07  1988   0.953E-04    0.182E-04
RMM:  19    -0.413379321916E+03    0.45462E-05   -0.34352E-07  1603   0.770E-04    0.179E-04
RMM:  20    -0.413379318629E+03    0.32866E-05   -0.17818E-07  1252   0.654E-04    0.114E-04
RMM:  21    -0.413379316709E+03    0.19202E-05   -0.10426E-07  1129   0.604E-04    0.566E-05
RMM:  22    -0.413379315624E+03    0.10851E-05   -0.59302E-08   987   0.571E-04    0.335E-05
RMM:  23    -0.413379314413E+03    0.12104E-05   -0.45444E-08  1000   0.571E-04    0.220E-05
RMM:  24    -0.413379314040E+03    0.37358E-06   -0.25641E-08   889   0.550E-04
  142 T=   112. E= -.41282772E+03 F= -.41337931E+03 E0= -.41335973E+03  EK= 0.55160E+00 SP= 0.00E+00 SK= 0.00E+00
       N       E                     dE             d eps       ncg     rms          rms(c)
RMM:   1    -0.413350125361E+03    0.29189E-01   -0.11285E+01  4265   0.627E+00    0.106E+00
RMM:   2    -0.413358567322E+03   -0.84420E-02   -0.40842E-01  5408   0.719E-01    0.108E+00
RMM:   3    -0.413359124181E+03   -0.55686E-03   -0.89197E-02  5450   0.325E-01    0.104E+00
RMM:   4    -0.413332076678E+03    0.27048E-01   -0.49703E-02  5228   0.266E-01    0.528E-01
RMM:   5    -0.413331041092E+03    0.10356E-02   -0.21651E-02  4778   0.199E-01    0.212E-01
RMM:   6    -0.413330073016E+03    0.96808E-03   -0.14781E-02  4990   0.144E-01    0.135E-01
RMM:   7    -0.413328969867E+03    0.11031E-02   -0.20078E-03  4684   0.653E-02    0.454E-02
RMM:   8    -0.413328975194E+03   -0.53276E-05   -0.54956E-04  5715   0.274E-02    0.284E-02
RMM:   9    -0.413328967592E+03    0.76026E-05   -0.12951E-04  4921   0.148E-02    0.134E-02
RMM:  10    -0.413328966005E+03    0.15864E-05   -0.31792E-05  5065   0.674E-03    0.779E-03
RMM:  11    -0.413328966505E+03   -0.49953E-06   -0.11615E-05  4113   0.435E-03    0.394E-03
RMM:  12    -0.413328967766E+03   -0.12614E-05   -0.23027E-06  2660   0.255E-03    0.264E-03
RMM:  13    -0.413328968723E+03   -0.95709E-06   -0.10733E-06  2532   0.175E-03
  143 T=   107. E= -.41280429E+03 F= -.41332897E+03 E0= -.41330929E+03  EK= 0.52468E+00 SP= 0.00E+00 SK= 0.00E+00
       N       E                     dE             d eps       ncg     rms          rms(c)
RMM:   1    -0.413783716076E+03   -0.45475E+00   -0.16605E+01  4274   0.745E+00    0.162E+00
RMM:   2    -0.413770942553E+03    0.12774E-01   -0.60323E-01  5355   0.891E-01    0.153E+00
RMM:   3    -0.413764344028E+03    0.65985E-02   -0.17923E-01  5346   0.463E-01    0.143E+00
RMM:   4    -0.413717969128E+03    0.46375E-01   -0.13913E-01  5219   0.434E-01    0.650E-01
RMM:   5    -0.413707709604E+03    0.10260E-01   -0.50278E-02  4842   0.295E-01    0.245E-01
RMM:   6    -0.413706359305E+03    0.13503E-02   -0.20567E-02  5254   0.172E-01    0.160E-01
RMM:   7    -0.413705190645E+03    0.11687E-02   -0.26356E-03  4767   0.730E-02    0.610E-02
RMM:   8    -0.413705163160E+03    0.27485E-04   -0.82875E-04  5560   0.354E-02    0.351E-02
RMM:   9    -0.413705171603E+03   -0.84431E-05   -0.28506E-04  5678   0.199E-02    0.269E-02
RMM:  10    -0.413705155060E+03    0.16543E-04   -0.56223E-05  5208   0.977E-03    0.117E-02
RMM:  11    -0.413705158281E+03   -0.32211E-05   -0.53055E-05  5568   0.776E-03    0.616E-03
RMM:  12    -0.413705162046E+03   -0.37652E-05   -0.49255E-06  2983   0.326E-03    0.371E-03
RMM:  13    -0.413705164490E+03   -0.24442E-05   -0.16949E-06  2595   0.213E-03    0.163E-03
RMM:  14    -0.413705167813E+03   -0.33229E-05   -0.10691E-06  2510   0.167E-03    0.716E-04
RMM:  15    -0.413705170537E+03   -0.27238E-05   -0.69722E-07  2296   0.129E-03    0.421E-04
RMM:  16    -0.413705173350E+03   -0.28129E-05   -0.64447E-07  2317   0.118E-03    0.311E-04
RMM:  17    -0.413705175169E+03   -0.18195E-05   -0.40225E-07  1947   0.933E-04    0.303E-04
RMM:  18    -0.413705176798E+03   -0.16285E-05   -0.28843E-07  1559   0.793E-04    0.217E-04
RMM:  19    -0.413705178699E+03   -0.19013E-05   -0.33849E-07  1713   0.816E-04    0.112E-04
RMM:  20    -0.413705179316E+03   -0.61664E-06   -0.13387E-07  1164   0.624E-04
  144 T=   176. E= -.41284310E+03 F= -.41370518E+03 E0= -.41368525E+03  EK= 0.86208E+00 SP= 0.00E+00 SK= 0.00E+00
       N       E                     dE             d eps       ncg     rms          rms(c)
RMM:   1    -0.414291062319E+03   -0.58588E+00   -0.27679E+01  4294   0.937E+00    0.204E+00
RMM:   2    -0.414111415909E+03    0.17965E+00   -0.90627E-01  5356   0.115E+00    0.191E+00
RMM:   3    -0.414120051040E+03   -0.86351E-02   -0.27442E-01  5390   0.581E-01    0.185E+00
RMM:   4    -0.414045960318E+03    0.74091E-01   -0.19652E-01  5239   0.515E-01    0.847E-01
RMM:   5    -0.414032604639E+03    0.13356E-01   -0.75903E-02  4788   0.369E-01    0.304E-01
RMM:   6    -0.414031437319E+03    0.11673E-02   -0.34283E-02  5262   0.219E-01    0.216E-01
RMM:   7    -0.414028766207E+03    0.26711E-02   -0.52823E-03  4716   0.102E-01    0.741E-02
RMM:   8    -0.414028752060E+03    0.14147E-04   -0.17493E-03  5756   0.490E-02    0.458E-02
RMM:   9    -0.414028747867E+03    0.41938E-05   -0.45232E-04  5519   0.258E-02    0.326E-02
RMM:  10    -0.414028722766E+03    0.25101E-04   -0.90423E-05  5247   0.125E-02    0.145E-02
RMM:  11    -0.414028726244E+03   -0.34779E-05   -0.74791E-05  5663   0.940E-03    0.793E-03
RMM:  12    -0.414028730015E+03   -0.37710E-05   -0.77647E-06  3332   0.398E-03    0.442E-03
RMM:  13    -0.414028733204E+03   -0.31896E-05   -0.33117E-06  2800   0.272E-03    0.169E-03
RMM:  14    -0.414028737389E+03   -0.41850E-05   -0.12652E-06  2536   0.191E-03    0.805E-04
RMM:  15    -0.414028740481E+03   -0.30915E-05   -0.72774E-07  2397   0.137E-03    0.485E-04
RMM:  16    -0.414028744230E+03   -0.37491E-05   -0.72681E-07  2372   0.122E-03    0.322E-04
RMM:  17    -0.414028746899E+03   -0.26692E-05   -0.48548E-07  2024   0.978E-04    0.294E-04
RMM:  18    -0.414028749284E+03   -0.23855E-05   -0.38513E-07  1726   0.864E-04    0.217E-04
RMM:  19    -0.414028751574E+03   -0.22898E-05   -0.37363E-07  1722   0.827E-04    0.122E-04
RMM:  20    -0.414028752466E+03   -0.89191E-06   -0.16511E-07  1261   0.650E-04
  145 T=   240. E= -.41285026E+03 F= -.41402875E+03 E0= -.41400849E+03  EK= 0.11785E+01 SP= 0.00E+00 SK= 0.00E+00
       N       E                     dE             d eps       ncg     rms          rms(c)
RMM:   1    -0.414409501307E+03   -0.38075E+00   -0.32290E+01  4294   0.101E+01    0.147E+00
RMM:   2    -0.414148085203E+03    0.26142E+00   -0.10080E+00  5396   0.120E+00    0.150E+00
RMM:   3    -0.414144849382E+03    0.32358E-02   -0.19253E-01  5560   0.498E-01    0.141E+00
RMM:   4    -0.414102908688E+03    0.41941E-01   -0.81037E-02  5252   0.342E-01    0.788E-01
RMM:   5    -0.414100154607E+03    0.27541E-02   -0.42697E-02  4593   0.286E-01    0.339E-01
RMM:   6    -0.414099353986E+03    0.80062E-03   -0.28133E-02  5012   0.202E-01    0.203E-01
RMM:   7    -0.414096774901E+03    0.25791E-02   -0.58380E-03  4854   0.104E-01    0.741E-02
RMM:   8    -0.414096762739E+03    0.12162E-04   -0.14757E-03  5879   0.442E-02    0.536E-02
RMM:   9    -0.414096709101E+03    0.53638E-04   -0.43380E-04  4601   0.281E-02    0.229E-02
RMM:  10    -0.414096708027E+03    0.10743E-05   -0.10787E-04  5669   0.129E-02    0.136E-02
RMM:  11    -0.414096710741E+03   -0.27140E-05   -0.34396E-05  5115   0.736E-03    0.747E-03
RMM:  12    -0.414096715051E+03   -0.43107E-05   -0.77934E-06  3340   0.389E-03    0.407E-03
RMM:  13    -0.414096718735E+03   -0.36834E-05   -0.31179E-06  2811   0.261E-03    0.174E-03
RMM:  14    -0.414096722759E+03   -0.40243E-05   -0.14602E-06  2573   0.193E-03    0.973E-04
RMM:  15    -0.414096725705E+03   -0.29459E-05   -0.81829E-07  2428   0.137E-03    0.584E-04
RMM:  16    -0.414096728621E+03   -0.29164E-05   -0.64931E-07  2150   0.113E-03    0.303E-04
RMM:  17    -0.414096730627E+03   -0.20058E-05   -0.44849E-07  1805   0.923E-04    0.168E-04
RMM:  18    -0.414096732407E+03   -0.17795E-05   -0.42882E-07  1904   0.893E-04    0.137E-04
RMM:  19    -0.414096733427E+03   -0.10205E-05   -0.24870E-07  1437   0.708E-04    0.814E-05
RMM:  20    -0.414096734096E+03   -0.66913E-06   -0.15124E-07  1200   0.632E-04
  146 T=   254. E= -.41284913E+03 F= -.41409673E+03 E0= -.41407615E+03  EK= 0.12476E+01 SP= 0.00E+00 SK= 0.00E+00
       N       E                     dE             d eps       ncg     rms          rms(c)
RMM:   1    -0.414157624386E+03   -0.60891E-01   -0.31020E+01  4287   0.987E+00    0.172E+00
RMM:   2    -0.413907362112E+03    0.25026E+00   -0.10768E+00  5417   0.118E+00    0.155E+00
RMM:   3    -0.413989926016E+03   -0.82564E-01   -0.22037E-01  5581   0.515E-01    0.173E+00
RMM:   4    -0.413908729346E+03    0.81197E-01   -0.11704E-01  5182   0.384E-01    0.953E-01
RMM:   5    -0.413898106482E+03    0.10623E-01   -0.70557E-02  4664   0.356E-01    0.309E-01
RMM:   6    -0.413895443849E+03    0.26626E-02   -0.15840E-02  5083   0.165E-01    0.148E-01
RMM:   7    -0.413894400777E+03    0.10431E-02   -0.40102E-03  5070   0.825E-02    0.789E-02
RMM:   8    -0.413894238456E+03    0.16232E-03   -0.10148E-03  5490   0.410E-02    0.525E-02
RMM:   9    -0.413894221005E+03    0.17451E-04   -0.51304E-04  4838   0.294E-02    0.302E-02
RMM:  10    -0.413894211784E+03    0.92215E-05   -0.12296E-04  5530   0.138E-02    0.157E-02
RMM:  11    -0.413894214075E+03   -0.22911E-05   -0.52910E-05  5398   0.852E-03    0.831E-03
RMM:  12    -0.413894216960E+03   -0.28852E-05   -0.89294E-06  3486   0.405E-03    0.412E-03
RMM:  13    -0.413894220441E+03   -0.34807E-05   -0.35181E-06  2829   0.273E-03    0.203E-03
RMM:  14    -0.413894224503E+03   -0.40620E-05   -0.18215E-06  2630   0.213E-03    0.986E-04
RMM:  15    -0.413894226879E+03   -0.23766E-05   -0.96304E-07  2450   0.147E-03    0.650E-04
RMM:  16    -0.413894228796E+03   -0.19167E-05   -0.68804E-07  2245   0.117E-03    0.361E-04
RMM:  17    -0.413894230227E+03   -0.14310E-05   -0.57378E-07  2023   0.102E-03    0.234E-04
RMM:  18    -0.413894230980E+03   -0.75363E-06   -0.38992E-07  1705   0.867E-04
  147 T=   212. E= -.41285342E+03 F= -.41389423E+03 E0= -.41387326E+03  EK= 0.10408E+01 SP= 0.00E+00 SK= 0.00E+00
       N       E                     dE             d eps       ncg     rms          rms(c)
RMM:   1    -0.413566408869E+03    0.32782E+00   -0.21972E+01  4276   0.836E+00    0.172E+00
RMM:   2    -0.413466035161E+03    0.10037E+00   -0.88463E-01  5411   0.976E-01    0.146E+00
RMM:   3    -0.413471777063E+03   -0.57419E-02   -0.12367E-01  5285   0.426E-01    0.872E-01
RMM:   4    -0.413564727819E+03   -0.92951E-01   -0.14772E-01  5111   0.420E-01    0.130E+00
RMM:   5    -0.413477280285E+03    0.87448E-01   -0.84866E-02  5122   0.309E-01    0.484E-01
RMM:   6    -0.413465657014E+03    0.11623E-01   -0.18299E-02  5201   0.178E-01    0.998E-02
RMM:   7    -0.413465696454E+03   -0.39440E-04   -0.45158E-03  5870   0.756E-02    0.784E-02
RMM:   8    -0.413465542074E+03    0.15438E-03   -0.12158E-03  5256   0.406E-02    0.503E-02
RMM:   9    -0.413465500085E+03    0.41989E-04   -0.26314E-04  4932   0.223E-02    0.175E-02
RMM:  10    -0.413465503681E+03   -0.35954E-05   -0.84568E-05  5862   0.105E-02    0.103E-02
RMM:  11    -0.413465505359E+03   -0.16781E-05   -0.17941E-05  4476   0.528E-03    0.559E-03
RMM:  12    -0.413465507600E+03   -0.22409E-05   -0.42780E-06  2918   0.300E-03    0.324E-03
RMM:  13    -0.413465511053E+03   -0.34529E-05   -0.27209E-06  2704   0.252E-03    0.173E-03
RMM:  14    -0.413465513290E+03   -0.22368E-05   -0.14060E-06  2580   0.181E-03    0.779E-04
RMM:  15    -0.413465514192E+03   -0.90285E-06   -0.68264E-07  2374   0.119E-03
  148 T=   132. E= -.41281510E+03 F= -.41346551E+03 E0= -.41344388E+03  EK= 0.65042E+00 SP= 0.00E+00 SK= 0.00E+00
       N       E                     dE             d eps       ncg     rms          rms(c)
RMM:   1    -0.413364383817E+03    0.10113E+00   -0.12498E+01  4267   0.643E+00    0.879E-01
RMM:   2    -0.413343440184E+03    0.20944E-01   -0.44095E-01  5465   0.682E-01    0.734E-01
RMM:   3    -0.413377898506E+03   -0.34458E-01   -0.76514E-02  5596   0.295E-01    0.966E-01
RMM:   4    -0.413343884656E+03    0.34014E-01   -0.40136E-02  5133   0.231E-01    0.428E-01
RMM:   5    -0.413341059366E+03    0.28253E-02   -0.16413E-02  4595   0.177E-01    0.121E-01
RMM:   6    -0.413341018180E+03    0.41186E-04   -0.45917E-03  5456   0.833E-02    0.874E-02
RMM:   7    -0.413340699868E+03    0.31831E-03   -0.13745E-03  5084   0.451E-02    0.456E-02
RMM:   8    -0.413340681669E+03    0.18199E-04   -0.35958E-04  5374   0.240E-02    0.306E-02
RMM:   9    -0.413340691385E+03   -0.97155E-05   -0.16376E-04  5154   0.165E-02    0.199E-02
RMM:  10    -0.413340685752E+03    0.56327E-05   -0.42854E-05  5294   0.827E-03    0.937E-03
RMM:  11    -0.413340689013E+03   -0.32612E-05   -0.28795E-05  5138   0.599E-03    0.621E-03
RMM:  12    -0.413340690594E+03   -0.15813E-05   -0.43289E-06  2953   0.326E-03    0.241E-03
RMM:  13    -0.413340691537E+03   -0.94256E-06   -0.19384E-06  2609   0.214E-03
  149 T=   107. E= -.41281424E+03 F= -.41334069E+03 E0= -.41331813E+03  EK= 0.52646E+00 SP= 0.00E+00 SK= 0.00E+00
       N       E                     dE             d eps       ncg     rms          rms(c)
RMM:   1    -0.413637846846E+03   -0.29716E+00   -0.16370E+01  4282   0.697E+00    0.196E+00
RMM:   2    -0.413557027101E+03    0.80820E-01   -0.65739E-01  5376   0.917E-01    0.167E+00
RMM:   3    -0.413695067221E+03   -0.13804E+00   -0.27023E-01  5416   0.535E-01    0.208E+00
RMM:   4    -0.413546958652E+03    0.14811E+00   -0.19291E-01  5142   0.494E-01    0.774E-01
RMM:   5    -0.413531461468E+03    0.15497E-01   -0.52047E-02  4724   0.317E-01    0.184E-01
RMM:   6    -0.413531599738E+03   -0.13827E-03   -0.14953E-02  5587   0.142E-01    0.146E-01
RMM:   7    -0.413530678644E+03    0.92109E-03   -0.33776E-03  5089   0.706E-02    0.726E-02
RMM:   8    -0.413530568613E+03    0.11003E-03   -0.95221E-04  5487   0.396E-02    0.382E-02
RMM:   9    -0.413530585955E+03   -0.17342E-04   -0.37744E-04  5775   0.228E-02    0.286E-02
RMM:  10    -0.413530568044E+03    0.17911E-04   -0.85884E-05  5189   0.120E-02    0.120E-02
RMM:  11    -0.413530572211E+03   -0.41674E-05   -0.67971E-05  5742   0.880E-03    0.869E-03
RMM:  12    -0.413530571644E+03    0.56739E-06   -0.77242E-06  3459   0.399E-03
  150 T=   138. E= -.41285369E+03 F= -.41353057E+03 E0= -.41350719E+03  EK= 0.67689E+00 SP= 0.00E+00 SK= 0.00E+00
