       N       E                     dE             d eps       ncg     rms          rms(c)
RMM:   1     0.220130153262E+04    0.22013E+04   -0.52441E+04  2132   0.654E+02
RMM:   2     0.705552935312E+03   -0.14957E+04   -0.16262E+04  2132   0.177E+02
RMM:   3     0.137573649607E+03   -0.56798E+03   -0.65748E+03  2132   0.117E+02
RMM:   4    -0.159119084826E+03   -0.29669E+03   -0.27858E+03  2132   0.937E+01
RMM:   5    -0.287535857021E+03   -0.12842E+03   -0.11456E+03  2132   0.595E+01
RMM:   6    -0.349940072658E+03   -0.62404E+02   -0.55120E+02  2132   0.423E+01
RMM:   7    -0.382707408245E+03   -0.32767E+02   -0.30342E+02  2132   0.293E+01
RMM:   8    -0.404226224746E+03   -0.21519E+02   -0.18404E+02  2132   0.233E+01
RMM:   9    -0.436016404787E+03   -0.31790E+02   -0.30690E+02  6110   0.173E+01
RMM:  10    -0.441309738024E+03   -0.52933E+01   -0.62827E+01  6397   0.538E+00
RMM:  11    -0.442511399916E+03   -0.12017E+01   -0.11082E+01  6215   0.173E+00
RMM:  12    -0.442882987067E+03   -0.37159E+00   -0.25382E+00  6369   0.594E-01    0.134E+02
RMM:  13    -0.425615660059E+03    0.17267E+02   -0.80934E+01  4673   0.119E+01    0.712E+01
RMM:  14    -0.499612319069E+03   -0.73997E+02   -0.54098E+02  5419   0.232E+01    0.307E+01
RMM:  15    -0.415558067879E+03    0.84054E+02   -0.19826E+02  5073   0.163E+01    0.682E+00
RMM:  16    -0.414010362371E+03    0.15477E+01   -0.39987E+01  6084   0.611E+00    0.425E+00
RMM:  17    -0.413213781479E+03    0.79658E+00   -0.24991E+00  5402   0.186E+00    0.244E+00
RMM:  18    -0.413172920466E+03    0.40861E-01   -0.80039E-01  5967   0.911E-01    0.165E+00
RMM:  19    -0.413168045485E+03    0.48750E-02   -0.29103E-01  5682   0.579E-01    0.855E-01
RMM:  20    -0.413185925917E+03   -0.17880E-01   -0.24069E-01  5548   0.520E-01    0.587E-01
RMM:  21    -0.413167446901E+03    0.18479E-01   -0.34817E-02  5009   0.235E-01    0.266E-01
RMM:  22    -0.413165257865E+03    0.21890E-02   -0.18152E-02  6009   0.122E-01    0.136E-01
RMM:  23    -0.413164282914E+03    0.97495E-03   -0.52338E-03  5981   0.637E-02    0.832E-02
RMM:  24    -0.413163113470E+03    0.11694E-02   -0.16340E-03  5404   0.406E-02    0.464E-02
RMM:  25    -0.413162788532E+03    0.32494E-03   -0.85488E-04  5309   0.269E-02    0.387E-02
RMM:  26    -0.413162948817E+03   -0.16029E-03   -0.94717E-04  5801   0.314E-02    0.335E-02
RMM:  27    -0.413163386934E+03   -0.43812E-03   -0.19244E-04  4555   0.196E-02    0.203E-02
RMM:  28    -0.413163834832E+03   -0.44790E-03   -0.17044E-04  5161   0.182E-02    0.933E-03
RMM:  29    -0.413164249099E+03   -0.41427E-03   -0.11791E-04  4540   0.161E-02    0.447E-03
RMM:  30    -0.413164458095E+03   -0.20900E-03   -0.73711E-05  4396   0.967E-03    0.425E-03
RMM:  31    -0.413164602061E+03   -0.14397E-03   -0.54928E-05  3192   0.738E-03    0.345E-03
RMM:  32    -0.413164627234E+03   -0.25173E-04   -0.20880E-05  2988   0.308E-03    0.170E-03
RMM:  33    -0.413164640406E+03   -0.13171E-04   -0.84229E-06  2790   0.229E-03    0.589E-04
RMM:  34    -0.413164644607E+03   -0.42013E-05   -0.47250E-06  2665   0.171E-03    0.730E-04
RMM:  35    -0.413164645453E+03   -0.84640E-06   -0.23948E-06  2359   0.126E-03
    1 T=    61. E= -.41286684E+03 F= -.41316465E+03 E0= -.41314215E+03  EK= 0.29780E+00 SP= 0.00E+00 SK= 0.00E+00
       N       E                     dE             d eps       ncg     rms          rms(c)
RMM:   1    -0.413155488208E+03    0.91564E-02   -0.11018E+01  4000   0.700E-01    0.886E-01
RMM:   2    -0.413165960750E+03   -0.10473E-01   -0.13585E-01  3948   0.999E-02    0.641E-01
RMM:   3    -0.413164370499E+03    0.15903E-02   -0.67882E-03  4719   0.370E-02    0.149E-01
RMM:   4    -0.413182584392E+03   -0.18214E-01   -0.19010E-02  5217   0.115E-01    0.565E-01
RMM:   5    -0.413164065744E+03    0.18519E-01   -0.91993E-03  4859   0.945E-02    0.309E-02
RMM:   6    -0.413164181343E+03   -0.11560E-03   -0.14727E-03  5840   0.371E-02    0.182E-02
RMM:   7    -0.413164194609E+03   -0.13266E-04   -0.19772E-04  5794   0.120E-02    0.125E-02
RMM:   8    -0.413164201402E+03   -0.67932E-05   -0.26394E-05  4283   0.505E-03    0.608E-03
RMM:   9    -0.413164207317E+03   -0.59149E-05   -0.57670E-06  2949   0.274E-03    0.421E-03
RMM:  10    -0.413164213193E+03   -0.58758E-05   -0.14689E-06  2546   0.171E-03    0.268E-03
RMM:  11    -0.413164221011E+03   -0.78180E-05   -0.13211E-06  2532   0.160E-03    0.117E-03
RMM:  12    -0.413164226183E+03   -0.51722E-05   -0.82546E-07  2381   0.125E-03    0.427E-04
RMM:  13    -0.413164226966E+03   -0.78302E-06   -0.36803E-07  1767   0.849E-04
    2 T=    61. E= -.41286653E+03 F= -.41316423E+03 E0= -.41314173E+03  EK= 0.29770E+00 SP= 0.00E+00 SK= 0.00E+00
       N       E                     dE             d eps       ncg     rms          rms(c)
RMM:   1    -0.413156561224E+03    0.76650E-02   -0.11049E+01  4194   0.702E-01    0.911E-01
RMM:   2    -0.413165961096E+03   -0.93999E-02   -0.13308E-01  4009   0.969E-02    0.634E-01
RMM:   3    -0.413165042580E+03    0.91852E-03   -0.71809E-03  4821   0.382E-02    0.161E-01
RMM:   4    -0.413190291355E+03   -0.25249E-01   -0.25508E-02  5189   0.134E-01    0.663E-01
RMM:   5    -0.413164719136E+03    0.25572E-01   -0.12461E-02  4833   0.111E-01    0.365E-02
RMM:   6    -0.413164878229E+03   -0.15909E-03   -0.20325E-03  5813   0.435E-02    0.209E-02
RMM:   7    -0.413164886673E+03   -0.84433E-05   -0.25684E-04  5886   0.137E-02    0.144E-02
RMM:   8    -0.413164887010E+03   -0.33738E-06   -0.36933E-05  4683   0.578E-03    0.774E-03
RMM:   9    -0.413164886563E+03    0.44650E-06   -0.72864E-06  3183   0.307E-03
    3 T=    61. E= -.41286697E+03 F= -.41316489E+03 E0= -.41314239E+03  EK= 0.29791E+00 SP= 0.00E+00 SK= 0.00E+00
       N       E                     dE             d eps       ncg     rms          rms(c)
RMM:   1    -0.413155983183E+03    0.89038E-02   -0.10960E+01  4227   0.699E-01    0.894E-01
RMM:   2    -0.413166036649E+03   -0.10053E-01   -0.13197E-01  4255   0.990E-02    0.628E-01
RMM:   3    -0.413170130060E+03   -0.40934E-02   -0.11259E-02  5188   0.766E-02    0.347E-01
RMM:   4    -0.413187148617E+03   -0.17019E-01   -0.36348E-02  5120   0.163E-01    0.627E-01
RMM:   5    -0.413164634244E+03    0.22514E-01   -0.88064E-03  4703   0.105E-01    0.535E-02
RMM:   6    -0.413164619727E+03    0.14517E-04   -0.15487E-03  5469   0.395E-02    0.197E-02
RMM:   7    -0.413164636679E+03   -0.16952E-04   -0.24824E-04  6015   0.146E-02    0.132E-02
RMM:   8    -0.413164638694E+03   -0.20154E-05   -0.37519E-05  5040   0.626E-03    0.686E-03
RMM:   9    -0.413164640065E+03   -0.13709E-05   -0.89184E-06  3463   0.381E-03    0.364E-03
RMM:  10    -0.413164641486E+03   -0.14210E-05   -0.13924E-06  2538   0.198E-03    0.220E-03
RMM:  11    -0.413164643828E+03   -0.23421E-05   -0.12326E-06  2541   0.171E-03    0.128E-03
RMM:  12    -0.413164644957E+03   -0.11293E-05   -0.55058E-07  2350   0.119E-03    0.462E-04
RMM:  13    -0.413164646004E+03   -0.10461E-05   -0.35356E-07  1633   0.848E-04    0.264E-04
RMM:  14    -0.413164646491E+03   -0.48765E-06   -0.21092E-07  1382   0.729E-04
    4 T=    61. E= -.41286676E+03 F= -.41316465E+03 E0= -.41314216E+03  EK= 0.29789E+00 SP= 0.00E+00 SK= 0.00E+00
       N       E                     dE             d eps       ncg     rms          rms(c)
RMM:   1    -0.413155833428E+03    0.88126E-02   -0.11001E+01  4237   0.705E-01    0.884E-01
RMM:   2    -0.413166355185E+03   -0.10522E-01   -0.13585E-01  3994   0.956E-02    0.640E-01
RMM:   3    -0.413165067667E+03    0.12875E-02   -0.68484E-03  4898   0.382E-02    0.158E-01
RMM:   4    -0.413195361284E+03   -0.30294E-01   -0.30968E-02  5162   0.147E-01    0.726E-01
RMM:   5    -0.413164534880E+03    0.30826E-01   -0.14938E-02  4812   0.121E-01    0.377E-02
RMM:   6    -0.413164723230E+03   -0.18835E-03   -0.24026E-03  5779   0.474E-02    0.196E-02
RMM:   7    -0.413164740959E+03   -0.17729E-04   -0.29500E-04  5899   0.143E-02    0.143E-02
RMM:   8    -0.413164746175E+03   -0.52160E-05   -0.40605E-05  4730   0.593E-03    0.797E-03
RMM:   9    -0.413164750273E+03   -0.40979E-05   -0.81266E-06  3247   0.317E-03    0.533E-03
RMM:  10    -0.413164755729E+03   -0.54562E-05   -0.18699E-06  2556   0.197E-03    0.317E-03
RMM:  11    -0.413164761971E+03   -0.62417E-05   -0.15306E-06  2555   0.180E-03    0.151E-03
RMM:  12    -0.413164766180E+03   -0.42098E-05   -0.86257E-07  2463   0.141E-03    0.487E-04
RMM:  13    -0.413164766971E+03   -0.79109E-06   -0.32222E-07  2017   0.939E-04
    5 T=    61. E= -.41286675E+03 F= -.41316477E+03 E0= -.41314229E+03  EK= 0.29802E+00 SP= 0.00E+00 SK= 0.00E+00
       N       E                     dE             d eps       ncg     rms          rms(c)
RMM:   1    -0.413156755258E+03    0.80109E-02   -0.11050E+01  4251   0.715E-01    0.906E-01
RMM:   2    -0.413166589671E+03   -0.98344E-02   -0.13311E-01  4094   0.975E-02    0.636E-01
RMM:   3    -0.413165547637E+03    0.10420E-02   -0.70526E-03  4854   0.378E-02    0.162E-01
RMM:   4    -0.413192753261E+03   -0.27206E-01   -0.27558E-02  5160   0.138E-01    0.688E-01
RMM:   5    -0.413165134171E+03    0.27619E-01   -0.13450E-02  4817   0.114E-01    0.371E-02
RMM:   6    -0.413165298550E+03   -0.16438E-03   -0.21619E-03  5806   0.447E-02    0.207E-02
RMM:   7    -0.413165307983E+03   -0.94327E-05   -0.26591E-04  5891   0.138E-02    0.145E-02
RMM:   8    -0.413165308193E+03   -0.20989E-06   -0.38304E-05  4702   0.590E-03    0.796E-03
RMM:   9    -0.413165307442E+03    0.75088E-06   -0.77274E-06  3233   0.317E-03
    6 T=    61. E= -.41286697E+03 F= -.41316531E+03 E0= -.41314284E+03  EK= 0.29833E+00 SP= 0.00E+00 SK= 0.00E+00
       N       E                     dE             d eps       ncg     rms          rms(c)
RMM:   1    -0.413156562132E+03    0.87461E-02   -0.10995E+01  4272   0.721E-01    0.901E-01
RMM:   2    -0.413166010265E+03   -0.94481E-02   -0.13241E-01  4290   0.991E-02    0.629E-01
RMM:   3    -0.413170289681E+03   -0.42794E-02   -0.11351E-02  5157   0.757E-02    0.345E-01
RMM:   4    -0.413187496037E+03   -0.17206E-01   -0.36125E-02  5095   0.162E-01    0.628E-01
RMM:   5    -0.413164946212E+03    0.22550E-01   -0.88088E-03  4695   0.104E-01    0.530E-02
RMM:   6    -0.413164937240E+03    0.89723E-05   -0.15571E-03  5472   0.394E-02    0.199E-02
RMM:   7    -0.413164953563E+03   -0.16324E-04   -0.24558E-04  6015   0.145E-02    0.132E-02
RMM:   8    -0.413164953849E+03   -0.28610E-06   -0.37515E-05  5041   0.628E-03    0.684E-03
RMM:   9    -0.413164952306E+03    0.15438E-05   -0.85094E-06  3364   0.375E-03    0.358E-03
RMM:  10    -0.413164952516E+03   -0.21030E-06   -0.13652E-06  2531   0.197E-03
    7 T=    61. E= -.41286655E+03 F= -.41316495E+03 E0= -.41314251E+03  EK= 0.29840E+00 SP= 0.00E+00 SK= 0.00E+00
       N       E                     dE             d eps       ncg     rms          rms(c)
RMM:   1    -0.413156533225E+03    0.84191E-02   -0.10991E+01  4268   0.720E-01    0.883E-01
RMM:   2    -0.413167195918E+03   -0.10663E-01   -0.13514E-01  4127   0.963E-02    0.637E-01
RMM:   3    -0.413165942308E+03    0.12536E-02   -0.68681E-03  4944   0.389E-02    0.163E-01
RMM:   4    -0.413199213662E+03   -0.33271E-01   -0.34126E-02  5153   0.154E-01    0.759E-01
RMM:   5    -0.413165414918E+03    0.33799E-01   -0.16394E-02  4814   0.126E-01    0.404E-02
RMM:   6    -0.413165608629E+03   -0.19371E-03   -0.26323E-03  5772   0.494E-02    0.197E-02
RMM:   7    -0.413165629059E+03   -0.20431E-04   -0.32844E-04  5916   0.148E-02    0.144E-02
RMM:   8    -0.413165633418E+03   -0.43583E-05   -0.40436E-05  4628   0.588E-03    0.762E-03
RMM:   9    -0.413165636742E+03   -0.33247E-05   -0.85661E-06  3244   0.315E-03    0.508E-03
RMM:  10    -0.413165640829E+03   -0.40863E-05   -0.19688E-06  2557   0.199E-03    0.302E-03
RMM:  11    -0.413165645352E+03   -0.45238E-05   -0.14883E-06  2551   0.178E-03    0.140E-03
RMM:  12    -0.413165648244E+03   -0.28912E-05   -0.86468E-07  2458   0.139E-03    0.424E-04
RMM:  13    -0.413165648821E+03   -0.57766E-06   -0.32620E-07  1977   0.930E-04
    8 T=    61. E= -.41286690E+03 F= -.41316565E+03 E0= -.41314322E+03  EK= 0.29874E+00 SP= 0.00E+00 SK= 0.00E+00
       N       E                     dE             d eps       ncg     rms          rms(c)
RMM:   1    -0.413157046852E+03    0.86014E-02   -0.11055E+01  4287   0.723E-01    0.900E-01
RMM:   2    -0.413167104773E+03   -0.10058E-01   -0.13429E-01  4182   0.101E-01    0.639E-01
RMM:   3    -0.413165985104E+03    0.11197E-02   -0.70099E-03  4806   0.387E-02    0.159E-01
RMM:   4    -0.413191851809E+03   -0.25867E-01   -0.26218E-02  5155   0.135E-01    0.672E-01
RMM:   5    -0.413165540792E+03    0.26311E-01   -0.12900E-02  4816   0.112E-01    0.355E-02
RMM:   6    -0.413165701391E+03   -0.16060E-03   -0.20590E-03  5808   0.434E-02    0.201E-02
RMM:   7    -0.413165710586E+03   -0.91955E-05   -0.25145E-04  5861   0.135E-02    0.141E-02
RMM:   8    -0.413165711186E+03   -0.60013E-06   -0.36370E-05  4670   0.582E-03    0.783E-03
RMM:   9    -0.413165710756E+03    0.43041E-06   -0.74327E-06  3200   0.317E-03
    9 T=    61. E= -.41286674E+03 F= -.41316571E+03 E0= -.41314330E+03  EK= 0.29897E+00 SP= 0.00E+00 SK= 0.00E+00
       N       E                     dE             d eps       ncg     rms          rms(c)
RMM:   1    -0.413157435863E+03    0.82753E-02   -0.11038E+01  4292   0.730E-01    0.908E-01
RMM:   2    -0.413166735690E+03   -0.92998E-02   -0.13258E-01  4304   0.980E-02    0.631E-01
RMM:   3    -0.413171420383E+03   -0.46847E-02   -0.11772E-02  5151   0.781E-02    0.354E-01
RMM:   4    -0.413187087438E+03   -0.15667E-01   -0.35309E-02  5081   0.160E-01    0.612E-01
RMM:   5    -0.413165832150E+03    0.21255E-01   -0.82390E-03  4679   0.102E-01    0.522E-02
RMM:   6    -0.413165821362E+03    0.10788E-04   -0.14757E-03  5453   0.380E-02    0.203E-02
RMM:   7    -0.413165834751E+03   -0.13389E-04   -0.23293E-04  6000   0.142E-02    0.133E-02
RMM:   8    -0.413165833509E+03    0.12425E-05   -0.36123E-05  5023   0.623E-03    0.678E-03
RMM:   9    -0.413165829387E+03    0.41214E-05   -0.81420E-06  3299   0.369E-03    0.354E-03
RMM:  10    -0.413165828679E+03    0.70845E-06   -0.13119E-06  2526   0.194E-03
   10 T=    61. E= -.41286663E+03 F= -.41316583E+03 E0= -.41314344E+03  EK= 0.29920E+00 SP= 0.00E+00 SK= 0.00E+00
       N       E                     dE             d eps       ncg     rms          rms(c)
RMM:   1    -0.413157645543E+03    0.81838E-02   -0.10987E+01  4301   0.729E-01    0.884E-01
RMM:   2    -0.413168165670E+03   -0.10520E-01   -0.13415E-01  4213   0.974E-02    0.635E-01
RMM:   3    -0.413167039421E+03    0.11262E-02   -0.68265E-03  4944   0.405E-02    0.166E-01
RMM:   4    -0.413201614877E+03   -0.34575E-01   -0.35657E-02  5151   0.157E-01    0.774E-01
RMM:   5    -0.413166364659E+03    0.35250E-01   -0.17149E-02  4807   0.129E-01    0.414E-02
RMM:   6    -0.413166564652E+03   -0.19999E-03   -0.27682E-03  5775   0.505E-02    0.204E-02
RMM:   7    -0.413166581787E+03   -0.17135E-04   -0.34378E-04  5927   0.151E-02    0.149E-02
RMM:   8    -0.413166583291E+03   -0.15036E-05   -0.42597E-05  4706   0.605E-03    0.796E-03
RMM:   9    -0.413166583850E+03   -0.55944E-06   -0.91254E-06  3304   0.325E-03
   11 T=    61. E= -.41286691E+03 F= -.41316658E+03 E0= -.41314422E+03  EK= 0.29967E+00 SP= 0.00E+00 SK= 0.00E+00
       N       E                     dE             d eps       ncg     rms          rms(c)
RMM:   1    -0.413157749210E+03    0.88341E-02   -0.11068E+01  4301   0.738E-01    0.895E-01
RMM:   2    -0.413167965603E+03   -0.10216E-01   -0.13575E-01  4295   0.980E-02    0.642E-01
RMM:   3    -0.413171819552E+03   -0.38539E-02   -0.11191E-02  5149   0.761E-02    0.343E-01
RMM:   4    -0.413192503934E+03   -0.20684E-01   -0.40573E-02  5092   0.171E-01    0.672E-01
RMM:   5    -0.413166425268E+03    0.26079E-01   -0.10379E-02  4695   0.111E-01    0.541E-02
RMM:   6    -0.413166437882E+03   -0.12614E-04   -0.18126E-03  5495   0.421E-02    0.187E-02
RMM:   7    -0.413166458741E+03   -0.20859E-04   -0.27303E-04  6024   0.150E-02    0.130E-02
RMM:   8    -0.413166461509E+03   -0.27680E-05   -0.40959E-05  5078   0.636E-03    0.696E-03
RMM:   9    -0.413166462862E+03   -0.13527E-05   -0.88366E-06  3356   0.378E-03    0.370E-03
RMM:  10    -0.413166464250E+03   -0.13884E-05   -0.15848E-06  2541   0.201E-03    0.220E-03
RMM:  11    -0.413166466187E+03   -0.19365E-05   -0.13561E-06  2547   0.176E-03    0.135E-03
RMM:  12    -0.413166466911E+03   -0.72398E-06   -0.58310E-07  2399   0.123E-03
   12 T=    61. E= -.41286653E+03 F= -.41316647E+03 E0= -.41314413E+03  EK= 0.29993E+00 SP= 0.00E+00 SK= 0.00E+00
       N       E                     dE             d eps       ncg     rms          rms(c)
RMM:   1    -0.413158723035E+03    0.77432E-02   -0.11086E+01  4297   0.744E-01    0.914E-01
RMM:   2    -0.413168092106E+03   -0.93691E-02   -0.13277E-01  4220   0.952E-02    0.633E-01
RMM:   3    -0.413167662861E+03    0.42924E-03   -0.74669E-03  5017   0.409E-02    0.181E-01
RMM:   4    -0.413206896959E+03   -0.39234E-01   -0.41184E-02  5148   0.168E-01    0.823E-01
RMM:   5    -0.413166896172E+03    0.40001E-01   -0.19350E-02  4796   0.138E-01    0.451E-02
RMM:   6    -0.413167108303E+03   -0.21213E-03   -0.30792E-03  5757   0.537E-02    0.227E-02
RMM:   7    -0.413167121005E+03   -0.12703E-04   -0.37970E-04  5946   0.161E-02    0.163E-02
RMM:   8    -0.413167117598E+03    0.34075E-05   -0.51029E-05  4970   0.662E-03    0.916E-03
RMM:   9    -0.413167112134E+03    0.54636E-05   -0.10040E-05  3410   0.341E-03    0.574E-03
RMM:  10    -0.413167108698E+03    0.34364E-05   -0.22519E-06  2565   0.211E-03    0.333E-03
RMM:  11    -0.413167105390E+03    0.33083E-05   -0.15447E-06  2538   0.186E-03    0.155E-03
RMM:  12    -0.413167102459E+03    0.29312E-05   -0.89790E-07  2479   0.148E-03    0.462E-04
RMM:  13    -0.413167101743E+03    0.71580E-06   -0.35284E-07  2110   0.100E-03
   13 T=    61. E= -.41286666E+03 F= -.41316710E+03 E0= -.41314480E+03  EK= 0.30044E+00 SP= 0.00E+00 SK= 0.00E+00
       N       E                     dE             d eps       ncg     rms          rms(c)
RMM:   1    -0.413158821537E+03    0.82809E-02   -0.11003E+01  4296   0.742E-01    0.888E-01
RMM:   2    -0.413168979726E+03   -0.10158E-01   -0.13439E-01  4233   0.958E-02    0.633E-01
RMM:   3    -0.413168013286E+03    0.96644E-03   -0.68766E-03  4892   0.383E-02    0.164E-01
RMM:   4    -0.413199043191E+03   -0.31030E-01   -0.31829E-02  5145   0.148E-01    0.734E-01
RMM:   5    -0.413167462320E+03    0.31581E-01   -0.15474E-02  4802   0.122E-01    0.381E-02
RMM:   6    -0.413167645199E+03   -0.18288E-03   -0.24403E-03  5802   0.476E-02    0.208E-02
RMM:   7    -0.413167654641E+03   -0.94421E-05   -0.29122E-04  5886   0.145E-02    0.147E-02
RMM:   8    -0.413167653896E+03    0.74491E-06   -0.43080E-05  4800   0.619E-03    0.848E-03
RMM:   9    -0.413167651433E+03    0.24628E-05   -0.89144E-06  3348   0.334E-03    0.566E-03
RMM:  10    -0.413167650977E+03    0.45610E-06   -0.18698E-06  2551   0.201E-03
   14 T=    61. E= -.41286672E+03 F= -.41316765E+03 E0= -.41314538E+03  EK= 0.30094E+00 SP= 0.00E+00 SK= 0.00E+00
       N       E                     dE             d eps       ncg     rms          rms(c)
RMM:   1    -0.413158792606E+03    0.88588E-02   -0.11091E+01  4308   0.751E-01    0.892E-01
RMM:   2    -0.413169636229E+03   -0.10844E-01   -0.13682E-01  4294   0.989E-02    0.644E-01
RMM:   3    -0.413171044753E+03   -0.14085E-02   -0.93811E-03  5126   0.640E-02    0.283E-01
RMM:   4    -0.413203672823E+03   -0.32628E-01   -0.46972E-02  5109   0.182E-01    0.783E-01
RMM:   5    -0.413167675681E+03    0.35997E-01   -0.15486E-02  4737   0.130E-01    0.519E-02
RMM:   6    -0.413167780926E+03   -0.10525E-03   -0.25304E-03  5637   0.497E-02    0.178E-02
RMM:   7    -0.413167805742E+03   -0.24815E-04   -0.33285E-04  6006   0.153E-02    0.134E-02
RMM:   8    -0.413167808912E+03   -0.31705E-05   -0.46346E-05  5040   0.654E-03    0.710E-03
RMM:   9    -0.413167809268E+03   -0.35537E-06   -0.84115E-06  3099   0.335E-03
   15 T=    61. E= -.41286649E+03 F= -.41316781E+03 E0= -.41314558E+03  EK= 0.30132E+00 SP= 0.00E+00 SK= 0.00E+00
       N       E                     dE             d eps       ncg     rms          rms(c)
RMM:   1    -0.413160580052E+03    0.72289E-02   -0.11129E+01  4301   0.759E-01    0.915E-01
RMM:   2    -0.413169921198E+03   -0.93411E-02   -0.13412E-01  4258   0.100E-01    0.636E-01
RMM:   3    -0.413169035475E+03    0.88572E-03   -0.72454E-03  4846   0.388E-02    0.164E-01
RMM:   4    -0.413195147057E+03   -0.26112E-01   -0.26479E-02  5150   0.136E-01    0.675E-01
RMM:   5    -0.413168600621E+03    0.26546E-01   -0.13010E-02  4811   0.112E-01    0.368E-02
RMM:   6    -0.413168754590E+03   -0.15397E-03   -0.20696E-03  5849   0.437E-02    0.213E-02
RMM:   7    -0.413168757016E+03   -0.24264E-05   -0.25786E-04  5893   0.140E-02    0.147E-02
RMM:   8    -0.413168752180E+03    0.48360E-05   -0.36933E-05  4660   0.592E-03    0.784E-03
RMM:   9    -0.413168746880E+03    0.53008E-05   -0.79303E-06  3240   0.321E-03    0.541E-03
RMM:  10    -0.413168743587E+03    0.32927E-05   -0.15706E-06  2541   0.191E-03    0.330E-03
RMM:  11    -0.413168739361E+03    0.42259E-05   -0.15988E-06  2554   0.190E-03    0.151E-03
RMM:  12    -0.413168735620E+03    0.37408E-05   -0.89615E-07  2481   0.145E-03    0.558E-04
RMM:  13    -0.413168735090E+03    0.53038E-06   -0.27903E-07  1944   0.901E-04
   16 T=    61. E= -.41286675E+03 F= -.41316874E+03 E0= -.41314654E+03  EK= 0.30198E+00 SP= 0.00E+00 SK= 0.00E+00
       N       E                     dE             d eps       ncg     rms          rms(c)
RMM:   1    -0.413160423439E+03    0.83122E-02   -0.11043E+01  4298   0.753E-01    0.895E-01
RMM:   2    -0.413170586286E+03   -0.10163E-01   -0.13470E-01  4257   0.990E-02    0.633E-01
RMM:   3    -0.413169525630E+03    0.10607E-02   -0.69729E-03  4897   0.423E-02    0.170E-01
RMM:   4    -0.413203683375E+03   -0.34158E-01   -0.35124E-02  5145   0.155E-01    0.768E-01
RMM:   5    -0.413168984338E+03    0.34699E-01   -0.17053E-02  4800   0.128E-01    0.402E-02
RMM:   6    -0.413169181949E+03   -0.19761E-03   -0.27001E-03  5791   0.502E-02    0.218E-02
RMM:   7    -0.413169190720E+03   -0.87709E-05   -0.32557E-04  5916   0.152E-02    0.154E-02
RMM:   8    -0.413169187907E+03    0.28132E-05   -0.46566E-05  4867   0.638E-03    0.891E-03
RMM:   9    -0.413169183149E+03    0.47577E-05   -0.96530E-06  3411   0.341E-03    0.589E-03
RMM:  10    -0.413169180504E+03    0.26455E-05   -0.20004E-06  2550   0.207E-03    0.348E-03
RMM:  11    -0.413169177615E+03    0.28890E-05   -0.17417E-06  2553   0.198E-03    0.162E-03
RMM:  12    -0.413169175134E+03    0.24808E-05   -0.88470E-07  2469   0.151E-03    0.517E-04
RMM:  13    -0.413169174636E+03    0.49746E-06   -0.33252E-07  2104   0.978E-04
   17 T=    62. E= -.41286667E+03 F= -.41316917E+03 E0= -.41314702E+03  EK= 0.30250E+00 SP= 0.00E+00 SK= 0.00E+00
       N       E                     dE             d eps       ncg     rms          rms(c)
RMM:   1    -0.413160826793E+03    0.83483E-02   -0.11119E+01  4298   0.768E-01    0.890E-01
RMM:   2    -0.413171592779E+03   -0.10766E-01   -0.13728E-01  4275   0.104E-01    0.645E-01
RMM:   3    -0.413170183335E+03    0.14094E-02   -0.69642E-03  4912   0.413E-02    0.167E-01
RMM:   4    -0.413206514086E+03   -0.36331E-01   -0.37734E-02  5144   0.161E-01    0.792E-01
RMM:   5    -0.413169483450E+03    0.37031E-01   -0.18131E-02  4795   0.132E-01    0.409E-02
RMM:   6    -0.413169692345E+03   -0.20890E-03   -0.28806E-03  5796   0.514E-02    0.213E-02
RMM:   7    -0.413169706509E+03   -0.14164E-04   -0.33943E-04  5906   0.155E-02    0.154E-02
RMM:   8    -0.413169706771E+03   -0.26187E-06   -0.48951E-05  4914   0.648E-03    0.898E-03
RMM:   9    -0.413169704806E+03    0.19655E-05   -0.10064E-05  3456   0.348E-03    0.587E-03
RMM:  10    -0.413169705110E+03   -0.30471E-06   -0.21769E-06  2554   0.213E-03
   18 T=    62. E= -.41286656E+03 F= -.41316971E+03 E0= -.41314759E+03  EK= 0.30314E+00 SP= 0.00E+00 SK= 0.00E+00
       N       E                     dE             d eps       ncg     rms          rms(c)
RMM:   1    -0.413162413519E+03    0.72913E-02   -0.11172E+01  4302   0.765E-01    0.914E-01
RMM:   2    -0.413172010552E+03   -0.95970E-02   -0.13565E-01  4304   0.992E-02    0.640E-01
RMM:   3    -0.413174788629E+03   -0.27781E-02   -0.10257E-02  5127   0.691E-02    0.307E-01
RMM:   4    -0.413200121140E+03   -0.25333E-01   -0.41384E-02  5092   0.171E-01    0.712E-01
RMM:   5    -0.413170725971E+03    0.29395E-01   -0.12226E-02  4712   0.118E-01    0.506E-02
RMM:   6    -0.413170794464E+03   -0.68493E-04   -0.20616E-03  5595   0.447E-02    0.196E-02
RMM:   7    -0.413170807934E+03   -0.13470E-04   -0.27751E-04  5995   0.145E-02    0.135E-02
RMM:   8    -0.413170804554E+03    0.33801E-05   -0.41940E-05  5028   0.641E-03    0.697E-03
RMM:   9    -0.413170797143E+03    0.74110E-05   -0.76075E-06  3030   0.332E-03    0.310E-03
RMM:  10    -0.413170794503E+03    0.26394E-05   -0.17640E-06  2544   0.192E-03    0.188E-03
RMM:  11    -0.413170790553E+03    0.39502E-05   -0.10276E-06  2515   0.154E-03    0.112E-03
RMM:  12    -0.413170787906E+03    0.26468E-05   -0.49855E-07  2163   0.112E-03    0.519E-04
RMM:  13    -0.413170785590E+03    0.23160E-05   -0.30074E-07  1830   0.895E-04    0.231E-04
RMM:  14    -0.413170783932E+03    0.16586E-05   -0.18449E-07  1454   0.743E-04    0.146E-04
RMM:  15    -0.413170780692E+03    0.32399E-05   -0.21788E-07  1673   0.765E-04    0.149E-04
RMM:  16    -0.413170779084E+03    0.16076E-05   -0.11682E-07  1231   0.626E-04    0.119E-04
RMM:  17    -0.413170777101E+03    0.19829E-05   -0.95743E-08  1208   0.610E-04    0.515E-05
RMM:  18    -0.413170775630E+03    0.14712E-05   -0.64080E-08  1028   0.564E-04    0.329E-05
RMM:  19    -0.413170774944E+03    0.68580E-06   -0.34384E-08   836   0.530E-04
   19 T=    62. E= -.41286676E+03 F= -.41317077E+03 E0= -.41314870E+03  EK= 0.30401E+00 SP= 0.00E+00 SK= 0.00E+00
       N       E                     dE             d eps       ncg     rms          rms(c)
RMM:   1    -0.413162743739E+03    0.80319E-02   -0.11117E+01  4296   0.774E-01    0.904E-01
RMM:   2    -0.413172579194E+03   -0.98355E-02   -0.13523E-01  4269   0.101E-01    0.634E-01
RMM:   3    -0.413171833289E+03    0.74591E-03   -0.72012E-03  4964   0.418E-02    0.180E-01
RMM:   4    -0.413211042490E+03   -0.39209E-01   -0.41200E-02  5148   0.168E-01    0.822E-01
RMM:   5    -0.413171086166E+03    0.39956E-01   -0.19531E-02  4795   0.138E-01    0.440E-02
RMM:   6    -0.413171290012E+03   -0.20385E-03   -0.30774E-03  5779   0.535E-02    0.228E-02
RMM:   7    -0.413171300177E+03   -0.10165E-04   -0.37671E-04  5891   0.162E-02    0.163E-02
RMM:   8    -0.413171295864E+03    0.43123E-05   -0.52929E-05  5015   0.678E-03    0.932E-03
RMM:   9    -0.413171289301E+03    0.65631E-05   -0.10649E-05  3496   0.355E-03    0.595E-03
RMM:  10    -0.413171284941E+03    0.43604E-05   -0.21828E-06  2552   0.213E-03    0.347E-03
RMM:  11    -0.413171280754E+03    0.41864E-05   -0.15735E-06  2531   0.192E-03    0.163E-03
RMM:  12    -0.413171277336E+03    0.34188E-05   -0.85641E-07  2468   0.151E-03    0.480E-04
RMM:  13    -0.413171276584E+03    0.75196E-06   -0.34620E-07  2139   0.101E-03
   20 T=    62. E= -.41286658E+03 F= -.41317128E+03 E0= -.41314924E+03  EK= 0.30469E+00 SP= 0.00E+00 SK= 0.00E+00
       N       E                     dE             d eps       ncg     rms          rms(c)
RMM:   1    -0.413163354215E+03    0.79231E-02   -0.11156E+01  4300   0.776E-01    0.890E-01
RMM:   2    -0.413174034980E+03   -0.10681E-01   -0.13852E-01  4279   0.101E-01    0.645E-01
RMM:   3    -0.413172725737E+03    0.13092E-02   -0.69960E-03  4916   0.418E-02    0.168E-01
RMM:   4    -0.413208727948E+03   -0.36002E-01   -0.37412E-02  5142   0.161E-01    0.789E-01
RMM:   5    -0.413172023218E+03    0.36705E-01   -0.18036E-02  4797   0.132E-01    0.406E-02
RMM:   6    -0.413172229571E+03   -0.20635E-03   -0.28801E-03  5801   0.515E-02    0.213E-02
RMM:   7    -0.413172243748E+03   -0.14176E-04   -0.34087E-04  5897   0.156E-02    0.153E-02
RMM:   8    -0.413172243040E+03    0.70728E-06   -0.50898E-05  4937   0.663E-03    0.917E-03
RMM:   9    -0.413172239585E+03    0.34550E-05   -0.10517E-05  3489   0.359E-03    0.598E-03
RMM:  10    -0.413172238522E+03    0.10630E-05   -0.22311E-06  2565   0.216E-03    0.351E-03
RMM:  11    -0.413172237482E+03    0.10407E-05   -0.19348E-06  2568   0.206E-03    0.164E-03
RMM:  12    -0.413172236403E+03    0.10790E-05   -0.85977E-07  2471   0.151E-03    0.531E-04
RMM:  13    -0.413172236166E+03    0.23639E-06   -0.32812E-07  2106   0.976E-04
   21 T=    62. E= -.41286667E+03 F= -.41317224E+03 E0= -.41315025E+03  EK= 0.30557E+00 SP= 0.00E+00 SK= 0.00E+00
       N       E                     dE             d eps       ncg     rms          rms(c)
RMM:   1    -0.413165013137E+03    0.72233E-02   -0.11231E+01  4299   0.787E-01    0.911E-01
RMM:   2    -0.413174845259E+03   -0.98321E-02   -0.13728E-01  4282   0.998E-02    0.644E-01
RMM:   3    -0.413173849246E+03    0.99601E-03   -0.72452E-03  4917   0.414E-02    0.173E-01
RMM:   4    -0.413210286923E+03   -0.36438E-01   -0.37808E-02  5142   0.161E-01    0.793E-01
RMM:   5    -0.413173231356E+03    0.37056E-01   -0.18221E-02  4794   0.133E-01    0.416E-02
RMM:   6    -0.413173430650E+03   -0.19929E-03   -0.28926E-03  5802   0.517E-02    0.224E-02
RMM:   7    -0.413173440734E+03   -0.10085E-04   -0.34267E-04  5896   0.158E-02    0.158E-02
RMM:   8    -0.413173436756E+03    0.39784E-05   -0.51487E-05  4979   0.672E-03    0.939E-03
RMM:   9    -0.413173430057E+03    0.66991E-05   -0.10504E-05  3508   0.359E-03    0.613E-03
RMM:  10    -0.413173425797E+03    0.42596E-05   -0.21408E-06  2561   0.214E-03    0.362E-03
RMM:  11    -0.413173421091E+03    0.47067E-05   -0.18103E-06  2553   0.205E-03    0.168E-03
RMM:  12    -0.413173417429E+03    0.36615E-05   -0.86183E-07  2474   0.154E-03    0.534E-04
RMM:  13    -0.413173416691E+03    0.73772E-06   -0.33345E-07  2128   0.997E-04
   22 T=    62. E= -.41286689E+03 F= -.41317342E+03 E0= -.41315147E+03  EK= 0.30653E+00 SP= 0.00E+00 SK= 0.00E+00
       N       E                     dE             d eps       ncg     rms          rms(c)
RMM:   1    -0.413165800019E+03    0.76174E-02   -0.11214E+01  4299   0.793E-01    0.914E-01
RMM:   2    -0.413175354730E+03   -0.95547E-02   -0.13597E-01  4283   0.106E-01    0.637E-01
RMM:   3    -0.413174511975E+03    0.84275E-03   -0.73209E-03  4875   0.434E-02    0.174E-01
RMM:   4    -0.413208962787E+03   -0.34451E-01   -0.35523E-02  5149   0.157E-01    0.772E-01
RMM:   5    -0.413173892238E+03    0.35071E-01   -0.17232E-02  4796   0.129E-01    0.412E-02
RMM:   6    -0.413174085681E+03   -0.19344E-03   -0.28155E-03  5808   0.504E-02    0.231E-02
RMM:   7    -0.413174092660E+03   -0.69793E-05   -0.32301E-04  5877   0.155E-02    0.157E-02
RMM:   8    -0.413174086938E+03    0.57217E-05   -0.51396E-05  4961   0.676E-03    0.961E-03
RMM:   9    -0.413174078198E+03    0.87403E-05   -0.10891E-05  3590   0.369E-03    0.633E-03
RMM:  10    -0.413174071999E+03    0.61988E-05   -0.20885E-06  2559   0.218E-03    0.378E-03
RMM:  11    -0.413174064632E+03    0.73675E-05   -0.20242E-06  2575   0.216E-03    0.175E-03
RMM:  12    -0.413174058966E+03    0.56660E-05   -0.89396E-07  2477   0.160E-03    0.579E-04
RMM:  13    -0.413174057938E+03    0.10276E-05   -0.34346E-07  2139   0.102E-03    0.422E-04
RMM:  14    -0.413174056819E+03    0.11188E-05   -0.16880E-07  1610   0.761E-04    0.266E-04
RMM:  15    -0.413174052009E+03    0.48099E-05   -0.21967E-07  1976   0.825E-04    0.364E-04
RMM:  16    -0.413174051554E+03    0.45497E-06   -0.65679E-08  1012   0.580E-04
   23 T=    63. E= -.41286666E+03 F= -.41317405E+03 E0= -.41315216E+03  EK= 0.30739E+00 SP= 0.00E+00 SK= 0.00E+00
       N       E                     dE             d eps       ncg     rms          rms(c)
RMM:   1    -0.413167441029E+03    0.66110E-02   -0.11214E+01  4291   0.794E-01    0.893E-01
RMM:   2    -0.413177406379E+03   -0.99654E-02   -0.13934E-01  4275   0.105E-01    0.644E-01
RMM:   3    -0.413175915230E+03    0.14911E-02   -0.69445E-03  4846   0.420E-02    0.166E-01
RMM:   4    -0.413207747082E+03   -0.31832E-01   -0.32672E-02  5151   0.150E-01    0.742E-01
RMM:   5    -0.413175410197E+03    0.32337E-01   -0.15952E-02  4800   0.124E-01    0.386E-02
RMM:   6    -0.413175589302E+03   -0.17911E-03   -0.25689E-03  5805   0.481E-02    0.214E-02
RMM:   7    -0.413175598438E+03   -0.91354E-05   -0.29634E-04  5850   0.148E-02    0.148E-02
RMM:   8    -0.413175596264E+03    0.21740E-05   -0.46815E-05  4909   0.646E-03    0.887E-03
RMM:   9    -0.413175591258E+03    0.50056E-05   -0.10133E-05  3519   0.357E-03    0.588E-03
RMM:  10    -0.413175589094E+03    0.21643E-05   -0.19111E-06  2543   0.208E-03    0.356E-03
RMM:  11    -0.413175586650E+03    0.24441E-05   -0.18360E-06  2552   0.206E-03    0.165E-03
RMM:  12    -0.413175584637E+03    0.20122E-05   -0.83685E-07  2470   0.152E-03    0.557E-04
RMM:  13    -0.413175584270E+03    0.36771E-06   -0.31257E-07  2094   0.967E-04
   24 T=    63. E= -.41286699E+03 F= -.41317558E+03 E0= -.41315374E+03  EK= 0.30859E+00 SP= 0.00E+00 SK= 0.00E+00
       N       E                     dE             d eps       ncg     rms          rms(c)
RMM:   1    -0.413167800549E+03    0.77841E-02   -0.11306E+01  4298   0.795E-01    0.909E-01
RMM:   2    -0.413178412976E+03   -0.10612E-01   -0.13896E-01  4279   0.107E-01    0.649E-01
RMM:   3    -0.413176950599E+03    0.14624E-02   -0.71020E-03  4819   0.436E-02    0.167E-01
RMM:   4    -0.413207695489E+03   -0.30745E-01   -0.31349E-02  5150   0.147E-01    0.729E-01
RMM:   5    -0.413176450015E+03    0.31245E-01   -0.15374E-02  4806   0.122E-01    0.381E-02
RMM:   6    -0.413176625761E+03   -0.17575E-03   -0.25013E-03  5817   0.472E-02    0.214E-02
RMM:   7    -0.413176633776E+03   -0.80155E-05   -0.27133E-04  5835   0.144E-02    0.140E-02
RMM:   8    -0.413176631028E+03    0.27487E-05   -0.47118E-05  4912   0.645E-03    0.918E-03
RMM:   9    -0.413176624444E+03    0.65836E-05   -0.10858E-05  3694   0.370E-03    0.612E-03
RMM:  10    -0.413176620977E+03    0.34670E-05   -0.19253E-06  2548   0.215E-03    0.373E-03
RMM:  11    -0.413176616661E+03    0.43165E-05   -0.20484E-06  2583   0.216E-03    0.174E-03
RMM:  12    -0.413176613241E+03    0.34191E-05   -0.82075E-07  2470   0.155E-03    0.566E-04
RMM:  13    -0.413176612615E+03    0.62678E-06   -0.31005E-07  2103   0.972E-04
   25 T=    63. E= -.41286684E+03 F= -.41317661E+03 E0= -.41315481E+03  EK= 0.30977E+00 SP= 0.00E+00 SK= 0.00E+00
       N       E                     dE             d eps       ncg     rms          rms(c)
RMM:   1    -0.413169536681E+03    0.70766E-02   -0.11335E+01  4298   0.809E-01    0.923E-01
RMM:   2    -0.413179005230E+03   -0.94685E-02   -0.13806E-01  4276   0.108E-01    0.642E-01
RMM:   3    -0.413178061717E+03    0.94351E-03   -0.73423E-03  4787   0.427E-02    0.170E-01
RMM:   4    -0.413205789872E+03   -0.27728E-01   -0.28106E-02  5155   0.140E-01    0.693E-01
RMM:   5    -0.413177685382E+03    0.28104E-01   -0.13945E-02  4808   0.116E-01    0.378E-02
RMM:   6    -0.413177837190E+03   -0.15181E-03   -0.22428E-03  5822   0.446E-02    0.218E-02
RMM:   7    -0.413177839231E+03   -0.20406E-05   -0.23467E-04  5775   0.137E-02    0.131E-02
RMM:   8    -0.413177833363E+03    0.58676E-05   -0.43311E-05  4870   0.622E-03    0.891E-03
RMM:   9    -0.413177824696E+03    0.86672E-05   -0.10601E-05  3722   0.366E-03    0.607E-03
RMM:  10    -0.413177818705E+03    0.59905E-05   -0.17510E-06  2542   0.212E-03    0.378E-03
RMM:  11    -0.413177810078E+03    0.86272E-05   -0.19962E-06  2570   0.218E-03    0.173E-03
RMM:  12    -0.413177803293E+03    0.67849E-05   -0.80627E-07  2470   0.157E-03    0.574E-04
RMM:  13    -0.413177802247E+03    0.10459E-05   -0.29559E-07  2099   0.960E-04    0.420E-04
RMM:  14    -0.413177800814E+03    0.14332E-05   -0.13585E-07  1468   0.718E-04    0.254E-04
RMM:  15    -0.413177795481E+03    0.53335E-05   -0.17706E-07  1934   0.799E-04    0.369E-04
RMM:  16    -0.413177794878E+03    0.60233E-06   -0.51091E-08   950   0.563E-04
   26 T=    63. E= -.41286668E+03 F= -.41317779E+03 E0= -.41315605E+03  EK= 0.31111E+00 SP= 0.00E+00 SK= 0.00E+00
       N       E                     dE             d eps       ncg     rms          rms(c)
RMM:   1    -0.413170580794E+03    0.72147E-02   -0.11297E+01  4294   0.804E-01    0.899E-01
RMM:   2    -0.413181171479E+03   -0.10591E-01   -0.13969E-01  4280   0.105E-01    0.645E-01
RMM:   3    -0.413179975940E+03    0.11955E-02   -0.70139E-03  4758   0.429E-02    0.166E-01
RMM:   4    -0.413206521218E+03   -0.26545E-01   -0.26931E-02  5153   0.137E-01    0.679E-01
RMM:   5    -0.413179572407E+03    0.26949E-01   -0.13439E-02  4810   0.113E-01    0.359E-02
RMM:   6    -0.413179717668E+03   -0.14526E-03   -0.21130E-03  5827   0.435E-02    0.208E-02
RMM:   7    -0.413179722644E+03   -0.49755E-05   -0.23239E-04  5800   0.136E-02    0.132E-02
RMM:   8    -0.413179719418E+03    0.32257E-05   -0.42597E-05  4869   0.627E-03    0.851E-03
RMM:   9    -0.413179713034E+03    0.63843E-05   -0.99026E-06  3616   0.361E-03    0.571E-03
RMM:  10    -0.413179709638E+03    0.33961E-05   -0.16555E-06  2538   0.205E-03    0.355E-03
RMM:  11    -0.413179705189E+03    0.44487E-05   -0.17741E-06  2550   0.206E-03    0.163E-03
RMM:  12    -0.413179701669E+03    0.35200E-05   -0.76923E-07  2456   0.149E-03    0.558E-04
RMM:  13    -0.413179701128E+03    0.54141E-06   -0.27921E-07  2021   0.928E-04
   27 T=    64. E= -.41286702E+03 F= -.41317970E+03 E0= -.41315800E+03  EK= 0.31269E+00 SP= 0.00E+00 SK= 0.00E+00
       N       E                     dE             d eps       ncg     rms          rms(c)
RMM:   1    -0.413171887839E+03    0.78138E-02   -0.11422E+01  4294   0.832E-01    0.908E-01
RMM:   2    -0.413182375040E+03   -0.10487E-01   -0.14267E-01  4273   0.108E-01    0.656E-01
RMM:   3    -0.413180945868E+03    0.14292E-02   -0.71462E-03  4627   0.433E-02    0.159E-01
RMM:   4    -0.413199492064E+03   -0.18546E-01   -0.18881E-02  5154   0.116E-01    0.571E-01
RMM:   5    -0.413180625555E+03    0.18867E-01   -0.93911E-03  4813   0.944E-02    0.315E-02
RMM:   6    -0.413180716948E+03   -0.91393E-04   -0.15013E-03  5840   0.360E-02    0.185E-02
RMM:   7    -0.413180719366E+03   -0.24188E-05   -0.14986E-04  5558   0.112E-02    0.996E-03
RMM:   8    -0.413180713381E+03    0.59852E-05   -0.24055E-05  4302   0.484E-03    0.633E-03
RMM:   9    -0.413180711803E+03    0.15779E-05   -0.74483E-06  3290   0.313E-03    0.512E-03
RMM:  10    -0.413180708731E+03    0.30720E-05   -0.12578E-06  2535   0.189E-03    0.326E-03
RMM:  11    -0.413180704099E+03    0.46323E-05   -0.16786E-06  2553   0.199E-03    0.156E-03
RMM:  12    -0.413180701044E+03    0.30553E-05   -0.65710E-07  2434   0.138E-03    0.643E-04
RMM:  13    -0.413180700512E+03    0.53155E-06   -0.21082E-07  1848   0.834E-04
   28 T=    64. E= -.41286662E+03 F= -.41318070E+03 E0= -.41315905E+03  EK= 0.31408E+00 SP= 0.00E+00 SK= 0.00E+00
       N       E                     dE             d eps       ncg     rms          rms(c)
RMM:   1    -0.413179827181E+03    0.87386E-03   -0.11539E+01  4293   0.865E-01    0.932E-01
RMM:   2    -0.413184045066E+03   -0.42179E-02   -0.14308E-01  4274   0.112E-01    0.648E-01
RMM:   3    -0.413182878154E+03    0.11669E-02   -0.74716E-03  4436   0.421E-02    0.165E-01
RMM:   4    -0.413190051970E+03   -0.71738E-02   -0.75610E-03  5173   0.732E-02    0.355E-01
RMM:   5    -0.413182912470E+03    0.71395E-02   -0.35555E-03  4835   0.581E-02    0.277E-02
RMM:   6    -0.413182927962E+03   -0.15491E-04   -0.60970E-04  5842   0.230E-02    0.188E-02
RMM:   7    -0.413182919015E+03    0.89473E-05   -0.11373E-04  5383   0.105E-02    0.103E-02
RMM:   8    -0.413182907372E+03    0.11642E-04   -0.12998E-05  3762   0.432E-03    0.435E-03
RMM:   9    -0.413182902533E+03    0.48390E-05   -0.24392E-06  2688   0.219E-03    0.328E-03
RMM:  10    -0.413182896816E+03    0.57174E-05   -0.79566E-07  2475   0.152E-03    0.195E-03
RMM:  11    -0.413182889287E+03    0.75289E-05   -0.61900E-07  2426   0.131E-03    0.828E-04
RMM:  12    -0.413182884129E+03    0.51578E-05   -0.31562E-07  2053   0.955E-04    0.326E-04
RMM:  13    -0.413182882128E+03    0.20011E-05   -0.14427E-07  1336   0.706E-04    0.184E-04
RMM:  14    -0.413182878597E+03    0.35307E-05   -0.10450E-07  1210   0.674E-04    0.101E-04
RMM:  15    -0.413182874154E+03    0.44428E-05   -0.10168E-07  1418   0.683E-04    0.119E-04
RMM:  16    -0.413182872538E+03    0.16168E-05   -0.52303E-08  1006   0.580E-04    0.637E-05
RMM:  17    -0.413182867919E+03    0.46187E-05   -0.87797E-08  1428   0.657E-04    0.504E-05
RMM:  18    -0.413182867669E+03    0.25009E-06   -0.24991E-08   755   0.508E-04
   29 T=    64. E= -.41286698E+03 F= -.41318287E+03 E0= -.41316127E+03  EK= 0.31589E+00 SP= 0.00E+00 SK= 0.00E+00
       N       E                     dE             d eps       ncg     rms          rms(c)
RMM:   1    -0.413175553908E+03    0.73140E-02   -0.11432E+01  4291   0.832E-01    0.909E-01
RMM:   2    -0.413186218635E+03   -0.10665E-01   -0.14251E-01  4274   0.110E-01    0.647E-01
RMM:   3    -0.413184745890E+03    0.14727E-02   -0.71824E-03  4454   0.459E-02    0.161E-01
RMM:   4    -0.413194450533E+03   -0.97046E-02   -0.10114E-02  5158   0.863E-02    0.415E-01
RMM:   5    -0.413184642868E+03    0.98077E-02   -0.49192E-03  4829   0.679E-02    0.276E-02
RMM:   6    -0.413184665944E+03   -0.23075E-04   -0.76121E-04  5854   0.259E-02    0.182E-02
RMM:   7    -0.413184663064E+03    0.28797E-05   -0.11993E-04  5486   0.106E-02    0.109E-02
RMM:   8    -0.413184652483E+03    0.10581E-04   -0.18134E-05  4167   0.490E-03    0.472E-03
RMM:   9    -0.413184649248E+03    0.32350E-05   -0.35919E-06  2812   0.253E-03    0.360E-03
RMM:  10    -0.413184645639E+03    0.36089E-05   -0.78847E-07  2488   0.154E-03    0.226E-03
RMM:  11    -0.413184640650E+03    0.49897E-05   -0.64526E-07  2457   0.132E-03    0.106E-03
RMM:  12    -0.413184636743E+03    0.39071E-05   -0.37400E-07  2126   0.100E-03    0.410E-04
RMM:  13    -0.413184635324E+03    0.14186E-05   -0.15380E-07  1405   0.725E-04    0.204E-04
RMM:  14    -0.413184633511E+03    0.18131E-05   -0.96697E-08  1131   0.655E-04    0.113E-04
RMM:  15    -0.413184630184E+03    0.33270E-05   -0.92862E-08  1248   0.672E-04    0.117E-04
RMM:  16    -0.413184629687E+03    0.49669E-06   -0.41359E-08   862   0.586E-04
   30 T=    65. E= -.41286692E+03 F= -.41318463E+03 E0= -.41316308E+03  EK= 0.31771E+00 SP= 0.00E+00 SK= 0.00E+00
       N       E                     dE             d eps       ncg     rms          rms(c)
RMM:   1    -0.413177931391E+03    0.66988E-02   -0.11573E+01  4292   0.874E-01    0.910E-01
RMM:   2    -0.413188673894E+03   -0.10743E-01   -0.14821E-01  4273   0.123E-01    0.662E-01
RMM:   3    -0.413186299890E+03    0.23740E-02   -0.71267E-03  4251   0.436E-02    0.157E-01
RMM:   4    -0.413187654968E+03   -0.13551E-02   -0.22461E-03  5085   0.394E-02    0.155E-01
RMM:   5    -0.413186317450E+03    0.13375E-02   -0.65758E-04  4790   0.258E-02    0.230E-02
RMM:   6    -0.413186311701E+03    0.57487E-05   -0.15358E-04  5587   0.127E-02    0.174E-02
RMM:   7    -0.413186304004E+03    0.76970E-05   -0.66125E-05  4821   0.796E-03    0.644E-03
RMM:   8    -0.413186301016E+03    0.29886E-05   -0.48267E-06  2948   0.304E-03    0.352E-03
RMM:   9    -0.413186300163E+03    0.85277E-06   -0.73507E-07  2466   0.157E-03
   31 T=    65. E= -.41286668E+03 F= -.41318630E+03 E0= -.41316480E+03  EK= 0.31962E+00 SP= 0.00E+00 SK= 0.00E+00
       N       E                     dE             d eps       ncg     rms          rms(c)
RMM:   1    -0.413187041900E+03   -0.74088E-03   -0.11726E+01  4291   0.923E-01    0.937E-01
RMM:   2    -0.413190382629E+03   -0.33407E-02   -0.15189E-01  4286   0.126E-01    0.657E-01
RMM:   3    -0.413188954056E+03    0.14286E-02   -0.75300E-03  4291   0.487E-02    0.170E-01
RMM:   4    -0.413190407144E+03   -0.14531E-02   -0.23273E-03  5088   0.435E-02    0.158E-01
RMM:   5    -0.413189038319E+03    0.13688E-02   -0.67518E-04  4783   0.267E-02    0.270E-02
RMM:   6    -0.413189021041E+03    0.17279E-04   -0.17427E-04  5498   0.141E-02    0.199E-02
RMM:   7    -0.413189001899E+03    0.19142E-04   -0.71097E-05  4851   0.832E-03    0.708E-03
RMM:   8    -0.413188995753E+03    0.61456E-05   -0.80196E-06  3493   0.369E-03    0.387E-03
RMM:   9    -0.413188993536E+03    0.22170E-05   -0.84356E-07  2445   0.164E-03    0.207E-03
RMM:  10    -0.413188984281E+03    0.92552E-05   -0.66419E-07  2336   0.126E-03    0.889E-04
RMM:  11    -0.413188978960E+03    0.53209E-05   -0.26946E-07  1839   0.866E-04    0.403E-04
RMM:  12    -0.413188974094E+03    0.48660E-05   -0.15760E-07  1371   0.737E-04    0.205E-04
RMM:  13    -0.413188970085E+03    0.40093E-05   -0.93963E-08  1026   0.647E-04    0.125E-04
RMM:  14    -0.413188964143E+03    0.59419E-05   -0.10183E-07  1266   0.667E-04    0.107E-04
RMM:  15    -0.413188958429E+03    0.57139E-05   -0.87653E-08  1258   0.639E-04    0.719E-05
RMM:  16    -0.413188956808E+03    0.16204E-05   -0.38294E-08   771   0.520E-04    0.527E-05
RMM:  17    -0.413188955100E+03    0.17088E-05   -0.30837E-08   731   0.513E-04    0.212E-05
RMM:  18    -0.413188954558E+03    0.54173E-06   -0.16318E-08   573   0.485E-04
   32 T=    66. E= -.41286705E+03 F= -.41318895E+03 E0= -.41316751E+03  EK= 0.32190E+00 SP= 0.00E+00 SK= 0.00E+00
       N       E                     dE             d eps       ncg     rms          rms(c)
RMM:   1    -0.413188613704E+03    0.34140E-03   -0.11695E+01  4287   0.932E-01    0.923E-01
RMM:   2    -0.413192600211E+03   -0.39865E-02   -0.15520E-01  4283   0.133E-01    0.653E-01
RMM:   3    -0.413190892544E+03    0.17077E-02   -0.71263E-03  4338   0.416E-02    0.175E-01
RMM:   4    -0.413193788364E+03   -0.28958E-02   -0.37674E-03  5124   0.536E-02    0.230E-01
RMM:   5    -0.413190867444E+03    0.29209E-02   -0.14383E-03  4805   0.379E-02    0.262E-02
RMM:   6    -0.413190854516E+03    0.12928E-04   -0.28264E-04  5679   0.172E-02    0.193E-02
RMM:   7    -0.413190840873E+03    0.13644E-04   -0.83919E-05  5094   0.898E-03    0.749E-03
RMM:   8    -0.413190834052E+03    0.68210E-05   -0.89846E-06  3489   0.377E-03    0.385E-03
RMM:   9    -0.413190831602E+03    0.24498E-05   -0.10929E-06  2519   0.180E-03    0.234E-03
RMM:  10    -0.413190825247E+03    0.63545E-05   -0.65941E-07  2419   0.130E-03    0.115E-03
RMM:  11    -0.413190820121E+03    0.51264E-05   -0.35972E-07  2118   0.974E-04    0.528E-04
RMM:  12    -0.413190815729E+03    0.43921E-05   -0.20048E-07  1573   0.792E-04    0.217E-04
RMM:  13    -0.413190813136E+03    0.25931E-05   -0.11154E-07  1147   0.671E-04    0.131E-04
RMM:  14    -0.413190809924E+03    0.32119E-05   -0.84486E-08  1150   0.644E-04    0.956E-05
RMM:  15    -0.413190805123E+03    0.48003E-05   -0.88512E-08  1320   0.655E-04    0.647E-05
RMM:  16    -0.413190803989E+03    0.11341E-05   -0.39691E-08   864   0.550E-04    0.517E-05
RMM:  17    -0.413190801759E+03    0.22305E-05   -0.38694E-08   921   0.555E-04    0.216E-05
RMM:  18    -0.413190800869E+03    0.88976E-06   -0.22134E-08   740   0.516E-04
   33 T=    66. E= -.41286678E+03 F= -.41319080E+03 E0= -.41316940E+03  EK= 0.32402E+00 SP= 0.00E+00 SK= 0.00E+00
       N       E                     dE             d eps       ncg     rms          rms(c)
RMM:   1    -0.413186528502E+03    0.42733E-02   -0.11768E+01  4295   0.944E-01    0.915E-01
RMM:   2    -0.413195237702E+03   -0.87092E-02   -0.15367E-01  4275   0.132E-01    0.666E-01
RMM:   3    -0.413193426651E+03    0.18111E-02   -0.72223E-03  4423   0.496E-02    0.165E-01
RMM:   4    -0.413200819753E+03   -0.73931E-02   -0.78866E-03  5149   0.776E-02    0.363E-01
RMM:   5    -0.413193416586E+03    0.74032E-02   -0.36344E-03  4812   0.596E-02    0.277E-02
RMM:   6    -0.413193403024E+03    0.13562E-04   -0.60008E-04  5777   0.245E-02    0.190E-02
RMM:   7    -0.413193401575E+03    0.14491E-05   -0.11278E-04  5359   0.104E-02    0.967E-03
RMM:   8    -0.413193394440E+03    0.71351E-05   -0.16966E-05  4097   0.473E-03    0.443E-03
RMM:   9    -0.413193392779E+03    0.16612E-05   -0.26923E-06  2730   0.231E-03    0.295E-03
RMM:  10    -0.413193389947E+03    0.28314E-05   -0.71409E-07  2446   0.143E-03    0.174E-03
RMM:  11    -0.413193386068E+03    0.38795E-05   -0.58912E-07  2408   0.121E-03    0.786E-04
RMM:  12    -0.413193383200E+03    0.28676E-05   -0.31454E-07  1850   0.904E-04    0.322E-04
RMM:  13    -0.413193381812E+03    0.13880E-05   -0.14830E-07  1268   0.706E-04    0.173E-04
RMM:  14    -0.413193380288E+03    0.15244E-05   -0.10014E-07  1088   0.658E-04    0.956E-05
RMM:  15    -0.413193377642E+03    0.26455E-05   -0.96664E-08  1186   0.667E-04    0.910E-05
RMM:  16    -0.413193377042E+03    0.60002E-06   -0.47948E-08   910   0.595E-04
   34 T=    66. E= -.41286691E+03 F= -.41319338E+03 E0= -.41317202E+03  EK= 0.32647E+00 SP= 0.00E+00 SK= 0.00E+00
       N       E                     dE             d eps       ncg     rms          rms(c)
RMM:   1    -0.413187456476E+03    0.59212E-02   -0.11863E+01  4300   0.920E-01    0.941E-01
RMM:   2    -0.413197838914E+03   -0.10382E-01   -0.15298E-01  4262   0.132E-01    0.666E-01
RMM:   3    -0.413196259395E+03    0.15795E-02   -0.74647E-03  4411   0.471E-02    0.170E-01
RMM:   4    -0.413201030031E+03   -0.47706E-02   -0.55143E-03  5156   0.635E-02    0.295E-01
RMM:   5    -0.413196168257E+03    0.48618E-02   -0.24429E-03  4813   0.488E-02    0.280E-02
RMM:   6    -0.413196155401E+03    0.12856E-04   -0.44129E-04  5737   0.208E-02    0.201E-02
RMM:   7    -0.413196144825E+03    0.10576E-04   -0.10232E-04  5266   0.974E-03    0.848E-03
RMM:   8    -0.413196136519E+03    0.83051E-05   -0.12872E-05  3801   0.419E-03    0.417E-03
RMM:   9    -0.413196133561E+03    0.29585E-05   -0.16644E-06  2600   0.200E-03    0.260E-03
RMM:  10    -0.413196127413E+03    0.61480E-05   -0.68758E-07  2458   0.135E-03    0.140E-03
RMM:  11    -0.413196120717E+03    0.66958E-05   -0.45057E-07  2233   0.108E-03    0.599E-04
RMM:  12    -0.413196115776E+03    0.49413E-05   -0.23710E-07  1763   0.841E-04    0.245E-04
RMM:  13    -0.413196113286E+03    0.24898E-05   -0.12280E-07  1172   0.682E-04    0.142E-04
RMM:  14    -0.413196110178E+03    0.31082E-05   -0.87427E-08  1114   0.649E-04    0.950E-05
RMM:  15    -0.413196104329E+03    0.58486E-05   -0.98318E-08  1417   0.679E-04    0.866E-05
RMM:  16    -0.413196103255E+03    0.10748E-05   -0.42933E-08   912   0.562E-04    0.697E-05
RMM:  17    -0.413196099906E+03    0.33482E-05   -0.47990E-08  1122   0.586E-04    0.353E-05
RMM:  18    -0.413196099159E+03    0.74733E-06   -0.21619E-08   753   0.514E-04
   35 T=    67. E= -.41286705E+03 F= -.41319610E+03 E0= -.41317479E+03  EK= 0.32905E+00 SP= 0.00E+00 SK= 0.00E+00
       N       E                     dE             d eps       ncg     rms          rms(c)
RMM:   1    -0.413193015208E+03    0.30847E-02   -0.11911E+01  4298   0.972E-01    0.940E-01
RMM:   2    -0.413199741178E+03   -0.67260E-02   -0.15433E-01  4259   0.125E-01    0.660E-01
RMM:   3    -0.413198482790E+03    0.12584E-02   -0.76829E-03  4797   0.467E-02    0.187E-01
RMM:   4    -0.413228894508E+03   -0.30412E-01   -0.30737E-02  5159   0.147E-01    0.727E-01
RMM:   5    -0.413198154358E+03    0.30740E-01   -0.15518E-02  4803   0.121E-01    0.407E-02
RMM:   6    -0.413198200852E+03   -0.46493E-04   -0.24620E-03  5849   0.466E-02    0.232E-02
RMM:   7    -0.413198209177E+03   -0.83257E-05   -0.26842E-04  5789   0.145E-02    0.141E-02
RMM:   8    -0.413198199983E+03    0.91947E-05   -0.45330E-05  4918   0.662E-03    0.892E-03
RMM:   9    -0.413198194743E+03    0.52396E-05   -0.14770E-05  4131   0.429E-03    0.591E-03
RMM:  10    -0.413198187140E+03    0.76031E-05   -0.22495E-06  2584   0.240E-03    0.336E-03
RMM:  11    -0.413198181231E+03    0.59091E-05   -0.13856E-06  2502   0.187E-03    0.190E-03
RMM:  12    -0.413198171274E+03    0.99569E-05   -0.10536E-06  2479   0.176E-03    0.738E-04
RMM:  13    -0.413198168141E+03    0.31333E-05   -0.37913E-07  2254   0.112E-03    0.518E-04
RMM:  14    -0.413198167434E+03    0.70647E-06   -0.15966E-07  1591   0.759E-04
   36 T=    67. E= -.41286677E+03 F= -.41319817E+03 E0= -.41317691E+03  EK= 0.33140E+00 SP= 0.00E+00 SK= 0.00E+00
       N       E                     dE             d eps       ncg     rms          rms(c)
RMM:   1    -0.413195268090E+03    0.29001E-02   -0.11972E+01  4304   0.993E-01    0.923E-01
RMM:   2    -0.413203426907E+03   -0.81588E-02   -0.15989E-01  4261   0.134E-01    0.671E-01
RMM:   3    -0.413201537260E+03    0.18896E-02   -0.73996E-03  4715   0.515E-02    0.184E-01
RMM:   4    -0.413230683353E+03   -0.29146E-01   -0.29456E-02  5163   0.144E-01    0.713E-01
RMM:   5    -0.413201160746E+03    0.29523E-01   -0.14897E-02  4801   0.119E-01    0.394E-02
RMM:   6    -0.413201205681E+03   -0.44935E-04   -0.23669E-03  5853   0.456E-02    0.222E-02
RMM:   7    -0.413201218043E+03   -0.12362E-04   -0.27252E-04  5818   0.143E-02    0.142E-02
RMM:   8    -0.413201210267E+03    0.77764E-05   -0.47188E-05  4956   0.677E-03    0.876E-03
RMM:   9    -0.413201206380E+03    0.38862E-05   -0.13085E-05  3979   0.413E-03    0.519E-03
RMM:  10    -0.413201201308E+03    0.50721E-05   -0.22572E-06  2589   0.227E-03    0.306E-03
RMM:  11    -0.413201196813E+03    0.44952E-05   -0.13247E-06  2506   0.181E-03    0.162E-03
RMM:  12    -0.413201190572E+03    0.62411E-05   -0.88301E-07  2464   0.157E-03    0.598E-04
RMM:  13    -0.413201188638E+03    0.19343E-05   -0.33871E-07  2157   0.103E-03    0.426E-04
RMM:  14    -0.413201187850E+03    0.78750E-06   -0.15330E-07  1471   0.732E-04
   37 T=    68. E= -.41286704E+03 F= -.41320119E+03 E0= -.41317997E+03  EK= 0.33415E+00 SP= 0.00E+00 SK= 0.00E+00
       N       E                     dE             d eps       ncg     rms          rms(c)
RMM:   1    -0.413195608540E+03    0.55801E-02   -0.12092E+01  4306   0.101E+00    0.945E-01
RMM:   2    -0.413206051334E+03   -0.10443E-01   -0.15893E-01  4259   0.128E-01    0.676E-01
RMM:   3    -0.413203989484E+03    0.20619E-02   -0.77564E-03  4740   0.511E-02    0.187E-01
RMM:   4    -0.413234336380E+03   -0.30347E-01   -0.30654E-02  5156   0.147E-01    0.727E-01
RMM:   5    -0.413203613159E+03    0.30723E-01   -0.15606E-02  4812   0.121E-01    0.403E-02
RMM:   6    -0.413203659105E+03   -0.45946E-04   -0.23799E-03  5835   0.462E-02    0.230E-02
RMM:   7    -0.413203670835E+03   -0.11730E-04   -0.28728E-04  5827   0.148E-02    0.148E-02
RMM:   8    -0.413203661185E+03    0.96498E-05   -0.48842E-05  5001   0.696E-03    0.871E-03
RMM:   9    -0.413203656317E+03    0.48683E-05   -0.12735E-05  3943   0.408E-03    0.518E-03
RMM:  10    -0.413203650195E+03    0.61224E-05   -0.21588E-06  2580   0.222E-03    0.307E-03
RMM:  11    -0.413203644677E+03    0.55172E-05   -0.12321E-06  2501   0.176E-03    0.163E-03
RMM:  12    -0.413203636874E+03    0.78031E-05   -0.84388E-07  2460   0.155E-03    0.601E-04
RMM:  13    -0.413203634358E+03    0.25160E-05   -0.33114E-07  2159   0.103E-03    0.430E-04
RMM:  14    -0.413203633418E+03    0.93988E-06   -0.15113E-07  1488   0.733E-04
   38 T=    69. E= -.41286700E+03 F= -.41320363E+03 E0= -.41318246E+03  EK= 0.33663E+00 SP= 0.00E+00 SK= 0.00E+00
       N       E                     dE             d eps       ncg     rms          rms(c)
RMM:   1    -0.413202634517E+03    0.99984E-03   -0.12178E+01  4303   0.108E+00    0.957E-01
RMM:   2    -0.413207757722E+03   -0.51232E-02   -0.16173E-01  4269   0.126E-01    0.669E-01
RMM:   3    -0.413206758910E+03    0.99881E-03   -0.83058E-03  4981   0.537E-02    0.219E-01
RMM:   4    -0.413256758228E+03   -0.49999E-01   -0.53515E-02  5140   0.192E-01    0.928E-01
RMM:   5    -0.413205711962E+03    0.51046E-01   -0.25406E-02  4790   0.156E-01    0.510E-02
RMM:   6    -0.413205850422E+03   -0.13846E-03   -0.40027E-03  5828   0.594E-02    0.264E-02
RMM:   7    -0.413205867730E+03   -0.17308E-04   -0.41855E-04  5801   0.175E-02    0.162E-02
RMM:   8    -0.413205861182E+03    0.65482E-05   -0.57239E-05  4892   0.682E-03    0.957E-03
RMM:   9    -0.413205851928E+03    0.92534E-05   -0.19945E-05  4376   0.463E-03    0.637E-03
RMM:  10    -0.413205845448E+03    0.64799E-05   -0.47944E-06  2898   0.293E-03    0.346E-03
RMM:  11    -0.413205838458E+03    0.69905E-05   -0.17323E-06  2519   0.211E-03    0.205E-03
RMM:  12    -0.413205828018E+03    0.10440E-04   -0.96734E-07  2477   0.172E-03    0.610E-04
RMM:  13    -0.413205824330E+03    0.36880E-05   -0.40433E-07  2305   0.115E-03    0.448E-04
RMM:  14    -0.413205822176E+03    0.21535E-05   -0.17953E-07  1774   0.803E-04    0.294E-04
RMM:  15    -0.413205814910E+03    0.72666E-05   -0.13415E-07  1659   0.746E-04    0.245E-04
RMM:  16    -0.413205814087E+03    0.82216E-06   -0.57027E-08  1021   0.585E-04
   39 T=    69. E= -.41286679E+03 F= -.41320581E+03 E0= -.41318468E+03  EK= 0.33903E+00 SP= 0.00E+00 SK= 0.00E+00
       N       E                     dE             d eps       ncg     rms          rms(c)
RMM:   1    -0.413202432096E+03    0.33828E-02   -0.12159E+01  4311   0.110E+00    0.934E-01
RMM:   2    -0.413211327840E+03   -0.88957E-02   -0.16365E-01  4266   0.131E-01    0.675E-01
RMM:   3    -0.413210235497E+03    0.10923E-02   -0.82918E-03  5018   0.569E-02    0.235E-01
RMM:   4    -0.413263917089E+03   -0.53682E-01   -0.59775E-02  5132   0.203E-01    0.963E-01
RMM:   5    -0.413208744173E+03    0.55173E-01   -0.27063E-02  4783   0.162E-01    0.531E-02
RMM:   6    -0.413208899913E+03   -0.15574E-03   -0.42936E-03  5815   0.615E-02    0.263E-02
RMM:   7    -0.413208920589E+03   -0.20676E-04   -0.46709E-04  5890   0.184E-02    0.178E-02
RMM:   8    -0.413208920622E+03   -0.33571E-07   -0.83578E-05  5221   0.833E-03    0.120E-02
RMM:   9    -0.413208909623E+03    0.11000E-04   -0.20226E-05  4388   0.499E-03    0.607E-03
RMM:  10    -0.413208904086E+03    0.55369E-05   -0.43814E-06  2730   0.283E-03    0.336E-03
RMM:  11    -0.413208899874E+03    0.42122E-05   -0.16106E-06  2507   0.204E-03    0.192E-03
RMM:  12    -0.413208893861E+03    0.60131E-05   -0.91944E-07  2476   0.165E-03    0.669E-04
RMM:  13    -0.413208890977E+03    0.28835E-05   -0.41600E-07  2290   0.114E-03    0.383E-04
RMM:  14    -0.413208888879E+03    0.20980E-05   -0.20682E-07  1801   0.820E-04    0.249E-04
RMM:  15    -0.413208884144E+03    0.47351E-05   -0.14742E-07  1468   0.735E-04    0.193E-04
RMM:  16    -0.413208883316E+03    0.82790E-06   -0.73131E-08  1050   0.613E-04
   40 T=    70. E= -.41286721E+03 F= -.41320888E+03 E0= -.41318778E+03  EK= 0.34167E+00 SP= 0.00E+00 SK= 0.00E+00
       N       E                     dE             d eps       ncg     rms          rms(c)
RMM:   1    -0.413218977541E+03   -0.10093E-01   -0.12452E+01  4306   0.125E+00    0.947E-01
RMM:   2    -0.413212917846E+03    0.60597E-02   -0.17444E-01  4269   0.140E-01    0.686E-01
RMM:   3    -0.413212237446E+03    0.68040E-03   -0.86855E-03  5047   0.595E-02    0.256E-01
RMM:   4    -0.413267634035E+03   -0.55397E-01   -0.63382E-02  5126   0.209E-01    0.980E-01
RMM:   5    -0.413210381006E+03    0.57253E-01   -0.27849E-02  4777   0.165E-01    0.553E-02
RMM:   6    -0.413210534614E+03   -0.15361E-03   -0.43905E-03  5810   0.625E-02    0.265E-02
RMM:   7    -0.413210556275E+03   -0.21661E-04   -0.48629E-04  5924   0.189E-02    0.185E-02
RMM:   8    -0.413210556216E+03    0.59030E-07   -0.89225E-05  5269   0.867E-03    0.122E-02
RMM:   9    -0.413210544921E+03    0.11294E-04   -0.19542E-05  4335   0.503E-03    0.564E-03
RMM:  10    -0.413210539665E+03    0.52560E-05   -0.46399E-06  2760   0.284E-03    0.317E-03
RMM:  11    -0.413210535656E+03    0.40091E-05   -0.15109E-06  2507   0.198E-03    0.177E-03
RMM:  12    -0.413210530195E+03    0.54615E-05   -0.81505E-07  2461   0.155E-03    0.653E-04
RMM:  13    -0.413210527245E+03    0.29497E-05   -0.38584E-07  2239   0.108E-03    0.338E-04
RMM:  14    -0.413210524681E+03    0.25645E-05   -0.20539E-07  1699   0.813E-04    0.215E-04
RMM:  15    -0.413210520541E+03    0.41397E-05   -0.14045E-07  1344   0.716E-04    0.132E-04
RMM:  16    -0.413210519384E+03    0.11566E-05   -0.80290E-08  1101   0.637E-04    0.676E-05
RMM:  17    -0.413210517198E+03    0.21860E-05   -0.68743E-08  1136   0.631E-04    0.561E-05
RMM:  18    -0.413210514362E+03    0.28360E-05   -0.59649E-08  1149   0.625E-04    0.329E-05
RMM:  19    -0.413210513302E+03    0.10602E-05   -0.31930E-08   900   0.576E-04    0.253E-05
RMM:  20    -0.413210512665E+03    0.63673E-06   -0.21999E-08   816   0.558E-04
   41 T=    70. E= -.41286676E+03 F= -.41321051E+03 E0= -.41318945E+03  EK= 0.34375E+00 SP= 0.00E+00 SK= 0.00E+00
       N       E                     dE             d eps       ncg     rms          rms(c)
RMM:   1    -0.413233579949E+03   -0.23067E-01   -0.12628E+01  4309   0.131E+00    0.972E-01
RMM:   2    -0.413214723601E+03    0.18856E-01   -0.18039E-01  4282   0.146E-01    0.680E-01
RMM:   3    -0.413216682405E+03   -0.19588E-02   -0.10799E-02  5114   0.730E-02    0.327E-01
RMM:   4    -0.413253004322E+03   -0.36322E-01   -0.52139E-02  5097   0.192E-01    0.832E-01
RMM:   5    -0.413212956218E+03    0.40048E-01   -0.18188E-02  4737   0.139E-01    0.544E-02
RMM:   6    -0.413213010212E+03   -0.53994E-04   -0.29984E-03  5752   0.521E-02    0.257E-02
RMM:   7    -0.413213021070E+03   -0.10857E-04   -0.37579E-04  5872   0.169E-02    0.185E-02
RMM:   8    -0.413213016690E+03    0.43794E-05   -0.78539E-05  5186   0.848E-03    0.107E-02
RMM:   9    -0.413213002835E+03    0.13855E-04   -0.16281E-05  4102   0.487E-03    0.417E-03
RMM:  10    -0.413212996680E+03    0.61550E-05   -0.34683E-06  2691   0.245E-03    0.245E-03
RMM:  11    -0.413212990012E+03    0.66680E-05   -0.11864E-06  2500   0.175E-03    0.127E-03
RMM:  12    -0.413212983452E+03    0.65600E-05   -0.54273E-07  2391   0.129E-03    0.560E-04
RMM:  13    -0.413212979105E+03    0.43463E-05   -0.28233E-07  1837   0.910E-04    0.249E-04
RMM:  14    -0.413212975118E+03    0.39873E-05   -0.17134E-07  1407   0.756E-04    0.142E-04
RMM:  15    -0.413212968880E+03    0.62380E-05   -0.14256E-07  1438   0.733E-04    0.105E-04
RMM:  16    -0.413212967078E+03    0.18024E-05   -0.88135E-08  1188   0.643E-04    0.757E-05
RMM:  17    -0.413212962912E+03    0.41656E-05   -0.83855E-08  1354   0.650E-04    0.568E-05
RMM:  18    -0.413212960436E+03    0.24761E-05   -0.53246E-08  1095   0.587E-04    0.434E-05
RMM:  19    -0.413212959868E+03    0.56836E-06   -0.31618E-08   846   0.536E-04
   42 T=    70. E= -.41286694E+03 F= -.41321296E+03 E0= -.41319192E+03  EK= 0.34602E+00 SP= 0.00E+00 SK= 0.00E+00
       N       E                     dE             d eps       ncg     rms          rms(c)
RMM:   1    -0.413216244801E+03   -0.32844E-02   -0.12394E+01  4310   0.131E+00    0.946E-01
RMM:   2    -0.413216753264E+03   -0.50846E-03   -0.17019E-01  4284   0.151E-01    0.679E-01
RMM:   3    -0.413219667016E+03   -0.29138E-02   -0.11502E-02  5102   0.802E-02    0.349E-01
RMM:   4    -0.413251049386E+03   -0.31382E-01   -0.50123E-02  5078   0.189E-01    0.790E-01
RMM:   5    -0.413214950987E+03    0.36098E-01   -0.15875E-02  4711   0.132E-01    0.525E-02
RMM:   6    -0.413214985147E+03   -0.34160E-04   -0.26679E-03  5735   0.493E-02    0.247E-02
RMM:   7    -0.413214992982E+03   -0.78351E-05   -0.33029E-04  5860   0.162E-02    0.179E-02
RMM:   8    -0.413214989149E+03    0.38335E-05   -0.71819E-05  5154   0.823E-03    0.101E-02
RMM:   9    -0.413214977711E+03    0.11438E-04   -0.15483E-05  4032   0.481E-03    0.391E-03
RMM:  10    -0.413214973354E+03    0.43567E-05   -0.31242E-06  2667   0.236E-03    0.229E-03
RMM:  11    -0.413214968186E+03    0.51682E-05   -0.12010E-06  2503   0.173E-03    0.121E-03
RMM:  12    -0.413214963569E+03    0.46167E-05   -0.53451E-07  2386   0.125E-03    0.534E-04
RMM:  13    -0.413214960405E+03    0.31647E-05   -0.28093E-07  1727   0.883E-04    0.242E-04
RMM:  14    -0.413214957456E+03    0.29490E-05   -0.17741E-07  1359   0.747E-04    0.132E-04
RMM:  15    -0.413214952644E+03    0.48112E-05   -0.15338E-07  1373   0.726E-04    0.948E-05
RMM:  16    -0.413214951136E+03    0.15089E-05   -0.91192E-08  1156   0.645E-04    0.719E-05
RMM:  17    -0.413214948123E+03    0.30126E-05   -0.78638E-08  1205   0.639E-04    0.510E-05
RMM:  18    -0.413214945686E+03    0.24365E-05   -0.62144E-08  1156   0.602E-04    0.456E-05
RMM:  19    -0.413214945206E+03    0.48055E-06   -0.30489E-08   802   0.540E-04
   43 T=    71. E= -.41286694E+03 F= -.41321495E+03 E0= -.41319394E+03  EK= 0.34801E+00 SP= 0.00E+00 SK= 0.00E+00
       N       E                     dE             d eps       ncg     rms          rms(c)
RMM:   1    -0.413255517758E+03   -0.40572E-01   -0.12898E+01  4312   0.154E+00    0.947E-01
RMM:   2    -0.413218160329E+03    0.37357E-01   -0.20863E-01  4286   0.172E-01    0.698E-01
RMM:   3    -0.413222014919E+03   -0.38546E-02   -0.12151E-02  5105   0.880E-02    0.407E-01
RMM:   4    -0.413251421487E+03   -0.29407E-01   -0.52097E-02  5062   0.193E-01    0.790E-01
RMM:   5    -0.413215970201E+03    0.35451E-01   -0.15677E-02  4700   0.134E-01    0.567E-02
RMM:   6    -0.413215983779E+03   -0.13578E-04   -0.26223E-03  5687   0.491E-02    0.254E-02
RMM:   7    -0.413215992729E+03   -0.89500E-05   -0.33682E-04  5902   0.165E-02    0.188E-02
RMM:   8    -0.413215989084E+03    0.36454E-05   -0.70138E-05  5175   0.819E-03    0.103E-02
RMM:   9    -0.413215979321E+03    0.97634E-05   -0.17692E-05  4135   0.515E-03    0.420E-03
RMM:  10    -0.413215976108E+03    0.32126E-05   -0.34101E-06  2697   0.241E-03    0.242E-03
RMM:  11    -0.413215972218E+03    0.38904E-05   -0.16794E-06  2560   0.191E-03    0.136E-03
RMM:  12    -0.413215969377E+03    0.28405E-05   -0.56534E-07  2452   0.133E-03    0.639E-04
RMM:  13    -0.413215966762E+03    0.26150E-05   -0.31854E-07  1669   0.909E-04    0.312E-04
RMM:  14    -0.413215964415E+03    0.23467E-05   -0.21060E-07  1420   0.785E-04    0.162E-04
RMM:  15    -0.413215961723E+03    0.26921E-05   -0.15767E-07  1338   0.726E-04    0.889E-05
RMM:  16    -0.413215959586E+03    0.21374E-05   -0.11464E-07  1256   0.676E-04    0.573E-05
RMM:  17    -0.413215957873E+03    0.17131E-05   -0.82878E-08  1181   0.630E-04    0.503E-05
RMM:  18    -0.413215955796E+03    0.20768E-05   -0.65781E-08  1099   0.598E-04    0.328E-05
RMM:  19    -0.413215955092E+03    0.70435E-06   -0.38201E-08   876   0.551E-04
   44 T=    71. E= -.41286663E+03 F= -.41321596E+03 E0= -.41319498E+03  EK= 0.34933E+00 SP= 0.00E+00 SK= 0.00E+00
       N       E                     dE             d eps       ncg     rms          rms(c)
RMM:   1    -0.413237348898E+03   -0.21393E-01   -0.12737E+01  4307   0.154E+00    0.978E-01
RMM:   2    -0.413218817434E+03    0.18531E-01   -0.17624E-01  4340   0.177E-01    0.687E-01
RMM:   3    -0.413229771505E+03   -0.10954E-01   -0.18896E-02  5140   0.115E-01    0.510E-01
RMM:   4    -0.413234709265E+03   -0.49378E-02   -0.39134E-02  5016   0.172E-01    0.562E-01
RMM:   5    -0.413217602641E+03    0.17107E-01   -0.64639E-03  4587   0.967E-02    0.474E-02
RMM:   6    -0.413217560494E+03    0.42148E-04   -0.11932E-03  5420   0.339E-02    0.232E-02
RMM:   7    -0.413217558093E+03    0.24002E-05   -0.15769E-04  5633   0.123E-02    0.165E-02
RMM:   8    -0.413217551112E+03    0.69818E-05   -0.66718E-05  5092   0.827E-03    0.860E-03
RMM:   9    -0.413217536648E+03    0.14464E-04   -0.13251E-05  3972   0.480E-03    0.350E-03
RMM:  10    -0.413217532799E+03    0.38490E-05   -0.19629E-06  2600   0.205E-03    0.193E-03
RMM:  11    -0.413217525438E+03    0.73605E-05   -0.11091E-06  2489   0.165E-03    0.113E-03
RMM:  12    -0.413217519955E+03    0.54835E-05   -0.45255E-07  2369   0.119E-03    0.536E-04
RMM:  13    -0.413217516072E+03    0.38825E-05   -0.21970E-07  1611   0.809E-04    0.257E-04
RMM:  14    -0.413217512384E+03    0.36883E-05   -0.13217E-07  1236   0.681E-04    0.138E-04
RMM:  15    -0.413217506424E+03    0.59599E-05   -0.12265E-07  1292   0.687E-04    0.116E-04
RMM:  16    -0.413217504108E+03    0.23157E-05   -0.69368E-08  1050   0.608E-04    0.101E-04
RMM:  17    -0.413217501134E+03    0.29745E-05   -0.58226E-08  1088   0.595E-04    0.561E-05
RMM:  18    -0.413217497678E+03    0.34563E-05   -0.54433E-08  1142   0.594E-04    0.516E-05
RMM:  19    -0.413217497339E+03    0.33848E-06   -0.21921E-08   736   0.508E-04
   45 T=    71. E= -.41286704E+03 F= -.41321750E+03 E0= -.41319654E+03  EK= 0.35046E+00 SP= 0.00E+00 SK= 0.00E+00
       N       E                     dE             d eps       ncg     rms          rms(c)
RMM:   1    -0.413231325752E+03   -0.13828E-01   -0.12569E+01  4306   0.160E+00    0.958E-01
RMM:   2    -0.413218791748E+03    0.12534E-01   -0.18208E-01  4363   0.187E-01    0.684E-01
RMM:   3    -0.413232136005E+03   -0.13344E-01   -0.20712E-02  5133   0.124E-01    0.556E-01
RMM:   4    -0.413232272111E+03   -0.13611E-03   -0.38582E-02  5005   0.172E-01    0.529E-01
RMM:   5    -0.413217570380E+03    0.14702E-01   -0.56803E-03  4564   0.935E-02    0.479E-02
RMM:   6    -0.413217508528E+03    0.61852E-04   -0.95722E-04  5224   0.315E-02    0.229E-02
RMM:   7    -0.413217505309E+03    0.32193E-05   -0.13002E-04  5693   0.111E-02    0.150E-02
RMM:   8    -0.413217502767E+03    0.25421E-05   -0.74886E-05  5185   0.865E-03    0.976E-03
RMM:   9    -0.413217487472E+03    0.15295E-04   -0.17943E-05  4343   0.541E-03    0.380E-03
RMM:  10    -0.413217484425E+03    0.30471E-05   -0.24460E-06  2656   0.219E-03    0.209E-03
RMM:  11    -0.413217478570E+03    0.58549E-05   -0.12799E-06  2484   0.181E-03    0.122E-03
RMM:  12    -0.413217474071E+03    0.44996E-05   -0.50768E-07  2402   0.129E-03    0.652E-04
RMM:  13    -0.413217470371E+03    0.37002E-05   -0.23116E-07  1661   0.857E-04    0.315E-04
RMM:  14    -0.413217466749E+03    0.36216E-05   -0.13110E-07  1302   0.700E-04    0.156E-04
RMM:  15    -0.413217461994E+03    0.47552E-05   -0.10657E-07  1184   0.662E-04    0.120E-04
RMM:  16    -0.413217459894E+03    0.20996E-05   -0.58632E-08   940   0.585E-04    0.982E-05
RMM:  17    -0.413217456662E+03    0.32321E-05   -0.57768E-08  1030   0.591E-04    0.612E-05
RMM:  18    -0.413217454069E+03    0.25932E-05   -0.45145E-08  1007   0.576E-04    0.389E-05
RMM:  19    -0.413217453545E+03    0.52352E-06   -0.17482E-08   664   0.507E-04
   46 T=    71. E= -.41286699E+03 F= -.41321745E+03 E0= -.41319652E+03  EK= 0.35047E+00 SP= 0.00E+00 SK= 0.00E+00
       N       E                     dE             d eps       ncg     rms          rms(c)
RMM:   1    -0.413247963609E+03   -0.30510E-01   -0.12763E+01  4309   0.174E+00    0.945E-01
RMM:   2    -0.413218617489E+03    0.29346E-01   -0.20528E-01  4365   0.209E-01    0.699E-01
RMM:   3    -0.413231978879E+03   -0.13361E-01   -0.20816E-02  5134   0.127E-01    0.579E-01
RMM:   4    -0.413232944746E+03   -0.96587E-03   -0.41209E-02  5011   0.178E-01    0.558E-01
RMM:   5    -0.413216734841E+03    0.16210E-01   -0.66616E-03  4563   0.101E-01    0.516E-02
RMM:   6    -0.413216661762E+03    0.73079E-04   -0.10943E-03  5251   0.337E-02    0.241E-02
RMM:   7    -0.413216658819E+03    0.29434E-05   -0.15310E-04  5760   0.120E-02    0.170E-02
RMM:   8    -0.413216654428E+03    0.43906E-05   -0.73462E-05  5195   0.855E-03    0.986E-03
RMM:   9    -0.413216640721E+03    0.13707E-04   -0.18366E-05  4326   0.553E-03    0.409E-03
RMM:  10    -0.413216638386E+03    0.23355E-05   -0.26093E-06  2667   0.222E-03    0.223E-03
RMM:  11    -0.413216634577E+03    0.38088E-05   -0.15529E-06  2517   0.192E-03    0.141E-03
RMM:  12    -0.413216631667E+03    0.29101E-05   -0.53917E-07  2422   0.134E-03    0.712E-04
RMM:  13    -0.413216628869E+03    0.27981E-05   -0.27029E-07  1732   0.893E-04    0.315E-04
RMM:  14    -0.413216626409E+03    0.24599E-05   -0.16775E-07  1394   0.733E-04    0.165E-04
RMM:  15    -0.413216623221E+03    0.31883E-05   -0.14191E-07  1242   0.687E-04    0.103E-04
RMM:  16    -0.413216621385E+03    0.18359E-05   -0.84384E-08  1040   0.612E-04    0.768E-05
RMM:  17    -0.413216619396E+03    0.19892E-05   -0.69549E-08  1040   0.594E-04    0.488E-05
RMM:  18    -0.413216617883E+03    0.15122E-05   -0.46439E-08   888   0.563E-04    0.328E-05
RMM:  19    -0.413216617436E+03    0.44715E-06   -0.24246E-08   698   0.524E-04
   47 T=    71. E= -.41286708E+03 F= -.41321662E+03 E0= -.41319570E+03  EK= 0.34954E+00 SP= 0.00E+00 SK= 0.00E+00
       N       E                     dE             d eps       ncg     rms          rms(c)
RMM:   1    -0.413276244122E+03   -0.59626E-01   -0.13007E+01  4304   0.195E+00    0.971E-01
RMM:   2    -0.413216422592E+03    0.59822E-01   -0.20669E-01  4455   0.210E-01    0.693E-01
RMM:   3    -0.413238878088E+03   -0.22455E-01   -0.29086E-02  5149   0.151E-01    0.696E-01
RMM:   4    -0.413224292301E+03    0.14586E-01   -0.38488E-02  4966   0.176E-01    0.444E-01
RMM:   5    -0.413215213995E+03    0.90783E-02   -0.47587E-03  4554   0.906E-02    0.570E-02
RMM:   6    -0.413215055098E+03    0.15890E-03   -0.49113E-04  4748   0.286E-02    0.260E-02
RMM:   7    -0.413215056807E+03   -0.17082E-05   -0.17425E-04  5912   0.133E-02    0.182E-02
RMM:   8    -0.413215039600E+03    0.17207E-04   -0.61079E-05  5074   0.855E-03    0.986E-03
RMM:   9    -0.413215027846E+03    0.11753E-04   -0.14006E-05  3987   0.480E-03    0.483E-03
RMM:  10    -0.413215023000E+03    0.48468E-05   -0.22436E-06  2577   0.240E-03    0.242E-03
RMM:  11    -0.413215017496E+03    0.55037E-05   -0.17011E-06  2510   0.202E-03    0.172E-03
RMM:  12    -0.413215013309E+03    0.41867E-05   -0.54412E-07  2402   0.137E-03    0.855E-04
RMM:  13    -0.413215008846E+03    0.44632E-05   -0.26967E-07  1812   0.893E-04    0.422E-04
RMM:  14    -0.413215003927E+03    0.49188E-05   -0.19608E-07  1711   0.769E-04    0.272E-04
RMM:  15    -0.413214999292E+03    0.46349E-05   -0.13187E-07  1195   0.634E-04    0.128E-04
RMM:  16    -0.413214996649E+03    0.26431E-05   -0.85891E-08  1140   0.597E-04    0.959E-05
RMM:  17    -0.413214994229E+03    0.24204E-05   -0.61998E-08  1029   0.569E-04    0.542E-05
RMM:  18    -0.413214992059E+03    0.21697E-05   -0.47606E-08   977   0.558E-04    0.436E-05
RMM:  19    -0.413214991382E+03    0.67708E-06   -0.23883E-08   747   0.513E-04
   48 T=    71. E= -.41286748E+03 F= -.41321499E+03 E0= -.41319409E+03  EK= 0.34751E+00 SP= 0.00E+00 SK= 0.00E+00
       N       E                     dE             d eps       ncg     rms          rms(c)
RMM:   1    -0.413275920316E+03   -0.60928E-01   -0.12831E+01  4304   0.208E+00    0.960E-01
RMM:   2    -0.413212163088E+03    0.63757E-01   -0.20588E-01  4474   0.223E-01    0.682E-01
RMM:   3    -0.413240525755E+03   -0.28363E-01   -0.34359E-02  5158   0.166E-01    0.768E-01
RMM:   4    -0.413217388735E+03    0.23137E-01   -0.38082E-02  4934   0.178E-01    0.393E-01
RMM:   5    -0.413211081580E+03    0.63072E-02   -0.49757E-03  4749   0.922E-02    0.685E-02
RMM:   6    -0.413210823856E+03    0.25772E-03   -0.50362E-04  4655   0.314E-02    0.299E-02
RMM:   7    -0.413210819925E+03    0.39309E-05   -0.16006E-04  5764   0.135E-02    0.202E-02
RMM:   8    -0.413210800643E+03    0.19281E-04   -0.44582E-05  4962   0.737E-03    0.977E-03
RMM:   9    -0.413210787898E+03    0.12746E-04   -0.13799E-05  3566   0.439E-03    0.429E-03
RMM:  10    -0.413210782272E+03    0.56259E-05   -0.23590E-06  2613   0.240E-03    0.245E-03
RMM:  11    -0.413210775344E+03    0.69277E-05   -0.11632E-06  2500   0.174E-03    0.152E-03
RMM:  12    -0.413210770977E+03    0.43666E-05   -0.44550E-07  2407   0.119E-03    0.708E-04
RMM:  13    -0.413210765747E+03    0.52302E-05   -0.29339E-07  1728   0.879E-04    0.358E-04
RMM:  14    -0.413210761302E+03    0.44449E-05   -0.20101E-07  1519   0.774E-04    0.265E-04
RMM:  15    -0.413210756241E+03    0.50612E-05   -0.16887E-07  1378   0.718E-04    0.135E-04
RMM:  16    -0.413210754169E+03    0.20723E-05   -0.96448E-08  1200   0.630E-04    0.101E-04
RMM:  17    -0.413210751113E+03    0.30563E-05   -0.85650E-08  1240   0.621E-04    0.526E-05
RMM:  18    -0.413210750066E+03    0.10465E-05   -0.45304E-08   953   0.553E-04    0.414E-05
RMM:  19    -0.413210749365E+03    0.70162E-06   -0.30294E-08   857   0.533E-04
   49 T=    70. E= -.41286718E+03 F= -.41321075E+03 E0= -.41318986E+03  EK= 0.34357E+00 SP= 0.00E+00 SK= 0.00E+00
       N       E                     dE             d eps       ncg     rms          rms(c)
RMM:   1    -0.413236970922E+03   -0.26221E-01   -0.12305E+01  4304   0.204E+00    0.928E-01
RMM:   2    -0.413207554863E+03    0.29416E-01   -0.20941E-01  4494   0.233E-01    0.689E-01
RMM:   3    -0.413234075125E+03   -0.26520E-01   -0.32555E-02  5162   0.164E-01    0.761E-01
RMM:   4    -0.413213026751E+03    0.21048E-01   -0.38678E-02  4941   0.179E-01    0.413E-01
RMM:   5    -0.413205848966E+03    0.71778E-02   -0.56071E-03  4733   0.966E-02    0.717E-02
RMM:   6    -0.413205568935E+03    0.28003E-03   -0.53766E-04  4650   0.327E-02    0.308E-02
RMM:   7    -0.413205565892E+03    0.30437E-05   -0.17058E-04  5804   0.139E-02    0.206E-02
RMM:   8    -0.413205547378E+03    0.18514E-04   -0.48273E-05  5022   0.750E-03    0.102E-02
RMM:   9    -0.413205536801E+03    0.10577E-04   -0.15840E-05  3724   0.469E-03    0.445E-03
RMM:  10    -0.413205532241E+03    0.45601E-05   -0.28014E-06  2655   0.257E-03    0.256E-03
RMM:  11    -0.413205527641E+03    0.45998E-05   -0.13157E-06  2507   0.185E-03    0.161E-03
RMM:  12    -0.413205524516E+03    0.31250E-05   -0.50016E-07  2449   0.125E-03    0.768E-04
RMM:  13    -0.413205520891E+03    0.36245E-05   -0.33432E-07  1815   0.920E-04    0.386E-04
RMM:  14    -0.413205517757E+03    0.31347E-05   -0.24533E-07  1649   0.802E-04    0.307E-04
RMM:  15    -0.413205514630E+03    0.31268E-05   -0.20256E-07  1367   0.728E-04    0.134E-04
RMM:  16    -0.413205513119E+03    0.15105E-05   -0.11533E-07  1232   0.648E-04    0.887E-05
RMM:  17    -0.413205511649E+03    0.14704E-05   -0.92413E-08  1185   0.624E-04    0.489E-05
RMM:  18    -0.413205510928E+03    0.72104E-06   -0.55550E-08  1008   0.569E-04
   50 T=    69. E= -.41286750E+03 F= -.41320551E+03 E0= -.41318463E+03  EK= 0.33801E+00 SP= 0.00E+00 SK= 0.00E+00
       N       E                     dE             d eps       ncg     rms          rms(c)
RMM:   1    -0.413232829824E+03   -0.27318E-01   -0.12118E+01  4300   0.218E+00    0.940E-01
RMM:   2    -0.413199424215E+03    0.33406E-01   -0.20584E-01  4543   0.246E-01    0.683E-01
RMM:   3    -0.413235579475E+03   -0.36155E-01   -0.41842E-02  5168   0.187E-01    0.863E-01
RMM:   4    -0.413202220540E+03    0.33359E-01   -0.39970E-02  4914   0.186E-01    0.356E-01
RMM:   5    -0.413198059054E+03    0.41615E-02   -0.70725E-03  5115   0.105E-01    0.945E-02
RMM:   6    -0.413197537472E+03    0.52158E-03   -0.95961E-04  4703   0.421E-02    0.362E-02
RMM:   7    -0.413197531001E+03    0.64715E-05   -0.24535E-04  5736   0.170E-02    0.229E-02
RMM:   8    -0.413197511146E+03    0.19855E-04   -0.45622E-05  5033   0.753E-03    0.113E-02
RMM:   9    -0.413197498430E+03    0.12716E-04   -0.17509E-05  3841   0.489E-03    0.463E-03
RMM:  10    -0.413197491809E+03    0.66214E-05   -0.39237E-06  2769   0.291E-03    0.300E-03
RMM:  11    -0.413197485193E+03    0.66159E-05   -0.16254E-06  2535   0.211E-03    0.165E-03
RMM:  12    -0.413197481750E+03    0.34423E-05   -0.58437E-07  2456   0.135E-03    0.777E-04
RMM:  13    -0.413197477115E+03    0.46356E-05   -0.41824E-07  2073   0.101E-03    0.511E-04
RMM:  14    -0.413197473581E+03    0.35339E-05   -0.26398E-07  1595   0.820E-04    0.280E-04
[...]
       N       E                     dE             d eps       ncg     rms          rms(c)
RMM:   1    -0.413143750915E+03    0.72432E-01   -0.56353E+00  4289   0.311E+00    0.503E-01
RMM:   2    -0.413139924043E+03    0.38269E-02   -0.22627E-01  5433   0.387E-01    0.435E-01
RMM:   3    -0.413144085343E+03   -0.41613E-02   -0.29045E-02  5249   0.182E-01    0.512E-01
RMM:   4    -0.413136590713E+03    0.74946E-02   -0.81605E-03  5064   0.110E-01    0.223E-01
RMM:   5    -0.413137385305E+03   -0.79459E-03   -0.84047E-03  5136   0.107E-01    0.140E-01
RMM:   6    -0.413136867331E+03    0.51797E-03   -0.38877E-03  5065   0.754E-02    0.668E-02
RMM:   7    -0.413136685533E+03    0.18180E-03   -0.58362E-04  5062   0.329E-02    0.280E-02
RMM:   8    -0.413136704592E+03   -0.19058E-04   -0.19922E-04  5999   0.146E-02    0.177E-02
RMM:   9    -0.413136719102E+03   -0.14511E-04   -0.52335E-05  4908   0.917E-03    0.831E-03
RMM:  10    -0.413136727310E+03   -0.82078E-05   -0.14643E-05  4112   0.497E-03    0.514E-03
RMM:  11    -0.413136732459E+03   -0.51490E-05   -0.34463E-06  2805   0.278E-03    0.266E-03
RMM:  12    -0.413136738300E+03   -0.58410E-05   -0.29871E-06  2776   0.238E-03    0.168E-03
RMM:  13    -0.413136740925E+03   -0.26242E-05   -0.15740E-06  2583   0.170E-03    0.948E-04
RMM:  14    -0.413136741845E+03   -0.92085E-06   -0.10252E-06  2197   0.124E-03
  140 T=    54. E= -.41286928E+03 F= -.41313674E+03 E0= -.41311492E+03  EK= 0.26746E+00 SP= 0.00E+00 SK= 0.00E+00
       N       E                     dE             d eps       ncg     rms          rms(c)
RMM:   1    -0.413108046489E+03    0.28694E-01   -0.38817E+00  4264   0.260E+00    0.304E-01
RMM:   2    -0.413127260621E+03   -0.19214E-01   -0.19876E-01  5469   0.326E-01    0.451E-01
RMM:   3    -0.413119102146E+03    0.81585E-02   -0.14383E-02  5143   0.130E-01    0.265E-01
RMM:   4    -0.413118732838E+03    0.36931E-03   -0.39220E-03  5465   0.750E-02    0.188E-01
RMM:   5    -0.413119333492E+03   -0.60065E-03   -0.19231E-03  4886   0.575E-02    0.105E-01
RMM:   6    -0.413119707704E+03   -0.37421E-03   -0.26737E-03  5084   0.629E-02    0.671E-02
RMM:   7    -0.413119458659E+03    0.24904E-03   -0.58607E-04  4852   0.328E-02    0.217E-02
RMM:   8    -0.413119465504E+03   -0.68449E-05   -0.19238E-04  5979   0.144E-02    0.154E-02
RMM:   9    -0.413119467148E+03   -0.16446E-05   -0.49522E-05  4667   0.796E-03    0.833E-03
RMM:  10    -0.413119468406E+03   -0.12582E-05   -0.89305E-06  3552   0.410E-03    0.406E-03
RMM:  11    -0.413119469400E+03   -0.99403E-06   -0.20992E-06  2612   0.228E-03
  141 T=    51. E= -.41286751E+03 F= -.41311947E+03 E0= -.41309739E+03  EK= 0.25196E+00 SP= 0.00E+00 SK= 0.00E+00
       N       E                     dE             d eps       ncg     rms          rms(c)
RMM:   1    -0.413161847779E+03   -0.42379E-01   -0.56494E+00  4275   0.263E+00    0.502E-01
RMM:   2    -0.413201996627E+03   -0.40149E-01   -0.33126E-01  5496   0.407E-01    0.720E-01
RMM:   3    -0.413183886748E+03    0.18110E-01   -0.24285E-02  5089   0.172E-01    0.487E-01
RMM:   4    -0.413182039319E+03    0.18474E-02   -0.60901E-03  5506   0.917E-02    0.377E-01
RMM:   5    -0.413182812544E+03   -0.77322E-03   -0.71982E-03  4585   0.108E-01    0.135E-01
RMM:   6    -0.413182826048E+03   -0.13505E-04   -0.63575E-03  5029   0.943E-02    0.952E-02
RMM:   7    -0.413182244420E+03    0.58163E-03   -0.11883E-03  4926   0.456E-02    0.323E-02
RMM:   8    -0.413182225434E+03    0.18986E-04   -0.32547E-04  5927   0.189E-02    0.206E-02
RMM:   9    -0.413182202848E+03    0.22586E-04   -0.15807E-04  4948   0.136E-02    0.102E-02
RMM:  10    -0.413182207970E+03   -0.51217E-05   -0.20707E-05  4258   0.529E-03    0.641E-03
RMM:  11    -0.413182219869E+03   -0.11898E-04   -0.54241E-06  3013   0.320E-03    0.327E-03
RMM:  12    -0.413182238964E+03   -0.19095E-04   -0.34262E-06  2803   0.279E-03    0.208E-03
RMM:  13    -0.413182259528E+03   -0.20564E-04   -0.33788E-06  2797   0.247E-03    0.102E-03
RMM:  14    -0.413182276404E+03   -0.16877E-04   -0.25941E-06  2732   0.195E-03    0.751E-04
RMM:  15    -0.413182291290E+03   -0.14885E-04   -0.22777E-06  2625   0.169E-03    0.622E-04
RMM:  16    -0.413182305551E+03   -0.14261E-04   -0.25551E-06  2622   0.162E-03    0.397E-04
RMM:  17    -0.413182313980E+03   -0.84290E-05   -0.13567E-06  1988   0.118E-03    0.289E-04
RMM:  18    -0.413182320599E+03   -0.66189E-05   -0.82078E-07  1905   0.102E-03    0.243E-04
RMM:  19    -0.413182323828E+03   -0.32296E-05   -0.33232E-07  1413   0.754E-04    0.150E-04
RMM:  20    -0.413182326729E+03   -0.29010E-05   -0.19409E-07  1278   0.675E-04    0.682E-05
RMM:  21    -0.413182328495E+03   -0.17659E-05   -0.11524E-07  1184   0.621E-04    0.743E-05
RMM:  22    -0.413182329365E+03   -0.86918E-06   -0.62769E-08  1027   0.575E-04
  142 T=    61. E= -.41288254E+03 F= -.41318233E+03 E0= -.41316009E+03  EK= 0.29979E+00 SP= 0.00E+00 SK= 0.00E+00
       N       E                     dE             d eps       ncg     rms          rms(c)
RMM:   1    -0.413119942337E+03    0.62386E-01   -0.68979E+00  4292   0.256E+00    0.641E-01
RMM:   2    -0.413148712575E+03   -0.28770E-01   -0.27517E-01  5442   0.367E-01    0.724E-01
RMM:   3    -0.413137448989E+03    0.11264E-01   -0.20604E-02  5102   0.157E-01    0.608E-01
RMM:   4    -0.413134141871E+03    0.33071E-02   -0.96098E-03  5366   0.113E-01    0.401E-01
RMM:   5    -0.413135640656E+03   -0.14988E-02   -0.21014E-02  4421   0.181E-01    0.169E-01
RMM:   6    -0.413134523396E+03    0.11173E-02   -0.39695E-03  4740   0.790E-02    0.819E-02
RMM:   7    -0.413134183363E+03    0.34003E-03   -0.48912E-04  4594   0.324E-02    0.348E-02
RMM:   8    -0.413134153511E+03    0.29852E-04   -0.25511E-04  5688   0.170E-02    0.164E-02
RMM:   9    -0.413134144718E+03    0.87931E-05   -0.11047E-04  5053   0.111E-02    0.102E-02
RMM:  10    -0.413134145760E+03   -0.10428E-05   -0.17322E-05  4131   0.477E-03    0.528E-03
RMM:  11    -0.413134153071E+03   -0.73107E-05   -0.68167E-06  3383   0.356E-03    0.320E-03
RMM:  12    -0.413134163027E+03   -0.99561E-05   -0.23129E-06  2674   0.245E-03    0.202E-03
RMM:  13    -0.413134172380E+03   -0.93531E-05   -0.14166E-06  2581   0.167E-03    0.975E-04
RMM:  14    -0.413134182734E+03   -0.10353E-04   -0.14829E-06  2566   0.153E-03    0.566E-04
RMM:  15    -0.413134192226E+03   -0.94921E-05   -0.14135E-06  2359   0.135E-03    0.428E-04
RMM:  16    -0.413134200097E+03   -0.78712E-05   -0.11904E-06  2116   0.119E-03    0.262E-04
RMM:  17    -0.413134207977E+03   -0.78799E-05   -0.12532E-06  2135   0.115E-03    0.207E-04
RMM:  18    -0.413134211758E+03   -0.37811E-05   -0.50248E-07  1515   0.815E-04    0.144E-04
RMM:  19    -0.413134214652E+03   -0.28939E-05   -0.25255E-07  1289   0.695E-04    0.754E-05
RMM:  20    -0.413134216835E+03   -0.21831E-05   -0.14973E-07  1158   0.638E-04    0.508E-05
RMM:  21    -0.413134217661E+03   -0.82578E-06   -0.74590E-08  1001   0.586E-04
  143 T=    58. E= -.41284830E+03 F= -.41313422E+03 E0= -.41311190E+03  EK= 0.28592E+00 SP= 0.00E+00 SK= 0.00E+00
       N       E                     dE             d eps       ncg     rms          rms(c)
RMM:   1    -0.413248078788E+03   -0.11386E+00   -0.71992E+00  4276   0.300E+00    0.798E-01
RMM:   2    -0.413217641946E+03    0.30437E-01   -0.23938E-01  5273   0.387E-01    0.498E-01
RMM:   3    -0.413292725655E+03   -0.75084E-01   -0.91360E-02  5229   0.296E-01    0.118E+00
RMM:   4    -0.413217372131E+03    0.75354E-01   -0.39142E-02  4833   0.221E-01    0.181E-01
RMM:   5    -0.413218279516E+03   -0.90738E-03   -0.17681E-02  5441   0.143E-01    0.139E-01
RMM:   6    -0.413217341458E+03    0.93806E-03   -0.35786E-03  5272   0.705E-02    0.616E-02
RMM:   7    -0.413217318545E+03    0.22914E-04   -0.73679E-04  5662   0.306E-02    0.304E-02
RMM:   8    -0.413217327569E+03   -0.90240E-05   -0.13655E-04  5926   0.140E-02    0.154E-02
RMM:   9    -0.413217337942E+03   -0.10373E-04   -0.42014E-05  5302   0.800E-03    0.966E-03
RMM:  10    -0.413217343504E+03   -0.55624E-05   -0.10560E-05  3601   0.420E-03    0.497E-03
RMM:  11    -0.413217348766E+03   -0.52619E-05   -0.58225E-06  3106   0.338E-03    0.267E-03
RMM:  12    -0.413217350370E+03   -0.16042E-05   -0.23930E-06  2688   0.234E-03    0.162E-03
RMM:  13    -0.413217349952E+03    0.41836E-06   -0.12375E-06  2534   0.157E-03
  144 T=    66. E= -.41289096E+03 F= -.41321735E+03 E0= -.41319465E+03  EK= 0.32639E+00 SP= 0.00E+00 SK= 0.00E+00
       N       E                     dE             d eps       ncg     rms          rms(c)
RMM:   1    -0.413203224097E+03    0.14126E-01   -0.79335E+00  4287   0.336E+00    0.762E-01
RMM:   2    -0.413162316588E+03    0.40908E-01   -0.26558E-01  5361   0.427E-01    0.457E-01
RMM:   3    -0.413223962487E+03   -0.61646E-01   -0.73831E-02  5258   0.276E-01    0.105E+00
RMM:   4    -0.413164219596E+03    0.59743E-01   -0.32488E-02  4910   0.195E-01    0.200E-01
RMM:   5    -0.413165444843E+03   -0.12252E-02   -0.17725E-02  5503   0.146E-01    0.163E-01
RMM:   6    -0.413164243784E+03    0.12011E-02   -0.39849E-03  5167   0.768E-02    0.701E-02
RMM:   7    -0.413164197791E+03    0.45993E-04   -0.90477E-04  5598   0.367E-02    0.313E-02
RMM:   8    -0.413164226944E+03   -0.29152E-04   -0.23313E-04  6060   0.174E-02    0.197E-02
RMM:   9    -0.413164242275E+03   -0.15332E-04   -0.56897E-05  5302   0.952E-03    0.121E-02
RMM:  10    -0.413164254413E+03   -0.12138E-04   -0.25455E-05  4889   0.628E-03    0.603E-03
RMM:  11    -0.413164263573E+03   -0.91596E-05   -0.10154E-05  3615   0.432E-03    0.359E-03
RMM:  12    -0.413164268055E+03   -0.44825E-05   -0.50182E-06  2930   0.309E-03    0.260E-03
RMM:  13    -0.413164268558E+03   -0.50312E-06   -0.29232E-06  2742   0.224E-03
  145 T=    59. E= -.41287460E+03 F= -.41316427E+03 E0= -.41314122E+03  EK= 0.28966E+00 SP= 0.00E+00 SK= 0.00E+00
       N       E                     dE             d eps       ncg     rms          rms(c)
RMM:   1    -0.413150930684E+03    0.13337E-01   -0.54647E+00  4264   0.298E+00    0.423E-01
RMM:   2    -0.413150639493E+03    0.29119E-03   -0.22945E-01  5347   0.343E-01    0.293E-01
RMM:   3    -0.413164310103E+03   -0.13671E-01   -0.21919E-02  5293   0.152E-01    0.500E-01
RMM:   4    -0.413152199245E+03    0.12111E-01   -0.85032E-03  4977   0.103E-01    0.161E-01
RMM:   5    -0.413152586659E+03   -0.38741E-03   -0.34992E-03  5345   0.777E-02    0.816E-02
RMM:   6    -0.413152445024E+03    0.14164E-03   -0.91499E-04  5050   0.405E-02    0.254E-02
RMM:   7    -0.413152474972E+03   -0.29948E-04   -0.26677E-04  6042   0.177E-02    0.214E-02
RMM:   8    -0.413152468420E+03    0.65514E-05   -0.77932E-05  5273   0.988E-03    0.136E-02
RMM:   9    -0.413152469690E+03   -0.12699E-05   -0.37905E-05  5248   0.765E-03    0.627E-03
RMM:  10    -0.413152468320E+03    0.13703E-05   -0.83494E-06  3489   0.368E-03    0.377E-03
RMM:  11    -0.413152466460E+03    0.18600E-05   -0.24004E-06  2655   0.252E-03    0.179E-03
RMM:  12    -0.413152464437E+03    0.20231E-05   -0.14497E-06  2526   0.187E-03    0.129E-03
RMM:  13    -0.413152460925E+03    0.35120E-05   -0.88620E-07  2345   0.140E-03    0.695E-04
RMM:  14    -0.413152458036E+03    0.28888E-05   -0.48735E-07  1828   0.962E-04    0.390E-04
RMM:  15    -0.413152453524E+03    0.45119E-05   -0.53165E-07  1900   0.973E-04    0.274E-04
RMM:  16    -0.413152448244E+03    0.52799E-05   -0.51319E-07  1717   0.880E-04    0.191E-04
RMM:  17    -0.413152442937E+03    0.53069E-05   -0.44881E-07  1625   0.827E-04    0.117E-04
RMM:  18    -0.413152439326E+03    0.36109E-05   -0.26461E-07  1435   0.707E-04    0.913E-05
RMM:  19    -0.413152438101E+03    0.12254E-05   -0.11079E-07  1082   0.581E-04    0.553E-05
RMM:  20    -0.413152436684E+03    0.14169E-05   -0.77430E-08  1057   0.562E-04    0.283E-05
RMM:  21    -0.413152436152E+03    0.53253E-06   -0.39443E-08   902   0.529E-04
  146 T=    57. E= -.41287322E+03 F= -.41315244E+03 E0= -.41312931E+03  EK= 0.27922E+00 SP= 0.00E+00 SK= 0.00E+00
       N       E                     dE             d eps       ncg     rms          rms(c)
RMM:   1    -0.413199562055E+03   -0.47125E-01   -0.64688E+00  4275   0.316E+00    0.473E-01
RMM:   2    -0.413217882167E+03   -0.18320E-01   -0.38450E-01  5270   0.378E-01    0.420E-01
RMM:   3    -0.413225626396E+03   -0.77442E-02   -0.22085E-02  5287   0.150E-01    0.526E-01
RMM:   4    -0.413217664062E+03    0.79623E-02   -0.50500E-03  4845   0.863E-02    0.279E-01
RMM:   5    -0.413219814157E+03   -0.21501E-02   -0.12459E-02  5234   0.130E-01    0.170E-01
RMM:   6    -0.413218163934E+03    0.16502E-02   -0.48344E-03  4943   0.850E-02    0.539E-02
RMM:   7    -0.413218152408E+03    0.11526E-04   -0.10894E-03  5827   0.385E-02    0.316E-02
RMM:   8    -0.413218118075E+03    0.34333E-04   -0.12919E-04  5307   0.134E-02    0.177E-02
RMM:   9    -0.413218102340E+03    0.15735E-04   -0.87680E-05  5213   0.111E-02    0.101E-02
RMM:  10    -0.413218100672E+03    0.16679E-05   -0.24672E-05  4563   0.573E-03    0.671E-03
RMM:  11    -0.413218102533E+03   -0.18614E-05   -0.10927E-05  4078   0.419E-03    0.309E-03
RMM:  12    -0.413218105539E+03   -0.30054E-05   -0.21775E-06  2609   0.241E-03    0.231E-03
RMM:  13    -0.413218109298E+03   -0.37596E-05   -0.10758E-06  2532   0.174E-03    0.116E-03
RMM:  14    -0.413218112933E+03   -0.36349E-05   -0.65870E-07  2354   0.121E-03    0.608E-04
RMM:  15    -0.413218117014E+03   -0.40810E-05   -0.58662E-07  2015   0.104E-03    0.347E-04
RMM:  16    -0.413218121416E+03   -0.44022E-05   -0.66544E-07  2098   0.103E-03    0.268E-04
RMM:  17    -0.413218124780E+03   -0.33634E-05   -0.47008E-07  1649   0.849E-04    0.198E-04
RMM:  18    -0.413218128631E+03   -0.38513E-05   -0.48658E-07  1695   0.866E-04    0.149E-04
RMM:  19    -0.413218129991E+03   -0.13595E-05   -0.17416E-07  1146   0.649E-04    0.782E-05
RMM:  20    -0.413218131523E+03   -0.15323E-05   -0.11885E-07  1108   0.626E-04    0.530E-05
RMM:  21    -0.413218132738E+03   -0.12155E-05   -0.81604E-08  1053   0.598E-04    0.430E-05
RMM:  22    -0.413218133165E+03   -0.42670E-06   -0.37391E-08   858   0.557E-04
  147 T=    68. E= -.41288300E+03 F= -.41321813E+03 E0= -.41319503E+03  EK= 0.33513E+00 SP= 0.00E+00 SK= 0.00E+00
       N       E                     dE             d eps       ncg     rms          rms(c)
RMM:   1    -0.413195040107E+03    0.23093E-01   -0.85755E+00  4291   0.327E+00    0.721E-01
RMM:   2    -0.413216012502E+03   -0.20972E-01   -0.37653E-01  5211   0.403E-01    0.646E-01
RMM:   3    -0.413226394213E+03   -0.10382E-01   -0.32663E-02  5262   0.186E-01    0.744E-01
RMM:   4    -0.413212435339E+03    0.13959E-01   -0.10882E-02  4786   0.126E-01    0.318E-01
RMM:   5    -0.413215700973E+03   -0.32656E-02   -0.23199E-02  5201   0.170E-01    0.212E-01
RMM:   6    -0.413212468798E+03    0.32322E-02   -0.75714E-03  4925   0.105E-01    0.538E-02
RMM:   7    -0.413212486030E+03   -0.17232E-04   -0.15804E-03  5892   0.437E-02    0.331E-02
RMM:   8    -0.413212436351E+03    0.49679E-04   -0.16450E-04  4949   0.161E-02    0.151E-02
RMM:   9    -0.413212424730E+03    0.11621E-04   -0.72792E-05  5346   0.982E-03    0.806E-03
RMM:  10    -0.413212426685E+03   -0.19553E-05   -0.16845E-05  4148   0.461E-03    0.535E-03
RMM:  11    -0.413212433823E+03   -0.71381E-05   -0.53831E-06  3085   0.333E-03    0.287E-03
RMM:  12    -0.413212442457E+03   -0.86336E-05   -0.25876E-06  2713   0.248E-03    0.184E-03
RMM:  13    -0.413212450079E+03   -0.76221E-05   -0.14302E-06  2566   0.180E-03    0.968E-04
RMM:  14    -0.413212457563E+03   -0.74843E-05   -0.11393E-06  2489   0.144E-03    0.569E-04
RMM:  15    -0.413212464918E+03   -0.73544E-05   -0.10836E-06  2281   0.126E-03    0.373E-04
RMM:  16    -0.413212473380E+03   -0.84627E-05   -0.15179E-06  2497   0.137E-03    0.248E-04
RMM:  17    -0.413212478038E+03   -0.46574E-05   -0.82053E-07  1676   0.965E-04    0.163E-04
RMM:  18    -0.413212481749E+03   -0.37114E-05   -0.47515E-07  1674   0.861E-04    0.102E-04
RMM:  19    -0.413212484052E+03   -0.23028E-05   -0.24204E-07  1389   0.710E-04    0.792E-05
RMM:  20    -0.413212485955E+03   -0.19034E-05   -0.13934E-07  1164   0.631E-04    0.519E-05
RMM:  21    -0.413212487089E+03   -0.11331E-05   -0.83885E-08  1049   0.589E-04    0.276E-05
RMM:  22    -0.413212487521E+03   -0.43216E-06   -0.42944E-08   919   0.557E-04
  148 T=    67. E= -.41288522E+03 F= -.41321249E+03 E0= -.41318956E+03  EK= 0.32727E+00 SP= 0.00E+00 SK= 0.00E+00
       N       E                     dE             d eps       ncg     rms          rms(c)
RMM:   1    -0.413125477596E+03    0.87009E-01   -0.63123E+00  4272   0.274E+00    0.719E-01
RMM:   2    -0.413143915841E+03   -0.18438E-01   -0.24865E-01  5318   0.357E-01    0.671E-01
RMM:   3    -0.413147028198E+03   -0.31124E-02   -0.28282E-02  5176   0.178E-01    0.681E-01
RMM:   4    -0.413137343829E+03    0.96844E-02   -0.15613E-02  4997   0.156E-01    0.242E-01
RMM:   5    -0.413138174902E+03   -0.83107E-03   -0.14668E-02  5066   0.142E-01    0.137E-01
RMM:   6    -0.413136870815E+03    0.13041E-02   -0.41154E-03  4940   0.792E-02    0.520E-02
RMM:   7    -0.413136736025E+03    0.13479E-03   -0.51743E-04  5250   0.310E-02    0.234E-02
RMM:   8    -0.413136734481E+03    0.15439E-05   -0.13090E-04  5665   0.131E-02    0.150E-02
RMM:   9    -0.413136729603E+03    0.48780E-05   -0.39226E-05  4750   0.778E-03    0.615E-03
RMM:  10    -0.413136729626E+03   -0.22057E-07   -0.11628E-05  3737   0.382E-03    0.374E-03
RMM:  11    -0.413136729760E+03   -0.13454E-06   -0.20155E-06  2623   0.233E-03
  149 T=    55. E= -.41286495E+03 F= -.41313673E+03 E0= -.41311397E+03  EK= 0.27178E+00 SP= 0.00E+00 SK= 0.00E+00
       N       E                     dE             d eps       ncg     rms          rms(c)
RMM:   1    -0.413192807115E+03   -0.56077E-01   -0.72074E+00  4272   0.314E+00    0.789E-01
RMM:   2    -0.413184219305E+03    0.85878E-02   -0.29206E-01  5416   0.466E-01    0.707E-01
RMM:   3    -0.413194357335E+03   -0.10138E-01   -0.51184E-02  5248   0.238E-01    0.763E-01
RMM:   4    -0.413175776683E+03    0.18581E-01   -0.22821E-02  5082   0.190E-01    0.276E-01
RMM:   5    -0.413175570598E+03    0.20609E-03   -0.10126E-02  4818   0.131E-01    0.100E-01
RMM:   6    -0.413175487906E+03    0.82692E-04   -0.35894E-03  5265   0.706E-02    0.749E-02
RMM:   7    -0.413175205194E+03    0.28271E-03   -0.79490E-04  4949   0.366E-02    0.293E-02
RMM:   8    -0.413175240521E+03   -0.35326E-04   -0.23272E-04  5736   0.181E-02    0.181E-02
RMM:   9    -0.413175267206E+03   -0.26685E-04   -0.47173E-05  4936   0.858E-03    0.101E-02
RMM:  10    -0.413175284112E+03   -0.16906E-04   -0.21838E-05  4513   0.599E-03    0.431E-03
RMM:  11    -0.413175295243E+03   -0.11131E-04   -0.89535E-06  3336   0.369E-03    0.329E-03
RMM:  12    -0.413175302643E+03   -0.73995E-05   -0.42426E-06  2833   0.281E-03    0.162E-03
RMM:  13    -0.413175306246E+03   -0.36030E-05   -0.31931E-06  2764   0.214E-03    0.119E-03
RMM:  14    -0.413175307247E+03   -0.10010E-05   -0.33669E-06  2711   0.204E-03    0.716E-04
RMM:  15    -0.413175305929E+03    0.13175E-05   -0.17410E-06  2093   0.133E-03    0.466E-04
RMM:  16    -0.413175301320E+03    0.46097E-05   -0.19169E-06  2582   0.157E-03    0.379E-04
RMM:  17    -0.413175296665E+03    0.46547E-05   -0.10859E-06  1717   0.106E-03    0.180E-04
RMM:  18    -0.413175292557E+03    0.41080E-05   -0.59132E-07  1783   0.919E-04    0.123E-04
RMM:  19    -0.413175289877E+03    0.26802E-05   -0.23627E-07  1397   0.709E-04    0.849E-05
RMM:  20    -0.413175287409E+03    0.24675E-05   -0.15041E-07  1271   0.643E-04    0.539E-05
RMM:  21    -0.413175285868E+03    0.15413E-05   -0.94346E-08  1118   0.595E-04    0.343E-05
RMM:  22    -0.413175285064E+03    0.80375E-06   -0.55668E-08  1004   0.560E-04
  150 T=    61. E= -.41287738E+03 F= -.41317529E+03 E0= -.41315260E+03  EK= 0.29790E+00 SP= 0.00E+00 SK= 0.00E+00
