       N       E                     dE             d eps       ncg     rms          rms(c)
RMM:   1     0.220152111093E+04    0.22015E+04   -0.52442E+04  2132   0.654E+02
RMM:   2     0.705541813864E+03   -0.14960E+04   -0.16263E+04  2132   0.177E+02
RMM:   3     0.137592194183E+03   -0.56795E+03   -0.65729E+03  2132   0.117E+02
RMM:   4    -0.159247502866E+03   -0.29684E+03   -0.27859E+03  2132   0.936E+01
RMM:   5    -0.287486876108E+03   -0.12824E+03   -0.11451E+03  2132   0.595E+01
RMM:   6    -0.349756636025E+03   -0.62270E+02   -0.55132E+02  2132   0.423E+01
RMM:   7    -0.382635496318E+03   -0.32879E+02   -0.30421E+02  2132   0.293E+01
RMM:   8    -0.404105603926E+03   -0.21470E+02   -0.18481E+02  2132   0.233E+01
RMM:   9    -0.435958893828E+03   -0.31853E+02   -0.30770E+02  6101   0.174E+01
RMM:  10    -0.441264869271E+03   -0.53060E+01   -0.63237E+01  6386   0.541E+00
RMM:  11    -0.442512943723E+03   -0.12481E+01   -0.11228E+01  6225   0.174E+00
RMM:  12    -0.442893689907E+03   -0.38075E+00   -0.28489E+00  6374   0.610E-01    0.134E+02
RMM:  13    -0.425663404049E+03    0.17230E+02   -0.81452E+01  4677   0.120E+01    0.712E+01
RMM:  14    -0.500163270299E+03   -0.74500E+02   -0.54529E+02  5421   0.233E+01    0.308E+01
RMM:  15    -0.416448490076E+03    0.83715E+02   -0.20145E+02  5099   0.164E+01    0.739E+00
RMM:  16    -0.414016005907E+03    0.24325E+01   -0.39896E+01  6098   0.614E+00    0.430E+00
RMM:  17    -0.413203116555E+03    0.81289E+00   -0.25666E+00  5407   0.191E+00    0.242E+00
RMM:  18    -0.413178420250E+03    0.24696E-01   -0.74603E-01  5996   0.882E-01    0.169E+00
RMM:  19    -0.413171667524E+03    0.67527E-02   -0.26759E-01  5661   0.562E-01    0.881E-01
RMM:  20    -0.413190737116E+03   -0.19070E-01   -0.28918E-01  5588   0.556E-01    0.625E-01
RMM:  21    -0.413169813914E+03    0.20923E-01   -0.36039E-02  4981   0.244E-01    0.289E-01
RMM:  22    -0.413166430640E+03    0.33833E-02   -0.22560E-02  5921   0.141E-01    0.134E-01
RMM:  23    -0.413165319944E+03    0.11107E-02   -0.55445E-03  6022   0.651E-02    0.841E-02
RMM:  24    -0.413163872340E+03    0.14476E-02   -0.16922E-03  5298   0.407E-02    0.524E-02
RMM:  25    -0.413163067974E+03    0.80437E-03   -0.90677E-04  5097   0.291E-02    0.383E-02
RMM:  26    -0.413163111496E+03   -0.43522E-04   -0.11081E-03  5827   0.335E-02    0.359E-02
RMM:  27    -0.413163458202E+03   -0.34671E-03   -0.20817E-04  4586   0.200E-02    0.204E-02
RMM:  28    -0.413163885891E+03   -0.42769E-03   -0.18128E-04  5168   0.190E-02    0.940E-03
RMM:  29    -0.413164274619E+03   -0.38873E-03   -0.12134E-04  4625   0.163E-02    0.504E-03
RMM:  30    -0.413164497865E+03   -0.22325E-03   -0.80481E-05  4317   0.105E-02    0.440E-03
RMM:  31    -0.413164628829E+03   -0.13096E-03   -0.59381E-05  3240   0.746E-03    0.365E-03
RMM:  32    -0.413164650522E+03   -0.21693E-04   -0.23009E-05  2997   0.320E-03    0.202E-03
RMM:  33    -0.413164658370E+03   -0.78479E-05   -0.90631E-06  2797   0.226E-03    0.709E-04
RMM:  34    -0.413164658981E+03   -0.61070E-06   -0.49300E-06  2647   0.166E-03
    1 T=    61. E= -.41286690E+03 F= -.41316466E+03 E0= -.41314216E+03  EK= 0.29776E+00 SP= 0.00E+00 SK= 0.00E+00
       N       E                     dE             d eps       ncg     rms          rms(c)
RMM:   1    -0.413175093105E+03   -0.10435E-01   -0.59787E+00  4009   0.477E-01    0.914E-01
RMM:   2    -0.413171928406E+03    0.31647E-02   -0.78267E-02  3979   0.739E-02    0.665E-01
RMM:   3    -0.413168282596E+03    0.36458E-02   -0.56362E-02  5102   0.797E-02    0.336E-01
RMM:   4    -0.413184449214E+03   -0.16167E-01   -0.27523E-02  5162   0.141E-01    0.602E-01
RMM:   5    -0.413164243316E+03    0.20206E-01   -0.10764E-02  4755   0.102E-01    0.451E-02
RMM:   6    -0.413164365149E+03   -0.12183E-03   -0.16936E-03  5669   0.400E-02    0.282E-02
RMM:   7    -0.413164394607E+03   -0.29459E-04   -0.29479E-04  5759   0.151E-02    0.188E-02
RMM:   8    -0.413164399864E+03   -0.52564E-05   -0.38013E-05  4820   0.683E-03    0.630E-03
RMM:   9    -0.413164403651E+03   -0.37870E-05   -0.74595E-06  3097   0.294E-03    0.411E-03
RMM:  10    -0.413164409424E+03   -0.57731E-05   -0.17236E-06  2556   0.187E-03    0.258E-03
RMM:  11    -0.413164413936E+03   -0.45124E-05   -0.10615E-06  2469   0.139E-03    0.118E-03
RMM:  12    -0.413164419550E+03   -0.56132E-05   -0.93722E-07  2440   0.127E-03    0.603E-04
RMM:  13    -0.413164421952E+03   -0.24024E-05   -0.48679E-07  1929   0.933E-04    0.365E-04
RMM:  14    -0.413164422815E+03   -0.86283E-06   -0.30510E-07  1447   0.742E-04
    2 T=    61. E= -.41286676E+03 F= -.41316442E+03 E0= -.41314192E+03  EK= 0.29766E+00 SP= 0.00E+00 SK= 0.00E+00
       N       E                     dE             d eps       ncg     rms          rms(c)
RMM:   1    -0.413176192045E+03   -0.11770E-01   -0.59232E+00  4194   0.474E-01    0.931E-01
RMM:   2    -0.413172156037E+03    0.40360E-02   -0.78587E-02  4075   0.753E-02    0.664E-01
RMM:   3    -0.413169828788E+03    0.23272E-02   -0.53052E-02  5119   0.856E-02    0.337E-01
RMM:   4    -0.413183780525E+03   -0.13952E-01   -0.28032E-02  5119   0.144E-01    0.583E-01
RMM:   5    -0.413164844983E+03    0.18936E-01   -0.94091E-03  4696   0.973E-02    0.442E-02
RMM:   6    -0.413164948312E+03   -0.10333E-03   -0.15230E-03  5620   0.381E-02    0.298E-02
RMM:   7    -0.413164960288E+03   -0.11976E-04   -0.27154E-04  5584   0.159E-02    0.201E-02
RMM:   8    -0.413164954919E+03    0.53688E-05   -0.39062E-05  4897   0.759E-03    0.716E-03
RMM:   9    -0.413164954457E+03    0.46224E-06   -0.75718E-06  3127   0.315E-03
    3 T=    61. E= -.41286705E+03 F= -.41316495E+03 E0= -.41314246E+03  EK= 0.29790E+00 SP= 0.00E+00 SK= 0.00E+00
       N       E                     dE             d eps       ncg     rms          rms(c)
RMM:   1    -0.413175463515E+03   -0.10509E-01   -0.58881E+00  4217   0.480E-01    0.916E-01
RMM:   2    -0.413171751268E+03    0.37122E-02   -0.77987E-02  4201   0.736E-02    0.658E-01
RMM:   3    -0.413175186217E+03   -0.34349E-02   -0.56678E-02  5192   0.108E-01    0.461E-01
RMM:   4    -0.413176297637E+03   -0.11114E-02   -0.27059E-02  5062   0.145E-01    0.473E-01
RMM:   5    -0.413164692876E+03    0.11605E-01   -0.63843E-03  4556   0.781E-02    0.431E-02
RMM:   6    -0.413164710531E+03   -0.17655E-04   -0.87134E-04  5334   0.286E-02    0.277E-02
RMM:   7    -0.413164720054E+03   -0.95230E-05   -0.17256E-04  5399   0.127E-02    0.170E-02
RMM:   8    -0.413164718937E+03    0.11177E-05   -0.26763E-05  4523   0.621E-03    0.508E-03
RMM:   9    -0.413164719559E+03   -0.62211E-06   -0.36139E-06  2691   0.235E-03
    4 T=    61. E= -.41286675E+03 F= -.41316472E+03 E0= -.41314223E+03  EK= 0.29797E+00 SP= 0.00E+00 SK= 0.00E+00
       N       E                     dE             d eps       ncg     rms          rms(c)
RMM:   1    -0.413175407481E+03   -0.10689E-01   -0.59799E+00  4237   0.489E-01    0.912E-01
RMM:   2    -0.413172046885E+03    0.33606E-02   -0.78334E-02  4098   0.708E-02    0.664E-01
RMM:   3    -0.413172416700E+03   -0.36982E-03   -0.58247E-02  5155   0.941E-02    0.419E-01
RMM:   4    -0.413179721771E+03   -0.73051E-02   -0.27026E-02  5083   0.143E-01    0.534E-01
RMM:   5    -0.413164758332E+03    0.14963E-01   -0.84045E-03  4631   0.880E-02    0.428E-02
RMM:   6    -0.413164826650E+03   -0.68318E-04   -0.11741E-03  5510   0.328E-02    0.274E-02
RMM:   7    -0.413164855772E+03   -0.29122E-04   -0.21538E-04  5543   0.138E-02    0.176E-02
RMM:   8    -0.413164858653E+03   -0.28812E-05   -0.29927E-05  4628   0.645E-03    0.555E-03
RMM:   9    -0.413164861695E+03   -0.30419E-05   -0.44022E-06  2823   0.258E-03    0.346E-03
RMM:  10    -0.413164866661E+03   -0.49659E-05   -0.11694E-06  2524   0.168E-03    0.211E-03
RMM:  11    -0.413164870302E+03   -0.36414E-05   -0.73161E-07  2340   0.123E-03    0.988E-04
RMM:  12    -0.413164875012E+03   -0.47102E-05   -0.83190E-07  2437   0.119E-03    0.528E-04
RMM:  13    -0.413164877419E+03   -0.24061E-05   -0.46329E-07  1810   0.902E-04    0.332E-04
RMM:  14    -0.413164878157E+03   -0.73898E-06   -0.25206E-07  1378   0.750E-04
    5 T=    61. E= -.41286669E+03 F= -.41316488E+03 E0= -.41314240E+03  EK= 0.29818E+00 SP= 0.00E+00 SK= 0.00E+00
       N       E                     dE             d eps       ncg     rms          rms(c)
RMM:   1    -0.413176480382E+03   -0.11603E-01   -0.59442E+00  4247   0.488E-01    0.928E-01
RMM:   2    -0.413172471781E+03    0.40086E-02   -0.78456E-02  4057   0.706E-02    0.665E-01
RMM:   3    -0.413170591695E+03    0.18801E-02   -0.54034E-02  5142   0.838E-02    0.353E-01
RMM:   4    -0.413183355000E+03   -0.12763E-01   -0.27789E-02  5091   0.144E-01    0.574E-01
RMM:   5    -0.413165214252E+03    0.18141E-01   -0.91915E-03  4680   0.953E-02    0.437E-02
RMM:   6    -0.413165303881E+03   -0.89629E-04   -0.14281E-03  5588   0.369E-02    0.293E-02
RMM:   7    -0.413165318653E+03   -0.14771E-04   -0.25658E-04  5551   0.152E-02    0.198E-02
RMM:   8    -0.413165317965E+03    0.68742E-06   -0.36691E-05  4838   0.721E-03    0.683E-03
RMM:   9    -0.413165317722E+03    0.24345E-06   -0.64701E-06  3024   0.301E-03
    6 T=    61. E= -.41286690E+03 F= -.41316532E+03 E0= -.41314285E+03  EK= 0.29842E+00 SP= 0.00E+00 SK= 0.00E+00
       N       E                     dE             d eps       ncg     rms          rms(c)
RMM:   1    -0.413176033539E+03   -0.10716E-01   -0.58999E+00  4272   0.493E-01    0.922E-01
RMM:   2    -0.413172228088E+03    0.38055E-02   -0.78219E-02  4205   0.707E-02    0.660E-01
RMM:   3    -0.413174791431E+03   -0.25633E-02   -0.55610E-02  5164   0.104E-01    0.443E-01
RMM:   4    -0.413177386996E+03   -0.25956E-02   -0.27078E-02  5058   0.145E-01    0.483E-01
RMM:   5    -0.413165092761E+03    0.12294E-01   -0.64635E-03  4565   0.801E-02    0.433E-02
RMM:   6    -0.413165115925E+03   -0.23163E-04   -0.92694E-04  5364   0.296E-02    0.282E-02
RMM:   7    -0.413165138341E+03   -0.22416E-04   -0.18080E-04  5432   0.131E-02    0.175E-02
RMM:   8    -0.413165135748E+03    0.25928E-05   -0.27802E-05  4584   0.659E-03    0.532E-03
RMM:   9    -0.413165135333E+03    0.41460E-06   -0.40105E-06  2746   0.245E-03
    7 T=    61. E= -.41286680E+03 F= -.41316514E+03 E0= -.41314269E+03  EK= 0.29834E+00 SP= 0.00E+00 SK= 0.00E+00
       N       E                     dE             d eps       ncg     rms          rms(c)
RMM:   1    -0.413176242895E+03   -0.11107E-01   -0.59621E+00  4271   0.503E-01    0.910E-01
RMM:   2    -0.413173086222E+03    0.31567E-02   -0.78158E-02  4126   0.701E-02    0.662E-01
RMM:   3    -0.413173496190E+03   -0.40997E-03   -0.57897E-02  5123   0.977E-02    0.421E-01
RMM:   4    -0.413180276430E+03   -0.67802E-02   -0.26895E-02  5065   0.143E-01    0.529E-01
RMM:   5    -0.413165637432E+03    0.14639E-01   -0.82273E-03  4625   0.870E-02    0.426E-02
RMM:   6    -0.413165696500E+03   -0.59068E-04   -0.11611E-03  5505   0.324E-02    0.275E-02
RMM:   7    -0.413165710489E+03   -0.13989E-04   -0.21292E-04  5515   0.137E-02    0.177E-02
RMM:   8    -0.413165713578E+03   -0.30898E-05   -0.29338E-05  4574   0.647E-03    0.553E-03
RMM:   9    -0.413165715650E+03   -0.20712E-05   -0.44403E-06  2810   0.256E-03    0.343E-03
RMM:  10    -0.413165719124E+03   -0.34743E-05   -0.11687E-06  2511   0.167E-03    0.207E-03
RMM:  11    -0.413165721430E+03   -0.23067E-05   -0.69945E-07  2325   0.122E-03    0.963E-04
RMM:  12    -0.413165724152E+03   -0.27210E-05   -0.75553E-07  2385   0.116E-03    0.517E-04
RMM:  13    -0.413165725304E+03   -0.11521E-05   -0.44242E-07  1800   0.899E-04    0.324E-04
RMM:  14    -0.413165725228E+03    0.75677E-07   -0.22309E-07  1349   0.735E-04
    8 T=    61. E= -.41286718E+03 F= -.41316573E+03 E0= -.41314330E+03  EK= 0.29855E+00 SP= 0.00E+00 SK= 0.00E+00
       N       E                     dE             d eps       ncg     rms          rms(c)
RMM:   1    -0.413176891979E+03   -0.11167E-01   -0.59606E+00  4282   0.502E-01    0.923E-01
RMM:   2    -0.413173277541E+03    0.36144E-02   -0.78314E-02  4165   0.738E-02    0.666E-01
RMM:   3    -0.413171367392E+03    0.19101E-02   -0.55157E-02  5082   0.891E-02    0.363E-01
RMM:   4    -0.413183730776E+03   -0.12363E-01   -0.27451E-02  5076   0.143E-01    0.572E-01
RMM:   5    -0.413165830675E+03    0.17900E-01   -0.92753E-03  4672   0.947E-02    0.431E-02
RMM:   6    -0.413165921134E+03   -0.90459E-04   -0.14260E-03  5580   0.365E-02    0.290E-02
RMM:   7    -0.413165924539E+03   -0.34043E-05   -0.25459E-04  5542   0.151E-02    0.195E-02
RMM:   8    -0.413165920604E+03    0.39350E-05   -0.35514E-05  4776   0.714E-03    0.661E-03
RMM:   9    -0.413165920868E+03   -0.26402E-06   -0.63614E-06  3003   0.298E-03
    9 T=    61. E= -.41286719E+03 F= -.41316592E+03 E0= -.41314351E+03  EK= 0.29873E+00 SP= 0.00E+00 SK= 0.00E+00
       N       E                     dE             d eps       ncg     rms          rms(c)
RMM:   1    -0.413177133552E+03   -0.11213E-01   -0.59161E+00  4288   0.504E-01    0.928E-01
RMM:   2    -0.413173015995E+03    0.41176E-02   -0.78694E-02  4292   0.743E-02    0.662E-01
RMM:   3    -0.413175979437E+03   -0.29634E-02   -0.55709E-02  5140   0.108E-01    0.447E-01
RMM:   4    -0.413178063683E+03   -0.20842E-02   -0.27248E-02  5046   0.145E-01    0.478E-01
RMM:   5    -0.413165965848E+03    0.12098E-01   -0.62760E-03  4563   0.795E-02    0.433E-02
RMM:   6    -0.413165981849E+03   -0.16000E-04   -0.91888E-04  5365   0.291E-02    0.284E-02
RMM:   7    -0.413165984404E+03   -0.25554E-05   -0.17982E-04  5372   0.133E-02    0.175E-02
RMM:   8    -0.413165981210E+03    0.31942E-05   -0.27727E-05  4570   0.660E-03    0.534E-03
RMM:   9    -0.413165979638E+03    0.15718E-05   -0.40722E-06  2731   0.246E-03    0.300E-03
RMM:  10    -0.413165977914E+03    0.17237E-05   -0.10993E-06  2502   0.161E-03    0.177E-03
RMM:  11    -0.413165976298E+03    0.16165E-05   -0.63648E-07  2199   0.116E-03    0.836E-04
RMM:  12    -0.413165973491E+03    0.28069E-05   -0.64212E-07  2300   0.110E-03    0.480E-04
RMM:  13    -0.413165970849E+03    0.26419E-05   -0.35303E-07  1721   0.853E-04    0.302E-04
RMM:  14    -0.413165968773E+03    0.20763E-05   -0.21055E-07  1389   0.728E-04    0.182E-04
RMM:  15    -0.413165965123E+03    0.36492E-05   -0.31123E-07  1766   0.799E-04    0.306E-04
RMM:  16    -0.413165960697E+03    0.44268E-05   -0.30692E-07  1477   0.732E-04    0.155E-04
RMM:  17    -0.413165960088E+03    0.60910E-06   -0.75652E-08   909   0.534E-04
   10 T=    61. E= -.41286696E+03 F= -.41316596E+03 E0= -.41314357E+03  EK= 0.29900E+00 SP= 0.00E+00 SK= 0.00E+00
       N       E                     dE             d eps       ncg     rms          rms(c)
RMM:   1    -0.413177284295E+03   -0.11324E-01   -0.59483E+00  4290   0.513E-01    0.910E-01
RMM:   2    -0.413174097115E+03    0.31872E-02   -0.78096E-02  4222   0.763E-02    0.661E-01
RMM:   3    -0.413171876207E+03    0.22209E-02   -0.55800E-02  5080   0.860E-02    0.363E-01
RMM:   4    -0.413184981435E+03   -0.13105E-01   -0.27412E-02  5079   0.143E-01    0.580E-01
RMM:   5    -0.413166587053E+03    0.18394E-01   -0.97244E-03  4681   0.956E-02    0.426E-02
RMM:   6    -0.413166700063E+03   -0.11301E-03   -0.14887E-03  5592   0.368E-02    0.289E-02
RMM:   7    -0.413166712924E+03   -0.12861E-04   -0.26221E-04  5510   0.156E-02    0.195E-02
RMM:   8    -0.413166714654E+03   -0.17298E-05   -0.36200E-05  4756   0.728E-03    0.678E-03
RMM:   9    -0.413166716145E+03   -0.14910E-05   -0.69213E-06  3048   0.304E-03    0.415E-03
RMM:  10    -0.413166718982E+03   -0.28375E-05   -0.12535E-06  2507   0.182E-03    0.255E-03
RMM:  11    -0.413166720837E+03   -0.18545E-05   -0.73984E-07  2444   0.131E-03    0.122E-03
RMM:  12    -0.413166722798E+03   -0.19611E-05   -0.74150E-07  2433   0.124E-03    0.649E-04
RMM:  13    -0.413166723080E+03   -0.28197E-06   -0.29610E-07  1874   0.893E-04
   11 T=    61. E= -.41286711E+03 F= -.41316672E+03 E0= -.41314436E+03  EK= 0.29962E+00 SP= 0.00E+00 SK= 0.00E+00
       N       E                     dE             d eps       ncg     rms          rms(c)
RMM:   1    -0.413177526278E+03   -0.10803E-01   -0.59981E+00  4292   0.516E-01    0.922E-01
RMM:   2    -0.413174020032E+03    0.35062E-02   -0.78629E-02  4234   0.765E-02    0.667E-01
RMM:   3    -0.413171876988E+03    0.21430E-02   -0.56203E-02  5096   0.858E-02    0.364E-01
RMM:   4    -0.413185050241E+03   -0.13173E-01   -0.27666E-02  5078   0.143E-01    0.582E-01
RMM:   5    -0.413166538149E+03    0.18512E-01   -0.97235E-03  4683   0.962E-02    0.426E-02
RMM:   6    -0.413166654957E+03   -0.11681E-03   -0.15027E-03  5632   0.369E-02    0.291E-02
RMM:   7    -0.413166671577E+03   -0.16620E-04   -0.26463E-04  5519   0.159E-02    0.198E-02
RMM:   8    -0.413166671888E+03   -0.31177E-06   -0.36821E-05  4771   0.741E-03    0.693E-03
RMM:   9    -0.413166672788E+03   -0.89978E-06   -0.69892E-06  3063   0.314E-03
   12 T=    61. E= -.41286670E+03 F= -.41316667E+03 E0= -.41314434E+03  EK= 0.29997E+00 SP= 0.00E+00 SK= 0.00E+00
       N       E                     dE             d eps       ncg     rms          rms(c)
RMM:   1    -0.413178592876E+03   -0.11921E-01   -0.59503E+00  4293   0.517E-01    0.933E-01
RMM:   2    -0.413174295885E+03    0.42970E-02   -0.79003E-02  4334   0.707E-02    0.665E-01
RMM:   3    -0.413178670849E+03   -0.43750E-02   -0.56673E-02  5180   0.110E-01    0.474E-01
RMM:   4    -0.413178154921E+03    0.51593E-03   -0.27566E-02  5037   0.147E-01    0.457E-01
RMM:   5    -0.413167252496E+03    0.10902E-01   -0.57639E-03  4521   0.767E-02    0.430E-02
RMM:   6    -0.413167256276E+03   -0.37802E-05   -0.80656E-04  5308   0.275E-02    0.284E-02
RMM:   7    -0.413167272217E+03   -0.15941E-04   -0.16632E-04  5251   0.134E-02    0.171E-02
RMM:   8    -0.413167269825E+03    0.23924E-05   -0.26348E-05  4479   0.647E-03    0.503E-03
RMM:   9    -0.413167267772E+03    0.20530E-05   -0.35530E-06  2681   0.237E-03    0.285E-03
RMM:  10    -0.413167265413E+03    0.23584E-05   -0.10704E-06  2473   0.155E-03    0.166E-03
RMM:  11    -0.413167262960E+03    0.24531E-05   -0.64543E-07  2107   0.114E-03    0.747E-04
RMM:  12    -0.413167259245E+03    0.37157E-05   -0.58336E-07  2258   0.107E-03    0.455E-04
RMM:  13    -0.413167256320E+03    0.29245E-05   -0.26999E-07  1528   0.793E-04    0.310E-04
RMM:  14    -0.413167252497E+03    0.38233E-05   -0.24199E-07  1447   0.762E-04    0.181E-04
RMM:  15    -0.413167248512E+03    0.39850E-05   -0.21283E-07  1527   0.733E-04    0.272E-04
RMM:  16    -0.413167243155E+03    0.53564E-05   -0.25560E-07  1452   0.719E-04    0.124E-04
RMM:  17    -0.413167241912E+03    0.12435E-05   -0.72993E-08   878   0.539E-04    0.682E-05
RMM:  18    -0.413167240619E+03    0.12925E-05   -0.49324E-08   822   0.530E-04    0.293E-05
RMM:  19    -0.413167240177E+03    0.44244E-06   -0.26431E-08   688   0.505E-04
   13 T=    61. E= -.41286682E+03 F= -.41316724E+03 E0= -.41314494E+03  EK= 0.30042E+00 SP= 0.00E+00 SK= 0.00E+00
       N       E                     dE             d eps       ncg     rms          rms(c)
RMM:   1    -0.413178811137E+03   -0.11571E-01   -0.59442E+00  4296   0.529E-01    0.913E-01
RMM:   2    -0.413175132030E+03    0.36791E-02   -0.78158E-02  4258   0.688E-02    0.660E-01
RMM:   3    -0.413173432383E+03    0.16996E-02   -0.55075E-02  5113   0.849E-02    0.364E-01
RMM:   4    -0.413185942638E+03   -0.12510E-01   -0.27883E-02  5078   0.144E-01    0.574E-01
RMM:   5    -0.413167881889E+03    0.18061E-01   -0.93876E-03  4675   0.950E-02    0.428E-02
RMM:   6    -0.413167977005E+03   -0.95116E-04   -0.14559E-03  5591   0.363E-02    0.291E-02
RMM:   7    -0.413167984573E+03   -0.75686E-05   -0.25543E-04  5463   0.155E-02    0.197E-02
RMM:   8    -0.413167983469E+03    0.11050E-05   -0.35783E-05  4779   0.710E-03    0.673E-03
RMM:   9    -0.413167983440E+03    0.28183E-07   -0.65838E-06  3028   0.300E-03
   14 T=    61. E= -.41286715E+03 F= -.41316798E+03 E0= -.41314572E+03  EK= 0.30083E+00 SP= 0.00E+00 SK= 0.00E+00
       N       E                     dE             d eps       ncg     rms          rms(c)
RMM:   1    -0.413178820832E+03   -0.10837E-01   -0.60268E+00  4295   0.530E-01    0.919E-01
RMM:   2    -0.413175409223E+03    0.34116E-02   -0.79010E-02  4329   0.710E-02    0.668E-01
RMM:   3    -0.413180076143E+03   -0.46669E-02   -0.61106E-02  5151   0.115E-01    0.501E-01
RMM:   4    -0.413178886934E+03    0.11892E-02   -0.27420E-02  5025   0.146E-01    0.471E-01
RMM:   5    -0.413167986486E+03    0.10900E-01   -0.67953E-03  4505   0.772E-02    0.416E-02
RMM:   6    -0.413168002092E+03   -0.15606E-04   -0.82073E-04  5290   0.271E-02    0.269E-02
RMM:   7    -0.413168015029E+03   -0.12938E-04   -0.16621E-04  5202   0.129E-02    0.161E-02
RMM:   8    -0.413168018145E+03   -0.31157E-05   -0.24571E-05  4334   0.605E-03    0.456E-03
RMM:   9    -0.413168019451E+03   -0.13058E-05   -0.30277E-06  2637   0.226E-03    0.290E-03
RMM:  10    -0.413168021499E+03   -0.20477E-05   -0.10255E-06  2462   0.151E-03    0.163E-03
RMM:  11    -0.413168022426E+03   -0.92704E-06   -0.55205E-07  1983   0.107E-03
   15 T=    61. E= -.41286698E+03 F= -.41316802E+03 E0= -.41314579E+03  EK= 0.30104E+00 SP= 0.00E+00 SK= 0.00E+00
       N       E                     dE             d eps       ncg     rms          rms(c)
RMM:   1    -0.413180434403E+03   -0.12413E-01   -0.59746E+00  4297   0.531E-01    0.935E-01
RMM:   2    -0.413176380442E+03    0.40540E-02   -0.79321E-02  4261   0.760E-02    0.667E-01
RMM:   3    -0.413174260818E+03    0.21196E-02   -0.53317E-02  5064   0.880E-02    0.345E-01
RMM:   4    -0.413187634281E+03   -0.13373E-01   -0.28261E-02  5066   0.145E-01    0.579E-01
RMM:   5    -0.413168987284E+03    0.18647E-01   -0.91643E-03  4677   0.958E-02    0.432E-02
RMM:   6    -0.413169091980E+03   -0.10470E-03   -0.15259E-03  5631   0.370E-02    0.303E-02
RMM:   7    -0.413169096286E+03   -0.43060E-05   -0.26853E-04  5499   0.160E-02    0.205E-02
RMM:   8    -0.413169091457E+03    0.48291E-05   -0.37279E-05  4789   0.744E-03    0.732E-03
RMM:   9    -0.413169088587E+03    0.28705E-05   -0.73149E-06  3081   0.323E-03    0.424E-03
RMM:  10    -0.413169085913E+03    0.26736E-05   -0.14754E-06  2534   0.194E-03    0.257E-03
RMM:  11    -0.413169083299E+03    0.26146E-05   -0.81399E-07  2472   0.138E-03    0.129E-03
RMM:  12    -0.413169078301E+03    0.49972E-05   -0.94279E-07  2487   0.140E-03    0.722E-04
RMM:  13    -0.413169074672E+03    0.36296E-05   -0.37779E-07  2000   0.975E-04    0.456E-04
RMM:  14    -0.413169073676E+03    0.99533E-06   -0.15564E-07  1353   0.711E-04
   16 T=    61. E= -.41286735E+03 F= -.41316907E+03 E0= -.41314688E+03  EK= 0.30173E+00 SP= 0.00E+00 SK= 0.00E+00
       N       E                     dE             d eps       ncg     rms          rms(c)
RMM:   1    -0.413180331423E+03   -0.11257E-01   -0.59498E+00  4297   0.534E-01    0.918E-01
RMM:   2    -0.413176930382E+03    0.34010E-02   -0.78794E-02  4271   0.776E-02    0.661E-01
RMM:   3    -0.413175089258E+03    0.18411E-02   -0.54424E-02  5063   0.905E-02    0.360E-01
RMM:   4    -0.413187587427E+03   -0.12498E-01   -0.28020E-02  5056   0.144E-01    0.574E-01
RMM:   5    -0.413169397099E+03    0.18190E-01   -0.92369E-03  4669   0.949E-02    0.432E-02
RMM:   6    -0.413169496848E+03   -0.99748E-04   -0.14634E-03  5611   0.363E-02    0.294E-02
RMM:   7    -0.413169513556E+03   -0.16708E-04   -0.25796E-04  5494   0.156E-02    0.198E-02
RMM:   8    -0.413169508757E+03    0.47985E-05   -0.36018E-05  4754   0.750E-03    0.680E-03
RMM:   9    -0.413169507208E+03    0.15490E-05   -0.71669E-06  3023   0.312E-03    0.399E-03
RMM:  10    -0.413169506294E+03    0.91430E-06   -0.13537E-06  2523   0.188E-03
   17 T=    62. E= -.41286714E+03 F= -.41316951E+03 E0= -.41314735E+03  EK= 0.30237E+00 SP= 0.00E+00 SK= 0.00E+00
       N       E                     dE             d eps       ncg     rms          rms(c)
RMM:   1    -0.413180766618E+03   -0.11259E-01   -0.60561E+00  4298   0.544E-01    0.918E-01
RMM:   2    -0.413177662198E+03    0.31044E-02   -0.79405E-02  4290   0.781E-02    0.669E-01
RMM:   3    -0.413178184754E+03   -0.52256E-03   -0.59147E-02  5104   0.102E-01    0.432E-01
RMM:   4    -0.413184529668E+03   -0.63449E-02   -0.27362E-02  5045   0.144E-01    0.530E-01
RMM:   5    -0.413169946017E+03    0.14584E-01   -0.82200E-03  4588   0.867E-02    0.422E-02
RMM:   6    -0.413170019587E+03   -0.73570E-04   -0.12004E-03  5505   0.319E-02    0.277E-02
RMM:   7    -0.413170022619E+03   -0.30325E-05   -0.21405E-04  5386   0.142E-02    0.181E-02
RMM:   8    -0.413170021528E+03    0.10910E-05   -0.29924E-05  4560   0.676E-03    0.565E-03
RMM:   9    -0.413170021852E+03   -0.32332E-06   -0.48320E-06  2840   0.267E-03
   18 T=    62. E= -.41286693E+03 F= -.41317002E+03 E0= -.41314790E+03  EK= 0.30309E+00 SP= 0.00E+00 SK= 0.00E+00
       N       E                     dE             d eps       ncg     rms          rms(c)
RMM:   1    -0.413182534238E+03   -0.12513E-01   -0.60171E+00  4298   0.542E-01    0.935E-01
RMM:   2    -0.413178435435E+03    0.40988E-02   -0.79769E-02  4315   0.744E-02    0.670E-01
RMM:   3    -0.413180571822E+03   -0.21364E-02   -0.56398E-02  5138   0.104E-01    0.437E-01
RMM:   4    -0.413184406620E+03   -0.38348E-02   -0.27877E-02  5039   0.146E-01    0.498E-01
RMM:   5    -0.413171194515E+03    0.13212E-01   -0.68007E-03  4566   0.822E-02    0.431E-02
RMM:   6    -0.413171231188E+03   -0.36672E-04   -0.10211E-03  5435   0.300E-02    0.286E-02
RMM:   7    -0.413171249648E+03   -0.18461E-04   -0.19087E-04  5364   0.136E-02    0.180E-02
RMM:   8    -0.413171248533E+03    0.11152E-05   -0.28406E-05  4535   0.680E-03    0.541E-03
RMM:   9    -0.413171245724E+03    0.28088E-05   -0.45225E-06  2784   0.255E-03    0.314E-03
RMM:  10    -0.413171242699E+03    0.30256E-05   -0.11174E-06  2507   0.166E-03    0.188E-03
RMM:  11    -0.413171240041E+03    0.26573E-05   -0.62250E-07  2232   0.117E-03    0.907E-04
RMM:  12    -0.413171235062E+03    0.49788E-05   -0.66127E-07  2310   0.113E-03    0.522E-04
RMM:  13    -0.413171230389E+03    0.46740E-05   -0.32313E-07  1654   0.838E-04    0.342E-04
RMM:  14    -0.413171227259E+03    0.31295E-05   -0.15678E-07  1201   0.686E-04    0.180E-04
RMM:  15    -0.413171220667E+03    0.65917E-05   -0.22292E-07  1559   0.757E-04    0.323E-04
RMM:  16    -0.413171214060E+03    0.66070E-05   -0.18245E-07  1286   0.674E-04    0.191E-04
RMM:  17    -0.413171213157E+03    0.90362E-06   -0.56884E-08   847   0.543E-04
   19 T=    62. E= -.41286718E+03 F= -.41317121E+03 E0= -.41314914E+03  EK= 0.30404E+00 SP= 0.00E+00 SK= 0.00E+00
       N       E                     dE             d eps       ncg     rms          rms(c)
RMM:   1    -0.413182759497E+03   -0.11545E-01   -0.59872E+00  4293   0.551E-01    0.926E-01
RMM:   2    -0.413178700586E+03    0.40589E-02   -0.79518E-02  4280   0.728E-02    0.664E-01
RMM:   3    -0.413176692239E+03    0.20083E-02   -0.53527E-02  5113   0.831E-02    0.345E-01
RMM:   4    -0.413190708218E+03   -0.14016E-01   -0.28803E-02  5080   0.146E-01    0.587E-01
RMM:   5    -0.413171484515E+03    0.19224E-01   -0.95373E-03  4686   0.971E-02    0.435E-02
RMM:   6    -0.413171593031E+03   -0.10852E-03   -0.15664E-03  5646   0.374E-02    0.301E-02
RMM:   7    -0.413171600501E+03   -0.74702E-05   -0.27251E-04  5510   0.160E-02    0.207E-02
RMM:   8    -0.413171599344E+03    0.11574E-05   -0.38764E-05  4824   0.736E-03    0.741E-03
RMM:   9    -0.413171597171E+03    0.21724E-05   -0.75325E-06  3101   0.319E-03    0.424E-03
RMM:  10    -0.413171595775E+03    0.13961E-05   -0.13495E-06  2518   0.191E-03    0.257E-03
RMM:  11    -0.413171594151E+03    0.16243E-05   -0.76952E-07  2463   0.134E-03    0.131E-03
RMM:  12    -0.413171590732E+03    0.34184E-05   -0.88914E-07  2488   0.136E-03    0.735E-04
RMM:  13    -0.413171588122E+03    0.26102E-05   -0.34194E-07  1956   0.944E-04    0.451E-04
RMM:  14    -0.413171587259E+03    0.86288E-06   -0.15148E-07  1341   0.707E-04
   20 T=    62. E= -.41286693E+03 F= -.41317159E+03 E0= -.41314955E+03  EK= 0.30466E+00 SP= 0.00E+00 SK= 0.00E+00
       N       E                     dE             d eps       ncg     rms          rms(c)
RMM:   1    -0.413183506283E+03   -0.11918E-01   -0.60775E+00  4293   0.556E-01    0.919E-01
RMM:   2    -0.413180214721E+03    0.32916E-02   -0.79609E-02  4270   0.739E-02    0.669E-01
RMM:   3    -0.413178036475E+03    0.21782E-02   -0.57328E-02  5100   0.842E-02    0.369E-01
RMM:   4    -0.413191710869E+03   -0.13674E-01   -0.28111E-02  5072   0.144E-01    0.590E-01
RMM:   5    -0.413172672936E+03    0.19038E-01   -0.10114E-02  4681   0.976E-02    0.428E-02
RMM:   6    -0.413172782730E+03   -0.10979E-03   -0.15673E-03  5667   0.370E-02    0.289E-02
RMM:   7    -0.413172787091E+03   -0.43611E-05   -0.26857E-04  5500   0.159E-02    0.198E-02
RMM:   8    -0.413172788822E+03   -0.17309E-05   -0.37886E-05  4744   0.784E-03    0.693E-03
RMM:   9    -0.413172789704E+03   -0.88230E-06   -0.80526E-06  3115   0.340E-03
   21 T=    62. E= -.41286727E+03 F= -.41317279E+03 E0= -.41315080E+03  EK= 0.30552E+00 SP= 0.00E+00 SK= 0.00E+00
       N       E                     dE             d eps       ncg     rms          rms(c)
RMM:   1    -0.413185046378E+03   -0.12258E-01   -0.60665E+00  4301   0.555E-01    0.934E-01
RMM:   2    -0.413181152268E+03    0.38941E-02   -0.80166E-02  4342   0.758E-02    0.672E-01
RMM:   3    -0.413185336521E+03   -0.41843E-02   -0.58793E-02  5150   0.112E-01    0.479E-01
RMM:   4    -0.413185520359E+03   -0.18384E-03   -0.28038E-02  5026   0.147E-01    0.475E-01
RMM:   5    -0.413173858514E+03    0.11662E-01   -0.64097E-03  4530   0.792E-02    0.426E-02
RMM:   6    -0.413173881082E+03   -0.22568E-04   -0.88607E-04  5356   0.280E-02    0.280E-02
RMM:   7    -0.413173901243E+03   -0.20161E-04   -0.17621E-04  5203   0.138E-02    0.174E-02
RMM:   8    -0.413173901286E+03   -0.42604E-07   -0.26809E-05  4421   0.683E-03    0.501E-03
RMM:   9    -0.413173899687E+03    0.15987E-05   -0.41856E-06  2741   0.246E-03    0.294E-03
RMM:  10    -0.413173897725E+03    0.19619E-05   -0.10393E-06  2496   0.157E-03    0.171E-03
RMM:  11    -0.413173895665E+03    0.20602E-05   -0.60155E-07  2083   0.111E-03    0.793E-04
RMM:  12    -0.413173891674E+03    0.39913E-05   -0.59948E-07  2225   0.106E-03    0.469E-04
RMM:  13    -0.413173887738E+03    0.39356E-05   -0.28974E-07  1493   0.794E-04    0.297E-04
RMM:  14    -0.413173884130E+03    0.36080E-05   -0.17022E-07  1182   0.688E-04    0.169E-04
RMM:  15    -0.413173878784E+03    0.53458E-05   -0.17867E-07  1279   0.699E-04    0.243E-04
RMM:  16    -0.413173872046E+03    0.67376E-05   -0.17475E-07  1306   0.682E-04    0.150E-04
RMM:  17    -0.413173871141E+03    0.90570E-06   -0.56467E-08   840   0.550E-04
   22 T=    62. E= -.41286746E+03 F= -.41317387E+03 E0= -.41315193E+03  EK= 0.30641E+00 SP= 0.00E+00 SK= 0.00E+00
       N       E                     dE             d eps       ncg     rms          rms(c)
RMM:   1    -0.413186039022E+03   -0.12167E-01   -0.60353E+00  4291   0.560E-01    0.934E-01
RMM:   2    -0.413181904680E+03    0.41343E-02   -0.80230E-02  4285   0.787E-02    0.668E-01
RMM:   3    -0.413179246891E+03    0.26578E-02   -0.53065E-02  5041   0.849E-02    0.327E-01
RMM:   4    -0.413195073241E+03   -0.15826E-01   -0.29125E-02  5074   0.146E-01    0.604E-01
RMM:   5    -0.413174539245E+03    0.20534E-01   -0.10074E-02  4700   0.100E-01    0.436E-02
RMM:   6    -0.413174665817E+03   -0.12657E-03   -0.16594E-03  5684   0.388E-02    0.306E-02
RMM:   7    -0.413174672414E+03   -0.65974E-05   -0.28739E-04  5506   0.166E-02    0.212E-02
RMM:   8    -0.413174667687E+03    0.47270E-05   -0.41194E-05  4861   0.787E-03    0.782E-03
RMM:   9    -0.413174664629E+03    0.30588E-05   -0.87409E-06  3195   0.344E-03    0.447E-03
RMM:  10    -0.413174662310E+03    0.23184E-05   -0.14736E-06  2535   0.198E-03    0.271E-03
RMM:  11    -0.413174659948E+03    0.23626E-05   -0.83398E-07  2481   0.140E-03    0.140E-03
RMM:  12    -0.413174655351E+03    0.45967E-05   -0.10211E-06  2506   0.144E-03    0.790E-04
RMM:  13    -0.413174652207E+03    0.31441E-05   -0.38563E-07  2047   0.983E-04    0.488E-04
RMM:  14    -0.413174651419E+03    0.78819E-06   -0.16517E-07  1388   0.717E-04
   23 T=    63. E= -.41286728E+03 F= -.41317465E+03 E0= -.41315276E+03  EK= 0.30737E+00 SP= 0.00E+00 SK= 0.00E+00
       N       E                     dE             d eps       ncg     rms          rms(c)
RMM:   1    -0.413187186990E+03   -0.12535E-01   -0.60999E+00  4294   0.568E-01    0.920E-01
RMM:   2    -0.413183782050E+03    0.34049E-02   -0.80583E-02  4296   0.808E-02    0.670E-01
RMM:   3    -0.413181186660E+03    0.25954E-02   -0.56669E-02  5032   0.887E-02    0.353E-01
RMM:   4    -0.413196500702E+03   -0.15314E-01   -0.28386E-02  5072   0.145E-01    0.606E-01
RMM:   5    -0.413176103640E+03    0.20397E-01   -0.10579E-02  4696   0.101E-01    0.429E-02
RMM:   6    -0.413176230590E+03   -0.12695E-03   -0.16543E-03  5711   0.384E-02    0.293E-02
RMM:   7    -0.413176246732E+03   -0.16142E-04   -0.28331E-04  5494   0.165E-02    0.204E-02
RMM:   8    -0.413176243381E+03    0.33513E-05   -0.40741E-05  4750   0.810E-03    0.741E-03
RMM:   9    -0.413176242623E+03    0.75775E-06   -0.90841E-06  3181   0.347E-03
   24 T=    63. E= -.41286747E+03 F= -.41317624E+03 E0= -.41315440E+03  EK= 0.30877E+00 SP= 0.00E+00 SK= 0.00E+00
       N       E                     dE             d eps       ncg     rms          rms(c)
RMM:   1    -0.413188495496E+03   -0.12252E-01   -0.61447E+00  4302   0.570E-01    0.934E-01
RMM:   2    -0.413184976699E+03    0.35188E-02   -0.81534E-02  4359   0.814E-02    0.676E-01
RMM:   3    -0.413189924671E+03   -0.49480E-02   -0.60764E-02  5117   0.121E-01    0.503E-01
RMM:   4    -0.413188451534E+03    0.14731E-02   -0.28143E-02  5018   0.149E-01    0.471E-01
RMM:   5    -0.413177216984E+03    0.11235E-01   -0.64624E-03  4495   0.778E-02    0.419E-02
RMM:   6    -0.413177253474E+03   -0.36490E-04   -0.85307E-04  5399   0.273E-02    0.277E-02
RMM:   7    -0.413177269182E+03   -0.15708E-04   -0.17183E-04  5165   0.133E-02    0.171E-02
RMM:   8    -0.413177267460E+03    0.17215E-05   -0.25950E-05  4359   0.658E-03    0.477E-03
RMM:   9    -0.413177266276E+03    0.11844E-05   -0.36717E-06  2677   0.239E-03    0.288E-03
RMM:  10    -0.413177264690E+03    0.15852E-05   -0.99918E-07  2480   0.152E-03    0.168E-03
RMM:  11    -0.413177262934E+03    0.17566E-05   -0.56074E-07  2064   0.108E-03    0.789E-04
RMM:  12    -0.413177259337E+03    0.35972E-05   -0.57560E-07  2220   0.103E-03    0.457E-04
RMM:  13    -0.413177256279E+03    0.30577E-05   -0.24590E-07  1402   0.761E-04    0.305E-04
RMM:  14    -0.413177252124E+03    0.41550E-05   -0.18373E-07  1173   0.693E-04    0.166E-04
RMM:  15    -0.413177247347E+03    0.47767E-05   -0.14993E-07  1170   0.673E-04    0.216E-04
RMM:  16    -0.413177240229E+03    0.71180E-05   -0.17029E-07  1234   0.682E-04    0.128E-04
RMM:  17    -0.413177239236E+03    0.99336E-06   -0.55634E-08   818   0.566E-04
   25 T=    63. E= -.41286714E+03 F= -.41317724E+03 E0= -.41315544E+03  EK= 0.31010E+00 SP= 0.00E+00 SK= 0.00E+00
       N       E                     dE             d eps       ncg     rms          rms(c)
RMM:   1    -0.413190406207E+03   -0.13166E-01   -0.61156E+00  4293   0.570E-01    0.945E-01
RMM:   2    -0.413186143892E+03    0.42623E-02   -0.81747E-02  4306   0.790E-02    0.674E-01
RMM:   3    -0.413183580932E+03    0.25630E-02   -0.53511E-02  5036   0.930E-02    0.335E-01
RMM:   4    -0.413198947520E+03   -0.15367E-01   -0.29432E-02  5065   0.148E-01    0.601E-01
RMM:   5    -0.413178602869E+03    0.20345E-01   -0.98569E-03  4694   0.100E-01    0.438E-02
RMM:   6    -0.413178700845E+03   -0.97976E-04   -0.16614E-03  5707   0.387E-02    0.309E-02
RMM:   7    -0.413178697991E+03    0.28539E-05   -0.28357E-04  5475   0.168E-02    0.214E-02
RMM:   8    -0.413178694273E+03    0.37185E-05   -0.40864E-05  4824   0.811E-03    0.792E-03
RMM:   9    -0.413178691050E+03    0.32232E-05   -0.89601E-06  3194   0.350E-03    0.450E-03
RMM:  10    -0.413178688249E+03    0.28009E-05   -0.14880E-06  2536   0.199E-03    0.277E-03
RMM:  11    -0.413178685388E+03    0.28607E-05   -0.86578E-07  2492   0.142E-03    0.142E-03
RMM:  12    -0.413178680189E+03    0.51987E-05   -0.10407E-06  2504   0.144E-03    0.759E-04
RMM:  13    -0.413178677031E+03    0.31584E-05   -0.38850E-07  2038   0.975E-04    0.470E-04
RMM:  14    -0.413178675979E+03    0.10521E-05   -0.16884E-07  1393   0.718E-04    0.273E-04
RMM:  15    -0.413178671566E+03    0.44125E-05   -0.14733E-07  1334   0.705E-04    0.196E-04
RMM:  16    -0.413178666369E+03    0.51972E-05   -0.12710E-07  1273   0.667E-04    0.243E-04
RMM:  17    -0.413178664248E+03    0.21216E-05   -0.58917E-08   917   0.575E-04    0.190E-04
RMM:  18    -0.413178660673E+03    0.35748E-05   -0.56245E-08   962   0.579E-04    0.898E-05
RMM:  19    -0.413178659084E+03    0.15891E-05   -0.35639E-08   871   0.558E-04    0.374E-05
RMM:  20    -0.413178658511E+03    0.57248E-06   -0.15480E-08   702   0.536E-04
   26 T=    63. E= -.41286706E+03 F= -.41317866E+03 E0= -.41315691E+03  EK= 0.31159E+00 SP= 0.00E+00 SK= 0.00E+00
       N       E                     dE             d eps       ncg     rms          rms(c)
RMM:   1    -0.413191590626E+03   -0.12932E-01   -0.61471E+00  4292   0.580E-01    0.926E-01
RMM:   2    -0.413188068312E+03    0.35223E-02   -0.81442E-02  4298   0.790E-02    0.672E-01
RMM:   3    -0.413185272406E+03    0.27959E-02   -0.55905E-02  5067   0.864E-02    0.347E-01
RMM:   4    -0.413201223888E+03   -0.15951E-01   -0.29024E-02  5083   0.147E-01    0.612E-01
RMM:   5    -0.413180371716E+03    0.20852E-01   -0.10575E-02  4692   0.102E-01    0.432E-02
RMM:   6    -0.413180492362E+03   -0.12065E-03   -0.17125E-03  5728   0.392E-02    0.297E-02
RMM:   7    -0.413180506329E+03   -0.13967E-04   -0.28813E-04  5501   0.166E-02    0.210E-02
RMM:   8    -0.413180505476E+03    0.85260E-06   -0.41917E-05  4819   0.793E-03    0.793E-03
RMM:   9    -0.413180504424E+03    0.10522E-05   -0.89938E-06  3242   0.349E-03    0.462E-03
RMM:  10    -0.413180504474E+03   -0.49629E-07   -0.13997E-06  2525   0.195E-03
   27 T=    64. E= -.41286738E+03 F= -.41318050E+03 E0= -.41315881E+03  EK= 0.31312E+00 SP= 0.00E+00 SK= 0.00E+00
       N       E                     dE             d eps       ncg     rms          rms(c)
RMM:   1    -0.413192913255E+03   -0.12409E-01   -0.62378E+00  4301   0.587E-01    0.936E-01
RMM:   2    -0.413189339465E+03    0.35738E-02   -0.82577E-02  4318   0.807E-02    0.681E-01
RMM:   3    -0.413189584343E+03   -0.24488E-03   -0.59201E-02  5103   0.101E-01    0.421E-01
RMM:   4    -0.413197872121E+03   -0.82878E-02   -0.28882E-02  5049   0.148E-01    0.553E-01
RMM:   5    -0.413181625094E+03    0.16247E-01   -0.86570E-03  4626   0.917E-02    0.430E-02
RMM:   6    -0.413181686045E+03   -0.60951E-04   -0.13311E-03  5595   0.339E-02    0.285E-02
RMM:   7    -0.413181689660E+03   -0.36148E-05   -0.23342E-04  5397   0.153E-02    0.193E-02
RMM:   8    -0.413181692690E+03   -0.30302E-05   -0.33749E-05  4646   0.745E-03    0.627E-03
RMM:   9    -0.413181692390E+03    0.29979E-06   -0.63741E-06  2942   0.301E-03
   28 T=    64. E= -.41286724E+03 F= -.41318169E+03 E0= -.41316005E+03  EK= 0.31445E+00 SP= 0.00E+00 SK= 0.00E+00
       N       E                     dE             d eps       ncg     rms          rms(c)
RMM:   1    -0.413195652976E+03   -0.13960E-01   -0.62042E+00  4296   0.595E-01    0.952E-01
RMM:   2    -0.413191156366E+03    0.44966E-02   -0.83727E-02  4316   0.840E-02    0.680E-01
RMM:   3    -0.413191886915E+03   -0.73055E-03   -0.55710E-02  5109   0.102E-01    0.408E-01
RMM:   4    -0.413199492127E+03   -0.76052E-02   -0.29507E-02  5039   0.149E-01    0.537E-01
RMM:   5    -0.413183651183E+03    0.15841E-01   -0.76045E-03  4613   0.899E-02    0.442E-02
RMM:   6    -0.413183709992E+03   -0.58810E-04   -0.12841E-03  5598   0.336E-02    0.295E-02
RMM:   7    -0.413183723910E+03   -0.13918E-04   -0.23033E-04  5389   0.153E-02    0.199E-02
RMM:   8    -0.413183726224E+03   -0.23135E-05   -0.35638E-05  4658   0.820E-03    0.657E-03
RMM:   9    -0.413183722310E+03    0.39137E-05   -0.66419E-06  2942   0.316E-03    0.357E-03
RMM:  10    -0.413183717521E+03    0.47893E-05   -0.13341E-06  2530   0.185E-03    0.217E-03
RMM:  11    -0.413183712914E+03    0.46067E-05   -0.75604E-07  2398   0.131E-03    0.106E-03
RMM:  12    -0.413183705137E+03    0.77776E-05   -0.77893E-07  2382   0.123E-03    0.563E-04
RMM:  13    -0.413183699969E+03    0.51674E-05   -0.34588E-07  1814   0.889E-04    0.405E-04
RMM:  14    -0.413183696262E+03    0.37071E-05   -0.16966E-07  1279   0.706E-04    0.214E-04
RMM:  15    -0.413183687599E+03    0.86629E-05   -0.20232E-07  1489   0.745E-04    0.293E-04
RMM:  16    -0.413183678426E+03    0.91732E-05   -0.16616E-07  1286   0.681E-04    0.198E-04
RMM:  17    -0.413183676340E+03    0.20863E-05   -0.64761E-08   977   0.578E-04    0.142E-04
RMM:  18    -0.413183673206E+03    0.31340E-05   -0.52397E-08  1076   0.585E-04    0.496E-05
RMM:  19    -0.413183672453E+03    0.75288E-06   -0.25485E-08   801   0.531E-04
   29 T=    64. E= -.41286752E+03 F= -.41318367E+03 E0= -.41316207E+03  EK= 0.31615E+00 SP= 0.00E+00 SK= 0.00E+00
       N       E                     dE             d eps       ncg     rms          rms(c)
RMM:   1    -0.413197531787E+03   -0.13859E-01   -0.62155E+00  4294   0.610E-01    0.934E-01
RMM:   2    -0.413193277600E+03    0.42542E-02   -0.83695E-02  4277   0.857E-02    0.676E-01
RMM:   3    -0.413189085379E+03    0.41922E-02   -0.54641E-02  4997   0.820E-02    0.309E-01
RMM:   4    -0.413208778463E+03   -0.19693E-01   -0.29600E-02  5094   0.147E-01    0.641E-01
RMM:   5    -0.413185328473E+03    0.23450E-01   -0.11786E-02  4731   0.108E-01    0.434E-02
RMM:   6    -0.413185490583E+03   -0.16211E-03   -0.19533E-03  5794   0.420E-02    0.302E-02
RMM:   7    -0.413185510964E+03   -0.20380E-04   -0.30090E-04  5538   0.174E-02    0.214E-02
RMM:   8    -0.413185512312E+03   -0.13479E-05   -0.51321E-05  4872   0.871E-03    0.932E-03
RMM:   9    -0.413185510444E+03    0.18676E-05   -0.11221E-05  3492   0.400E-03    0.554E-03
RMM:  10    -0.413185509518E+03    0.92617E-06   -0.18167E-06  2557   0.221E-03
   30 T=    65. E= -.41286761E+03 F= -.41318551E+03 E0= -.41316396E+03  EK= 0.31790E+00 SP= 0.00E+00 SK= 0.00E+00
       N       E                     dE             d eps       ncg     rms          rms(c)
RMM:   1    -0.413198784471E+03   -0.13274E-01   -0.63377E+00  4303   0.622E-01    0.939E-01
RMM:   2    -0.413195467482E+03    0.33170E-02   -0.85301E-02  4300   0.951E-02    0.685E-01
RMM:   3    -0.413193814637E+03    0.16528E-02   -0.59559E-02  5038   0.104E-01    0.397E-01
RMM:   4    -0.413206022212E+03   -0.12208E-01   -0.29886E-02  5052   0.150E-01    0.591E-01
RMM:   5    -0.413186981444E+03    0.19041E-01   -0.99876E-03  4655   0.987E-02    0.434E-02
RMM:   6    -0.413187095595E+03   -0.11415E-03   -0.15806E-03  5695   0.373E-02    0.291E-02
RMM:   7    -0.413187109753E+03   -0.14158E-04   -0.26724E-04  5460   0.161E-02    0.202E-02
RMM:   8    -0.413187112832E+03   -0.30797E-05   -0.39236E-05  4778   0.782E-03    0.721E-03
RMM:   9    -0.413187112022E+03    0.80992E-06   -0.77213E-06  3085   0.339E-03
   31 T=    65. E= -.41286736E+03 F= -.41318711E+03 E0= -.41316561E+03  EK= 0.31976E+00 SP= 0.00E+00 SK= 0.00E+00
       N       E                     dE             d eps       ncg     rms          rms(c)
RMM:   1    -0.413201756034E+03   -0.14643E-01   -0.63079E+00  4299   0.617E-01    0.958E-01
RMM:   2    -0.413197730734E+03    0.40253E-02   -0.85223E-02  4304   0.983E-02    0.686E-01
RMM:   3    -0.413198590678E+03   -0.85994E-03   -0.57340E-02  5060   0.116E-01    0.425E-01
RMM:   4    -0.413205157209E+03   -0.65665E-02   -0.29498E-02  5031   0.150E-01    0.534E-01
RMM:   5    -0.413189610224E+03    0.15547E-01   -0.75976E-03  4595   0.893E-02    0.438E-02
RMM:   6    -0.413189685988E+03   -0.75764E-04   -0.12700E-03  5613   0.334E-02    0.297E-02
RMM:   7    -0.413189710141E+03   -0.24152E-04   -0.23224E-04  5309   0.157E-02    0.201E-02
RMM:   8    -0.413189709309E+03    0.83155E-06   -0.35574E-05  4690   0.789E-03    0.672E-03
RMM:   9    -0.413189705187E+03    0.41215E-05   -0.66177E-06  2940   0.313E-03    0.365E-03
RMM:  10    -0.413189700401E+03    0.47862E-05   -0.12979E-06  2524   0.184E-03    0.224E-03
RMM:  11    -0.413189695429E+03    0.49718E-05   -0.75532E-07  2406   0.134E-03    0.112E-03
RMM:  12    -0.413189687439E+03    0.79907E-05   -0.73584E-07  2394   0.122E-03    0.566E-04
RMM:  13    -0.413189683758E+03    0.36810E-05   -0.27968E-07  1779   0.859E-04    0.412E-04
RMM:  14    -0.413189679158E+03    0.45992E-05   -0.15925E-07  1284   0.706E-04    0.206E-04
RMM:  15    -0.413189669567E+03    0.95917E-05   -0.19326E-07  1504   0.740E-04    0.304E-04
RMM:  16    -0.413189661465E+03    0.81018E-05   -0.12413E-07  1179   0.652E-04    0.174E-04
RMM:  17    -0.413189657932E+03    0.35325E-05   -0.68806E-08  1056   0.597E-04    0.121E-04
RMM:  18    -0.413189654591E+03    0.33411E-05   -0.52952E-08  1127   0.591E-04    0.357E-05
RMM:  19    -0.413189653758E+03    0.83294E-06   -0.23785E-08   793   0.526E-04
   32 T=    66. E= -.41286758E+03 F= -.41318965E+03 E0= -.41316820E+03  EK= 0.32207E+00 SP= 0.00E+00 SK= 0.00E+00
       N       E                     dE             d eps       ncg     rms          rms(c)
RMM:   1    -0.413203339211E+03   -0.13685E-01   -0.63052E+00  4298   0.634E-01    0.947E-01
RMM:   2    -0.413199406956E+03    0.39323E-02   -0.85739E-02  4275   0.999E-02    0.682E-01
RMM:   3    -0.413194473872E+03    0.49331E-02   -0.54322E-02  4905   0.895E-02    0.284E-01
RMM:   4    -0.413215664197E+03   -0.21190E-01   -0.28866E-02  5108   0.146E-01    0.650E-01
RMM:   5    -0.413191254574E+03    0.24410E-01   -0.12112E-02  4752   0.110E-01    0.436E-02
RMM:   6    -0.413191438491E+03   -0.18392E-03   -0.20678E-03  5819   0.429E-02    0.302E-02
RMM:   7    -0.413191477969E+03   -0.39477E-04   -0.28783E-04  5537   0.175E-02    0.207E-02
RMM:   8    -0.413191480173E+03   -0.22038E-05   -0.58588E-05  4903   0.890E-03    0.100E-02
RMM:   9    -0.413191476687E+03    0.34855E-05   -0.12526E-05  3727   0.429E-03    0.607E-03
RMM:  10    -0.413191474682E+03    0.20055E-05   -0.20897E-06  2577   0.241E-03    0.362E-03
RMM:  11    -0.413191472047E+03    0.26348E-05   -0.12568E-06  2514   0.177E-03    0.181E-03
RMM:  12    -0.413191467771E+03    0.42758E-05   -0.12855E-06  2506   0.172E-03    0.111E-03
RMM:  13    -0.413191465555E+03    0.22163E-05   -0.41183E-07  2219   0.111E-03    0.667E-04
RMM:  14    -0.413191464529E+03    0.10259E-05   -0.19094E-07  1573   0.771E-04    0.395E-04
RMM:  15    -0.413191459646E+03    0.48829E-05   -0.17885E-07  1737   0.779E-04    0.315E-04
RMM:  16    -0.413191456361E+03    0.32846E-05   -0.94120E-08  1207   0.637E-04    0.287E-04
RMM:  17    -0.413191451715E+03    0.46459E-05   -0.77519E-08  1074   0.606E-04    0.244E-04
RMM:  18    -0.413191448494E+03    0.32214E-05   -0.51159E-08   922   0.571E-04    0.716E-05
RMM:  19    -0.413191446238E+03    0.22558E-05   -0.40818E-08   971   0.579E-04    0.784E-05
RMM:  20    -0.413191445889E+03    0.34927E-06   -0.17424E-08   728   0.539E-04
   33 T=    66. E= -.41286720E+03 F= -.41319145E+03 E0= -.41317004E+03  EK= 0.32424E+00 SP= 0.00E+00 SK= 0.00E+00
       N       E                     dE             d eps       ncg     rms          rms(c)
RMM:   1    -0.413205523401E+03   -0.14077E-01   -0.64388E+00  4303   0.650E-01    0.944E-01
RMM:   2    -0.413201895172E+03    0.36282E-02   -0.87616E-02  4267   0.104E-01    0.690E-01
RMM:   3    -0.413196919416E+03    0.49758E-02   -0.58065E-02  4879   0.891E-02    0.308E-01
RMM:   4    -0.413216667046E+03   -0.19748E-01   -0.26679E-02  5111   0.140E-01    0.634E-01
RMM:   5    -0.413193659668E+03    0.23007E-01   -0.11717E-02  4764   0.107E-01    0.423E-02
RMM:   6    -0.413193826652E+03   -0.16698E-03   -0.19364E-03  5826   0.414E-02    0.284E-02
RMM:   7    -0.413193856989E+03   -0.30337E-04   -0.24763E-04  5535   0.164E-02    0.184E-02
RMM:   8    -0.413193861716E+03   -0.47274E-05   -0.56353E-05  4933   0.836E-03    0.944E-03
RMM:   9    -0.413193859946E+03    0.17698E-05   -0.11737E-05  3770   0.418E-03    0.589E-03
RMM:  10    -0.413193861101E+03   -0.11548E-05   -0.19328E-06  2557   0.234E-03    0.357E-03
RMM:  11    -0.413193861150E+03   -0.48734E-07   -0.13336E-06  2513   0.179E-03
   34 T=    66. E= -.41286733E+03 F= -.41319386E+03 E0= -.41317251E+03  EK= 0.32653E+00 SP= 0.00E+00 SK= 0.00E+00
       N       E                     dE             d eps       ncg     rms          rms(c)
RMM:   1    -0.413210489107E+03   -0.16628E-01   -0.64558E+00  4308   0.671E-01    0.966E-01
RMM:   2    -0.413204313633E+03    0.61755E-02   -0.88077E-02  4280   0.112E-01    0.693E-01
RMM:   3    -0.413198421671E+03    0.58920E-02   -0.54766E-02  4658   0.930E-02    0.249E-01
RMM:   4    -0.413213139699E+03   -0.14718E-01   -0.18246E-02  5116   0.117E-01    0.539E-01
RMM:   5    -0.413196420581E+03    0.16719E-01   -0.83717E-03  4795   0.904E-02    0.395E-02
RMM:   6    -0.413196528173E+03   -0.10759E-03   -0.14012E-03  5800   0.355E-02    0.274E-02
RMM:   7    -0.413196563795E+03   -0.35622E-04   -0.22381E-04  5437   0.162E-02    0.186E-02
RMM:   8    -0.413196552433E+03    0.11362E-04   -0.39841E-05  4743   0.748E-03    0.814E-03
RMM:   9    -0.413196552083E+03    0.35009E-06   -0.97125E-06  3514   0.386E-03
   35 T=    67. E= -.41286770E+03 F= -.41319655E+03 E0= -.41317524E+03  EK= 0.32885E+00 SP= 0.00E+00 SK= 0.00E+00
       N       E                     dE             d eps       ncg     rms          rms(c)
RMM:   1    -0.413211885381E+03   -0.15333E-01   -0.64388E+00  4307   0.703E-01    0.961E-01
RMM:   2    -0.413206240106E+03    0.56453E-02   -0.92540E-02  4299   0.119E-01    0.691E-01
RMM:   3    -0.413203750969E+03    0.24891E-02   -0.54849E-02  4960   0.115E-01    0.336E-01
RMM:   4    -0.413222355274E+03   -0.18604E-01   -0.33169E-02  5060   0.157E-01    0.647E-01
RMM:   5    -0.413198464184E+03    0.23891E-01   -0.11374E-02  4706   0.108E-01    0.449E-02
RMM:   6    -0.413198608031E+03   -0.14385E-03   -0.19981E-03  5786   0.416E-02    0.307E-02
RMM:   7    -0.413198628767E+03   -0.20736E-04   -0.26571E-04  5543   0.165E-02    0.207E-02
RMM:   8    -0.413198626389E+03    0.23783E-05   -0.62994E-05  4970   0.894E-03    0.102E-02
RMM:   9    -0.413198619049E+03    0.73404E-05   -0.12118E-05  3719   0.435E-03    0.525E-03
RMM:  10    -0.413198613689E+03    0.53599E-05   -0.21277E-06  2601   0.238E-03    0.319E-03
RMM:  11    -0.413198608633E+03    0.50558E-05   -0.10458E-06  2498   0.163E-03    0.170E-03
RMM:  12    -0.413198598818E+03    0.98148E-05   -0.12104E-06  2486   0.168E-03    0.102E-03
RMM:  13    -0.413198593836E+03    0.49821E-05   -0.41963E-07  2218   0.110E-03    0.695E-04
RMM:  14    -0.413198592004E+03    0.18321E-05   -0.18695E-07  1561   0.767E-04    0.406E-04
RMM:  15    -0.413198582071E+03    0.99329E-05   -0.24565E-07  2111   0.849E-04    0.628E-04
RMM:  16    -0.413198574763E+03    0.73075E-05   -0.11787E-07  1276   0.634E-04    0.524E-04
RMM:  17    -0.413198568394E+03    0.63694E-05   -0.83108E-08  1011   0.589E-04    0.421E-04
RMM:  18    -0.413198566552E+03    0.18426E-05   -0.51896E-08   990   0.580E-04    0.215E-04
RMM:  19    -0.413198562325E+03    0.42268E-05   -0.65568E-08  1400   0.641E-04    0.190E-04
RMM:  20    -0.413198562016E+03    0.30886E-06   -0.20243E-08   766   0.504E-04
   36 T=    67. E= -.41286750E+03 F= -.41319856E+03 E0= -.41317730E+03  EK= 0.33107E+00 SP= 0.00E+00 SK= 0.00E+00
       N       E                     dE             d eps       ncg     rms          rms(c)
RMM:   1    -0.413214401463E+03   -0.15839E-01   -0.65463E+00  4311   0.709E-01    0.950E-01
RMM:   2    -0.413209676212E+03    0.47253E-02   -0.94351E-02  4260   0.121E-01    0.695E-01
RMM:   3    -0.413203196669E+03    0.64795E-02   -0.56662E-02  4372   0.982E-02    0.250E-01
RMM:   4    -0.413201677224E+03    0.15194E-02   -0.29265E-03  4468   0.323E-02    0.390E-02
RMM:   5    -0.413201794766E+03   -0.11754E-03   -0.30854E-04  5022   0.140E-02    0.539E-02
RMM:   6    -0.413201728495E+03    0.66271E-04   -0.23926E-04  5127   0.144E-02    0.330E-02
RMM:   7    -0.413201735498E+03   -0.70032E-05   -0.15425E-04  4861   0.139E-02    0.228E-02
RMM:   8    -0.413201723666E+03    0.11832E-04   -0.35522E-05  3837   0.506E-03    0.478E-03
RMM:   9    -0.413201724626E+03   -0.96071E-06   -0.69275E-06  2431   0.219E-03
   37 T=    68. E= -.41286798E+03 F= -.41320172E+03 E0= -.41318051E+03  EK= 0.33374E+00 SP= 0.00E+00 SK= 0.00E+00
       N       E                     dE             d eps       ncg     rms          rms(c)
RMM:   1    -0.413216940860E+03   -0.15217E-01   -0.65939E+00  4310   0.726E-01    0.968E-01
RMM:   2    -0.413212414504E+03    0.45264E-02   -0.94204E-02  4261   0.115E-01    0.702E-01
RMM:   3    -0.413205711497E+03    0.67030E-02   -0.56035E-02  4475   0.908E-02    0.238E-01
RMM:   4    -0.413204807090E+03    0.90441E-03   -0.31960E-03  4977   0.418E-02    0.106E-01
RMM:   5    -0.413204272824E+03    0.53427E-03   -0.39820E-04  4775   0.205E-02    0.398E-02
RMM:   6    -0.413204259794E+03    0.13029E-04   -0.27694E-04  5151   0.170E-02    0.291E-02
RMM:   7    -0.413204298887E+03   -0.39093E-04   -0.14404E-04  4718   0.128E-02    0.195E-02
RMM:   8    -0.413204289871E+03    0.90166E-05   -0.19670E-05  4157   0.524E-03    0.680E-03
RMM:   9    -0.413204289471E+03    0.40005E-06   -0.99505E-06  2489   0.233E-03
   38 T=    68. E= -.41286796E+03 F= -.41320429E+03 E0= -.41318311E+03  EK= 0.33633E+00 SP= 0.00E+00 SK= 0.00E+00
       N       E                     dE             d eps       ncg     rms          rms(c)
RMM:   1    -0.413220800784E+03   -0.16511E-01   -0.65940E+00  4309   0.774E-01    0.977E-01
RMM:   2    -0.413214939652E+03    0.58611E-02   -0.95959E-02  4254   0.116E-01    0.700E-01
RMM:   3    -0.413208332831E+03    0.66068E-02   -0.53129E-02  4554   0.856E-02    0.211E-01
RMM:   4    -0.413214936664E+03   -0.66038E-02   -0.94627E-03  5134   0.824E-02    0.377E-01
RMM:   5    -0.413206995734E+03    0.79409E-02   -0.39933E-03  4802   0.628E-02    0.385E-02
RMM:   6    -0.413207016280E+03   -0.20547E-04   -0.79709E-04  5667   0.282E-02    0.300E-02
RMM:   7    -0.413207038400E+03   -0.22120E-04   -0.21920E-04  5311   0.155E-02    0.200E-02
RMM:   8    -0.413207026251E+03    0.12148E-04   -0.37654E-05  5026   0.719E-03    0.870E-03
RMM:   9    -0.413207023392E+03    0.28598E-05   -0.68586E-06  2907   0.300E-03    0.381E-03
RMM:  10    -0.413207017733E+03    0.56586E-05   -0.15128E-06  2514   0.195E-03    0.209E-03
RMM:  11    -0.413207010546E+03    0.71871E-05   -0.83087E-07  2454   0.142E-03    0.977E-04
RMM:  12    -0.413207004476E+03    0.60698E-05   -0.43059E-07  2150   0.104E-03    0.564E-04
RMM:  13    -0.413206999036E+03    0.54398E-05   -0.21530E-07  1600   0.797E-04    0.319E-04
RMM:  14    -0.413206992706E+03    0.63306E-05   -0.14401E-07  1271   0.708E-04    0.219E-04
RMM:  15    -0.413206980576E+03    0.12130E-04   -0.16776E-07  1536   0.740E-04    0.205E-04
RMM:  16    -0.413206974897E+03    0.56786E-05   -0.83047E-08  1185   0.624E-04    0.165E-04
RMM:  17    -0.413206970095E+03    0.48022E-05   -0.58711E-08  1100   0.594E-04    0.760E-05
RMM:  18    -0.413206967045E+03    0.30502E-05   -0.41441E-08   997   0.562E-04    0.483E-05
RMM:  19    -0.413206966529E+03    0.51552E-06   -0.22630E-08   774   0.521E-04
   39 T=    69. E= -.41286781E+03 F= -.41320697E+03 E0= -.41318583E+03  EK= 0.33915E+00 SP= 0.00E+00 SK= 0.00E+00
       N       E                     dE             d eps       ncg     rms          rms(c)
RMM:   1    -0.413223357410E+03   -0.16390E-01   -0.66649E+00  4306   0.791E-01    0.962E-01
RMM:   2    -0.413218563414E+03    0.47940E-02   -0.96773E-02  4249   0.114E-01    0.702E-01
RMM:   3    -0.413212375177E+03    0.61882E-02   -0.56768E-02  4758   0.904E-02    0.261E-01
RMM:   4    -0.413230358986E+03   -0.17984E-01   -0.22718E-02  5109   0.129E-01    0.594E-01
RMM:   5    -0.413210210737E+03    0.20148E-01   -0.99891E-03  4788   0.997E-02    0.427E-02
RMM:   6    -0.413210248833E+03   -0.38096E-04   -0.16633E-03  5759   0.392E-02    0.290E-02
RMM:   7    -0.413210289727E+03   -0.40894E-04   -0.28736E-04  5579   0.164E-02    0.201E-02
RMM:   8    -0.413210282354E+03    0.73735E-05   -0.55258E-05  5050   0.813E-03    0.960E-03
RMM:   9    -0.413210283659E+03   -0.13052E-05   -0.11105E-05  3574   0.406E-03    0.496E-03
RMM:  10    -0.413210283618E+03    0.40862E-07   -0.19504E-06  2575   0.220E-03
   40 T=    70. E= -.41286805E+03 F= -.41321028E+03 E0= -.41318918E+03  EK= 0.34223E+00 SP= 0.00E+00 SK= 0.00E+00
       N       E                     dE             d eps       ncg     rms          rms(c)
RMM:   1    -0.413226586489E+03   -0.16303E-01   -0.67770E+00  4315   0.830E-01    0.974E-01
RMM:   2    -0.413221088512E+03    0.54980E-02   -0.10039E-01  4266   0.115E-01    0.711E-01
RMM:   3    -0.413216490332E+03    0.45982E-02   -0.58061E-02  4963   0.993E-02    0.313E-01
RMM:   4    -0.413241530005E+03   -0.25040E-01   -0.36163E-02  5086   0.162E-01    0.712E-01
RMM:   5    -0.413212507267E+03    0.29023E-01   -0.14046E-02  4760   0.120E-01    0.474E-02
RMM:   6    -0.413212586150E+03   -0.78882E-04   -0.23166E-03  5789   0.451E-02    0.293E-02
RMM:   7    -0.413212612760E+03   -0.26611E-04   -0.26401E-04  5684   0.156E-02    0.178E-02
RMM:   8    -0.413212618761E+03   -0.60004E-05   -0.57068E-05  5019   0.772E-03    0.977E-03
RMM:   9    -0.413212613838E+03    0.49222E-05   -0.16773E-05  4276   0.461E-03    0.562E-03
RMM:  10    -0.413212611862E+03    0.19764E-05   -0.26313E-06  2637   0.252E-03    0.331E-03
RMM:  11    -0.413212609575E+03    0.22875E-05   -0.12451E-06  2499   0.174E-03    0.187E-03
RMM:  12    -0.413212603874E+03    0.57004E-05   -0.12440E-06  2506   0.166E-03    0.939E-04
RMM:  13    -0.413212599537E+03    0.43369E-05   -0.46292E-07  2259   0.111E-03    0.628E-04
RMM:  14    -0.413212597852E+03    0.16857E-05   -0.18962E-07  1530   0.763E-04    0.316E-04
RMM:  15    -0.413212590852E+03    0.69990E-05   -0.18378E-07  1516   0.758E-04    0.316E-04
RMM:  16    -0.413212585540E+03    0.53124E-05   -0.11604E-07  1329   0.671E-04    0.296E-04
RMM:  17    -0.413212582055E+03    0.34848E-05   -0.67130E-08  1061   0.594E-04    0.202E-04
RMM:  18    -0.413212576656E+03    0.53989E-05   -0.70332E-08  1320   0.628E-04    0.130E-04
RMM:  19    -0.413212575168E+03    0.14883E-05   -0.31770E-08   893   0.539E-04    0.377E-05
RMM:  20    -0.413212574107E+03    0.10608E-05   -0.25046E-08   874   0.534E-04    0.539E-05
RMM:  21    -0.413212573817E+03    0.29056E-06   -0.13246E-08   700   0.503E-04
   41 T=    70. E= -.41286766E+03 F= -.41321257E+03 E0= -.41319150E+03  EK= 0.34491E+00 SP= 0.00E+00 SK= 0.00E+00
       N       E                     dE             d eps       ncg     rms          rms(c)
RMM:   1    -0.413235345590E+03   -0.22771E-01   -0.68093E+00  4315   0.920E-01    0.988E-01
RMM:   2    -0.413223726370E+03    0.11619E-01   -0.11007E-01  4283   0.124E-01    0.712E-01
RMM:   3    -0.413217320111E+03    0.64063E-02   -0.49914E-02  4881   0.850E-02    0.216E-01
RMM:   4    -0.413245499437E+03   -0.28179E-01   -0.33586E-02  5116   0.155E-01    0.720E-01
RMM:   5    -0.413215271325E+03    0.30228E-01   -0.14607E-02  4787   0.120E-01    0.477E-02
RMM:   6    -0.413215346447E+03   -0.75121E-04   -0.24338E-03  5790   0.462E-02    0.305E-02
RMM:   7    -0.413215393083E+03   -0.46636E-04   -0.31711E-04  5726   0.167E-02    0.196E-02
RMM:   8    -0.413215388884E+03    0.41987E-05   -0.63727E-05  5077   0.827E-03    0.109E-02
RMM:   9    -0.413215388173E+03    0.71138E-06   -0.16920E-05  4305   0.484E-03    0.602E-03
RMM:  10    -0.413215384617E+03    0.35562E-05   -0.26436E-06  2636   0.254E-03    0.358E-03
RMM:  11    -0.413215381973E+03    0.26439E-05   -0.11617E-06  2495   0.174E-03    0.208E-03
RMM:  12    -0.413215375669E+03    0.63043E-05   -0.12501E-06  2491   0.176E-03    0.112E-03
RMM:  13    -0.413215371446E+03    0.42225E-05   -0.47558E-07  2301   0.120E-03    0.781E-04
RMM:  14    -0.413215370229E+03    0.12165E-05   -0.20571E-07  1728   0.805E-04    0.392E-04
RMM:  15    -0.413215365789E+03    0.44407E-05   -0.13383E-07  1392   0.716E-04    0.204E-04
RMM:  16    -0.413215360568E+03    0.52203E-05   -0.10056E-07  1353   0.678E-04    0.291E-04
RMM:  17    -0.413215357326E+03    0.32423E-05   -0.60135E-08  1077   0.601E-04    0.253E-04
RMM:  18    -0.413215352008E+03    0.53183E-05   -0.59709E-08  1201   0.612E-04    0.176E-04
RMM:  19    -0.413215350057E+03    0.19505E-05   -0.33777E-08   931   0.556E-04    0.611E-05
RMM:  20    -0.413215349142E+03    0.91533E-06   -0.24398E-08   858   0.544E-04
   42 T=    71. E= -.41286775E+03 F= -.41321535E+03 E0= -.41319431E+03  EK= 0.34760E+00 SP= 0.00E+00 SK= 0.00E+00
       N       E                     dE             d eps       ncg     rms          rms(c)
RMM:   1    -0.413233539003E+03   -0.18189E-01   -0.67998E+00  4315   0.930E-01    0.973E-01
RMM:   2    -0.413226174446E+03    0.73646E-02   -0.10237E-01  4362   0.118E-01    0.708E-01
RMM:   3    -0.413219967946E+03    0.62065E-02   -0.54897E-02  4886   0.891E-02    0.259E-01
RMM:   4    -0.413245780627E+03   -0.25813E-01   -0.32466E-02  5113   0.153E-01    0.701E-01
RMM:   5    -0.413217381698E+03    0.28399E-01   -0.13797E-02  4784   0.118E-01    0.472E-02
RMM:   6    -0.413217450732E+03   -0.69034E-04   -0.22911E-03  5773   0.448E-02    0.296E-02
RMM:   7    -0.413217491460E+03   -0.40728E-04   -0.31422E-04  5757   0.166E-02    0.196E-02
RMM:   8    -0.413217488061E+03    0.33991E-05   -0.66744E-05  5093   0.850E-03    0.108E-02
RMM:   9    -0.413217488099E+03   -0.37697E-07   -0.15061E-05  4116   0.468E-03    0.549E-03
RMM:  10    -0.413217486274E+03    0.18243E-05   -0.26244E-06  2636   0.250E-03    0.334E-03
RMM:  11    -0.413217484655E+03    0.16194E-05   -0.11381E-06  2501   0.169E-03    0.190E-03
RMM:  12    -0.413217480336E+03    0.43193E-05   -0.12260E-06  2509   0.168E-03    0.106E-03
RMM:  13    -0.413217476931E+03    0.34046E-05   -0.48284E-07  2280   0.116E-03    0.725E-04
RMM:  14    -0.413217475576E+03    0.13553E-05   -0.20915E-07  1645   0.792E-04    0.340E-04
RMM:  15    -0.413217471365E+03    0.42111E-05   -0.14599E-07  1360   0.723E-04    0.197E-04
RMM:  16    -0.413217466886E+03    0.44787E-05   -0.10571E-07  1291   0.681E-04    0.240E-04
RMM:  17    -0.413217463636E+03    0.32500E-05   -0.71174E-08  1142   0.625E-04    0.225E-04
RMM:  18    -0.413217460073E+03    0.35632E-05   -0.57432E-08  1127   0.602E-04    0.145E-04
RMM:  19    -0.413217457388E+03    0.26849E-05   -0.42488E-08  1025   0.575E-04    0.518E-05
RMM:  20    -0.413217457137E+03    0.25124E-06   -0.19124E-08   734   0.527E-04
   43 T=    71. E= -.41286772E+03 F= -.41321746E+03 E0= -.41319645E+03  EK= 0.34974E+00 SP= 0.00E+00 SK= 0.00E+00
       N       E                     dE             d eps       ncg     rms          rms(c)
RMM:   1    -0.413236963588E+03   -0.19506E-01   -0.69428E+00  4315   0.102E+00    0.979E-01
RMM:   2    -0.413227571722E+03    0.93919E-02   -0.10357E-01  4390   0.131E-01    0.717E-01
RMM:   3    -0.413221876559E+03    0.56952E-02   -0.58183E-02  4904   0.974E-02    0.294E-01
RMM:   4    -0.413248266333E+03   -0.26390E-01   -0.35341E-02  5094   0.161E-01    0.719E-01
RMM:   5    -0.413218464117E+03    0.29802E-01   -0.14397E-02  4777   0.121E-01    0.478E-02
RMM:   6    -0.413218529521E+03   -0.65404E-04   -0.23502E-03  5776   0.453E-02    0.284E-02
RMM:   7    -0.413218569977E+03   -0.40456E-04   -0.28482E-04  5754   0.158E-02    0.177E-02
RMM:   8    -0.413218570903E+03   -0.92643E-06   -0.59665E-05  5046   0.800E-03    0.996E-03
RMM:   9    -0.413218572096E+03   -0.11924E-05   -0.17400E-05  4327   0.479E-03    0.554E-03
RMM:  10    -0.413218571025E+03    0.10710E-05   -0.27181E-06  2639   0.258E-03    0.333E-03
RMM:  11    -0.413218570094E+03    0.93004E-06   -0.12156E-06  2506   0.174E-03
   44 T=    71. E= -.41286749E+03 F= -.41321857E+03 E0= -.41319758E+03  EK= 0.35108E+00 SP= 0.00E+00 SK= 0.00E+00
       N       E                     dE             d eps       ncg     rms          rms(c)
RMM:   1    -0.413238746282E+03   -0.20175E-01   -0.68839E+00  4315   0.104E+00    0.997E-01
RMM:   2    -0.413228816208E+03    0.99301E-02   -0.10683E-01  4415   0.132E-01    0.717E-01
RMM:   3    -0.413222519031E+03    0.62972E-02   -0.52507E-02  4895   0.928E-02    0.247E-01
RMM:   4    -0.413252064573E+03   -0.29546E-01   -0.37113E-02  5104   0.164E-01    0.744E-01
RMM:   5    -0.413219794469E+03    0.32270E-01   -0.15335E-02  4778   0.124E-01    0.495E-02
RMM:   6    -0.413219866576E+03   -0.72107E-04   -0.25344E-03  5765   0.472E-02    0.298E-02
RMM:   7    -0.413219903897E+03   -0.37321E-04   -0.33335E-04  5813   0.170E-02    0.198E-02
RMM:   8    -0.413219898635E+03    0.52619E-05   -0.72872E-05  5122   0.886E-03    0.114E-02
RMM:   9    -0.413219895809E+03    0.28260E-05   -0.17277E-05  4310   0.499E-03    0.564E-03
RMM:  10    -0.413219890642E+03    0.51664E-05   -0.32020E-06  2700   0.269E-03    0.346E-03
RMM:  11    -0.413219887184E+03    0.34585E-05   -0.12218E-06  2507   0.178E-03    0.201E-03
RMM:  12    -0.413219878758E+03    0.84261E-05   -0.11566E-06  2495   0.172E-03    0.107E-03
RMM:  13    -0.413219872932E+03    0.58255E-05   -0.51404E-07  2316   0.119E-03    0.727E-04
RMM:  14    -0.413219870472E+03    0.24605E-05   -0.22218E-07  1725   0.817E-04    0.361E-04
RMM:  15    -0.413219864064E+03    0.64075E-05   -0.14994E-07  1375   0.735E-04    0.205E-04
RMM:  16    -0.413219857444E+03    0.66201E-05   -0.12072E-07  1526   0.712E-04    0.311E-04
RMM:  17    -0.413219853699E+03    0.37452E-05   -0.69409E-08  1127   0.605E-04    0.261E-04
RMM:  18    -0.413219848142E+03    0.55568E-05   -0.69149E-08  1316   0.625E-04    0.129E-04
RMM:  19    -0.413219845981E+03    0.21615E-05   -0.37954E-08   983   0.557E-04    0.596E-05
RMM:  20    -0.413219845386E+03    0.59457E-06   -0.23416E-08   817   0.527E-04
   45 T=    72. E= -.41286794E+03 F= -.41321985E+03 E0= -.41319888E+03  EK= 0.35191E+00 SP= 0.00E+00 SK= 0.00E+00
       N       E                     dE             d eps       ncg     rms          rms(c)
RMM:   1    -0.413237596267E+03   -0.17750E-01   -0.68310E+00  4315   0.111E+00    0.979E-01
RMM:   2    -0.413228107105E+03    0.94892E-02   -0.10703E-01  4448   0.140E-01    0.710E-01
RMM:   3    -0.413224204444E+03    0.39027E-02   -0.53417E-02  4982   0.107E-01    0.313E-01
RMM:   4    -0.413250247030E+03   -0.26043E-01   -0.40911E-02  5088   0.174E-01    0.731E-01
RMM:   5    -0.413219296020E+03    0.30951E-01   -0.14018E-02  4742   0.122E-01    0.501E-02
RMM:   6    -0.413219360309E+03   -0.64289E-04   -0.23720E-03  5748   0.457E-02    0.285E-02
RMM:   7    -0.413219394426E+03   -0.34117E-04   -0.26098E-04  5724   0.153E-02    0.170E-02
RMM:   8    -0.413219401602E+03   -0.71760E-05   -0.51550E-05  5054   0.741E-03    0.890E-03
RMM:   9    -0.413219396496E+03    0.51063E-05   -0.16788E-05  4292   0.459E-03    0.535E-03
RMM:  10    -0.413219394196E+03    0.23004E-05   -0.30599E-06  2665   0.263E-03    0.316E-03
RMM:  11    -0.413219391578E+03    0.26173E-05   -0.13221E-06  2507   0.183E-03    0.175E-03
RMM:  12    -0.413219385942E+03    0.56365E-05   -0.91317E-07  2485   0.152E-03    0.829E-04
RMM:  13    -0.413219381569E+03    0.43731E-05   -0.38644E-07  2149   0.104E-03    0.482E-04
RMM:  14    -0.413219379529E+03    0.20395E-05   -0.17527E-07  1442   0.747E-04    0.243E-04
RMM:  15    -0.413219373740E+03    0.57892E-05   -0.13573E-07  1295   0.714E-04    0.165E-04
RMM:  16    -0.413219369910E+03    0.38304E-05   -0.92055E-08  1243   0.659E-04    0.144E-04
RMM:  17    -0.413219367074E+03    0.28352E-05   -0.65546E-08  1145   0.616E-04    0.996E-05
RMM:  18    -0.413219362623E+03    0.44519E-05   -0.62082E-08  1269   0.622E-04    0.602E-05
RMM:  19    -0.413219360490E+03    0.21330E-05   -0.34083E-08   951   0.557E-04    0.414E-05
RMM:  20    -0.413219360108E+03    0.38131E-06   -0.17751E-08   760   0.522E-04
   46 T=    72. E= -.41286791E+03 F= -.41321936E+03 E0= -.41319841E+03  EK= 0.35145E+00 SP= 0.00E+00 SK= 0.00E+00
       N       E                     dE             d eps       ncg     rms          rms(c)
RMM:   1    -0.413238281462E+03   -0.18921E-01   -0.69216E+00  4315   0.124E+00    0.967E-01
RMM:   2    -0.413227356362E+03    0.10925E-01   -0.11411E-01  4466   0.156E-01    0.717E-01
RMM:   3    -0.413225771114E+03    0.15852E-02   -0.56589E-02  5012   0.122E-01    0.389E-01
RMM:   4    -0.413246257734E+03   -0.20487E-01   -0.42864E-02  5061   0.181E-01    0.703E-01
RMM:   5    -0.413218004761E+03    0.28253E-01   -0.12453E-02  4697   0.118E-01    0.498E-02
RMM:   6    -0.413218034505E+03   -0.29744E-04   -0.21188E-03  5698   0.434E-02    0.269E-02
RMM:   7    -0.413218067111E+03   -0.32606E-04   -0.24947E-04  5753   0.154E-02    0.177E-02
RMM:   8    -0.413218080137E+03   -0.13026E-04   -0.80608E-05  5136   0.927E-03    0.108E-02
RMM:   9    -0.413218073788E+03    0.63494E-05   -0.14929E-05  4131   0.500E-03    0.460E-03
RMM:  10    -0.413218072505E+03    0.12829E-05   -0.31479E-06  2716   0.254E-03    0.288E-03
RMM:  11    -0.413218070751E+03    0.17540E-05   -0.13673E-06  2517   0.179E-03    0.142E-03
RMM:  12    -0.413218067109E+03    0.36418E-05   -0.90304E-07  2451   0.145E-03    0.714E-04
RMM:  13    -0.413218063864E+03    0.32449E-05   -0.41622E-07  1988   0.101E-03    0.344E-04
RMM:  14    -0.413218061525E+03    0.23391E-05   -0.20713E-07  1461   0.770E-04    0.172E-04
RMM:  15    -0.413218056418E+03    0.51076E-05   -0.20068E-07  1448   0.765E-04    0.153E-04
RMM:  16    -0.413218053423E+03    0.29948E-05   -0.12750E-07  1337   0.677E-04    0.117E-04
RMM:  17    -0.413218050104E+03    0.33191E-05   -0.10177E-07  1327   0.645E-04    0.576E-05
RMM:  18    -0.413218046383E+03    0.37208E-05   -0.76688E-08  1165   0.608E-04    0.526E-05
RMM:  19    -0.413218046213E+03    0.16942E-06   -0.32213E-08   777   0.525E-04
   47 T=    71. E= -.41286812E+03 F= -.41321805E+03 E0= -.41319711E+03  EK= 0.34993E+00 SP= 0.00E+00 SK= 0.00E+00
       N       E                     dE             d eps       ncg     rms          rms(c)
RMM:   1    -0.413241045184E+03   -0.22999E-01   -0.68653E+00  4313   0.133E+00    0.984E-01
RMM:   2    -0.413224512045E+03    0.16533E-01   -0.11162E-01  4494   0.164E-01    0.715E-01
RMM:   3    -0.413225527670E+03   -0.10156E-02   -0.55699E-02  5035   0.133E-01    0.426E-01
RMM:   4    -0.413238103590E+03   -0.12576E-01   -0.39951E-02  5038   0.177E-01    0.629E-01
RMM:   5    -0.413215609056E+03    0.22495E-01   -0.92895E-03  4659   0.106E-01    0.492E-02
RMM:   6    -0.413215600116E+03    0.89404E-05   -0.16261E-03  5595   0.386E-02    0.263E-02
RMM:   7    -0.413215628484E+03   -0.28368E-04   -0.20112E-04  5698   0.141E-02    0.165E-02
RMM:   8    -0.413215638815E+03   -0.10331E-04   -0.78298E-05  5141   0.917E-03    0.106E-02
RMM:   9    -0.413215629771E+03    0.90441E-05   -0.14262E-05  4097   0.493E-03    0.421E-03
RMM:  10    -0.413215626921E+03    0.28494E-05   -0.30027E-06  2722   0.250E-03    0.260E-03
RMM:  11    -0.413215623362E+03    0.35590E-05   -0.12504E-06  2501   0.178E-03    0.127E-03
RMM:  12    -0.413215618198E+03    0.51644E-05   -0.68870E-07  2405   0.134E-03    0.670E-04
RMM:  13    -0.413215613939E+03    0.42591E-05   -0.31184E-07  1822   0.927E-04    0.295E-04
RMM:  14    -0.413215610456E+03    0.34826E-05   -0.17834E-07  1367   0.747E-04    0.156E-04
RMM:  15    -0.413215605219E+03    0.52369E-05   -0.14706E-07  1376   0.726E-04    0.119E-04
RMM:  16    -0.413215601426E+03    0.37930E-05   -0.10722E-07  1331   0.668E-04    0.909E-05
RMM:  17    -0.413215595805E+03    0.56210E-05   -0.10067E-07  1447   0.667E-04    0.519E-05
RMM:  18    -0.413215593856E+03    0.19498E-05   -0.49172E-08   959   0.552E-04    0.371E-05
RMM:  19    -0.413215592902E+03    0.95308E-06   -0.31304E-08   836   0.530E-04
   48 T=    71. E= -.41286844E+03 F= -.41321559E+03 E0= -.41319467E+03  EK= 0.34715E+00 SP= 0.00E+00 SK= 0.00E+00
       N       E                     dE             d eps       ncg     rms          rms(c)
RMM:   1    -0.413238737394E+03   -0.23144E-01   -0.67548E+00  4311   0.144E+00    0.972E-01
RMM:   2    -0.413219472795E+03    0.19265E-01   -0.11187E-01  4558   0.175E-01    0.704E-01
RMM:   3    -0.413226321507E+03   -0.68487E-02   -0.56944E-02  5075   0.151E-01    0.524E-01
RMM:   4    -0.413226548521E+03   -0.22701E-03   -0.38436E-02  4988   0.177E-01    0.529E-01
RMM:   5    -0.413210787233E+03    0.15761E-01   -0.61400E-03  4590   0.930E-02    0.485E-02
RMM:   6    -0.413210743079E+03    0.44154E-04   -0.97775E-04  5215   0.318E-02    0.252E-02
RMM:   7    -0.413210772118E+03   -0.29040E-04   -0.13885E-04  5528   0.123E-02    0.129E-02
RMM:   8    -0.413210780113E+03   -0.79950E-05   -0.60579E-05  5247   0.807E-03    0.978E-03
RMM:   9    -0.413210769944E+03    0.10169E-04   -0.13313E-05  4071   0.459E-03    0.379E-03
RMM:  10    -0.413210767026E+03    0.29183E-05   -0.26403E-06  2663   0.243E-03    0.230E-03
RMM:  11    -0.413210762428E+03    0.45983E-05   -0.12494E-06  2479   0.183E-03    0.118E-03
RMM:  12    -0.413210757880E+03    0.45473E-05   -0.56039E-07  2345   0.127E-03    0.678E-04
RMM:  13    -0.413210753405E+03    0.44753E-05   -0.27186E-07  1757   0.898E-04    0.312E-04
RMM:  14    -0.413210748707E+03    0.46981E-05   -0.16393E-07  1379   0.738E-04    0.173E-04
RMM:  15    -0.413210744287E+03    0.44202E-05   -0.12457E-07  1318   0.687E-04    0.127E-04
RMM:  16    -0.413210740527E+03    0.37597E-05   -0.90746E-08  1243   0.638E-04    0.887E-05
RMM:  17    -0.413210734519E+03    0.60078E-05   -0.93392E-08  1369   0.651E-04    0.693E-05
RMM:  18    -0.413210733761E+03    0.75851E-06   -0.33703E-08   797   0.515E-04
   49 T=    70. E= -.41286815E+03 F= -.41321073E+03 E0= -.41318981E+03  EK= 0.34258E+00 SP= 0.00E+00 SK= 0.00E+00
       N       E                     dE             d eps       ncg     rms          rms(c)
RMM:   1    -0.413231161851E+03   -0.20427E-01   -0.66953E+00  4310   0.153E+00    0.937E-01
RMM:   2    -0.413214026469E+03    0.17135E-01   -0.12458E-01  4649   0.187E-01    0.701E-01
RMM:   3    -0.413230100542E+03   -0.16074E-01   -0.59512E-02  5097   0.175E-01    0.658E-01
RMM:   4    -0.413217507733E+03    0.12593E-01   -0.43711E-02  4962   0.191E-01    0.473E-01
RMM:   5    -0.413205046801E+03    0.12461E-01   -0.52382E-03  4552   0.917E-02    0.512E-02
RMM:   6    -0.413204956997E+03    0.89804E-04   -0.65603E-04  4868   0.292E-02    0.254E-02
RMM:   7    -0.413204981063E+03   -0.24066E-04   -0.14436E-04  5673   0.132E-02    0.116E-02
RMM:   8    -0.413204979612E+03    0.14514E-05   -0.30751E-05  5074   0.666E-03    0.657E-03
RMM:   9    -0.413204978359E+03    0.12526E-05   -0.86216E-06  3565   0.346E-03    0.338E-03
RMM:  10    -0.413204975166E+03    0.31925E-05   -0.17864E-06  2561   0.217E-03    0.240E-03
RMM:  11    -0.413204971443E+03    0.37233E-05   -0.10018E-06  2485   0.168E-03    0.144E-03
RMM:  12    -0.413204968723E+03    0.27202E-05   -0.44122E-07  2353   0.111E-03    0.756E-04
RMM:  13    -0.413204965018E+03    0.37049E-05   -0.34238E-07  1965   0.926E-04    0.409E-04
RMM:  14    -0.413204960776E+03    0.42420E-05   -0.25998E-07  1642   0.796E-04    0.374E-04
RMM:  15    -0.413204956459E+03    0.43170E-05   -0.18657E-07  1314   0.698E-04    0.134E-04
RMM:  16    -0.413204954324E+03    0.21351E-05   -0.10540E-07  1195   0.618E-04    0.977E-05
RMM:  17    -0.413204951440E+03    0.28840E-05   -0.95058E-08  1186   0.605E-04    0.769E-05
RMM:  18    -0.413204949338E+03    0.21019E-05   -0.63500E-08  1012   0.567E-04    0.539E-05
RMM:  19    -0.413204947497E+03    0.18409E-05   -0.50321E-08   953   0.558E-04    0.299E-05
RMM:  20    -0.413204946628E+03    0.86884E-06   -0.28447E-08   814   0.523E-04
   50 T=    69. E= -.41286840E+03 F= -.41320495E+03 E0= -.41318403E+03  EK= 0.33654E+00 SP= 0.00E+00 SK= 0.00E+00
       N       E                     dE             d eps       ncg     rms          rms(c)
RMM:   1    -0.413222657227E+03   -0.17710E-01   -0.65437E+00  4310   0.158E+00    0.941E-01
RMM:   2    -0.413205356841E+03    0.17300E-01   -0.12396E-01  4715   0.191E-01    0.698E-01
RMM:   3    -0.413229555996E+03   -0.24199E-01   -0.63130E-02  5121   0.192E-01    0.751E-01
RMM:   4    -0.413205483066E+03    0.24073E-01   -0.44457E-02  4938   0.196E-01    0.400E-01
RMM:   5    -0.413196646119E+03    0.88369E-02   -0.45080E-03  4645   0.891E-02    0.555E-02
RMM:   6    -0.413196516248E+03    0.12987E-03   -0.47463E-04  4723   0.280E-02    0.274E-02
RMM:   7    -0.413196556242E+03   -0.39995E-04   -0.23362E-04  5651   0.171E-02    0.203E-02
RMM:   8    -0.413196537386E+03    0.18856E-04   -0.59480E-05  5023   0.906E-03    0.949E-03
RMM:   9    -0.413196534668E+03    0.27182E-05   -0.17241E-05  4662   0.528E-03    0.418E-03
RMM:  10    -0.413196531101E+03    0.35669E-05   -0.25145E-06  2683   0.250E-03    0.264E-03
RMM:  11    -0.413196526211E+03    0.48903E-05   -0.11480E-06  2510   0.181E-03    0.180E-03
RMM:  12    -0.413196522708E+03    0.35027E-05   -0.45004E-07  2282   0.112E-03    0.871E-04
RMM:  13    -0.413196518735E+03    0.39729E-05   -0.39120E-07  2232   0.979E-04    0.450E-04
RMM:  14    -0.413196515223E+03    0.35122E-05   -0.21849E-07  1523   0.763E-04    0.328E-04
RMM:  15    -0.413196509808E+03    0.54151E-05   -0.22246E-07  1479   0.761E-04    0.142E-04
RMM:  16    -0.413196507508E+03    0.23005E-05   -0.11322E-07  1219   0.633E-04    0.977E-05
RMM:  17    -0.413196503134E+03    0.43731E-05   -0.13668E-07  1401   0.674E-04    0.740E-05
RMM:  18    -0.413196501657E+03    0.14775E-05   -0.68197E-08  1058   0.564E-04    0.547E-05
RMM:  19    -0.413196500227E+03    0.14297E-05   -0.51032E-08   983   0.545E-04    0.308E-05
RMM:  20    -0.413196499767E+03    0.45983E-06   -0.27757E-08   806   0.505E-04
   51 T=    67. E= -.41286813E+03 F= -.41319650E+03 E0= -.41317559E+03  EK= 0.32837E+00 SP= 0.00E+00 SK= 0.00E+00
       N       E                     dE             d eps       ncg     rms          rms(c)
RMM:   1    -0.413216103496E+03   -0.19603E-01   -0.63378E+00  4305   0.170E+00    0.938E-01
RMM:   2    -0.413194615534E+03    0.21488E-01   -0.12081E-01  4788   0.203E-01    0.682E-01
RMM:   3    -0.413228208062E+03   -0.33593E-01   -0.66516E-02  5136   0.209E-01    0.844E-01
RMM:   4    -0.413192034036E+03    0.36174E-01   -0.44865E-02  4922   0.200E-01    0.320E-01
RMM:   5    -0.413186469741E+03    0.55643E-02   -0.45328E-03  4987   0.888E-02    0.644E-02
RMM:   6    -0.413186272058E+03    0.19768E-03   -0.49764E-04  4641   0.298E-02    0.307E-02
RMM:   7    -0.413186299558E+03   -0.27500E-04   -0.24436E-04  5636   0.177E-02    0.227E-02
RMM:   8    -0.413186282909E+03    0.16649E-04   -0.63320E-05  5031   0.981E-03    0.105E-02
RMM:   9    -0.413186277743E+03    0.51664E-05   -0.16867E-05  4418   0.515E-03    0.414E-03
RMM:  10    -0.413186272623E+03    0.51192E-05   -0.27794E-06  2726   0.258E-03    0.274E-03
RMM:  11    -0.413186266529E+03    0.60946E-05   -0.89967E-07  2510   0.168E-03    0.136E-03
RMM:  12    -0.413186262426E+03    0.41027E-05   -0.49117E-07  2189   0.112E-03    0.622E-04
RMM:  13    -0.413186257089E+03    0.53367E-05   -0.47836E-07  2340   0.108E-03    0.530E-04
RMM:  14    -0.413186253349E+03    0.37405E-05   -0.24899E-07  1631   0.825E-04    0.354E-04
[...]
RMM:  15    -0.413794750693E+03   -0.98559E-05   -0.17563E-06  2651   0.166E-03    0.589E-04
RMM:  16    -0.413794760120E+03   -0.94269E-05   -0.19441E-06  2593   0.157E-03    0.352E-04
RMM:  17    -0.413794765600E+03   -0.54795E-05   -0.11409E-06  2062   0.113E-03    0.253E-04
RMM:  18    -0.413794770985E+03   -0.53857E-05   -0.98270E-07  2311   0.112E-03    0.204E-04
RMM:  19    -0.413794773189E+03   -0.22038E-05   -0.34934E-07  1449   0.724E-04    0.132E-04
RMM:  20    -0.413794775910E+03   -0.27206E-05   -0.24192E-07  1366   0.683E-04    0.753E-05
RMM:  21    -0.413794776998E+03   -0.10885E-05   -0.11389E-07  1134   0.601E-04    0.678E-05
RMM:  22    -0.413794777575E+03   -0.57726E-06   -0.58297E-08   979   0.557E-04
  139 T=   187. E= -.41287433E+03 F= -.41379478E+03 E0= -.41377594E+03  EK= 0.92045E+00 SP= 0.00E+00 SK= 0.00E+00
       N       E                     dE             d eps       ncg     rms          rms(c)
RMM:   1    -0.414110420775E+03   -0.31564E+00   -0.22710E+01  4264   0.880E+00    0.983E-01
RMM:   2    -0.413990864287E+03    0.11956E+00   -0.57506E-01  5133   0.919E-01    0.765E-01
RMM:   3    -0.414043212863E+03   -0.52349E-01   -0.10937E-01  5510   0.366E-01    0.109E+00
RMM:   4    -0.413994684095E+03    0.48529E-01   -0.45509E-02  5135   0.244E-01    0.494E-01
RMM:   5    -0.413993530261E+03    0.11538E-02   -0.28871E-02  5257   0.216E-01    0.240E-01
RMM:   6    -0.413992157686E+03    0.13726E-02   -0.36506E-03  4641   0.921E-02    0.741E-02
RMM:   7    -0.413992096314E+03    0.61371E-04   -0.19073E-03  5657   0.495E-02    0.380E-02
RMM:   8    -0.413992084203E+03    0.12112E-04   -0.50847E-04  5791   0.245E-02    0.313E-02
RMM:   9    -0.413992031876E+03    0.52327E-04   -0.13300E-04  5017   0.145E-02    0.163E-02
RMM:  10    -0.413992025810E+03    0.60653E-05   -0.64641E-05  5567   0.942E-03    0.848E-03
RMM:  11    -0.413992024889E+03    0.92128E-06   -0.10242E-05  3606   0.430E-03    0.491E-03
RMM:  12    -0.413992028849E+03   -0.39600E-05   -0.35720E-06  2849   0.305E-03    0.241E-03
RMM:  13    -0.413992036278E+03   -0.74286E-05   -0.23041E-06  2672   0.242E-03    0.138E-03
RMM:  14    -0.413992045671E+03   -0.93938E-05   -0.18478E-06  2644   0.201E-03    0.741E-04
RMM:  15    -0.413992054937E+03   -0.92658E-05   -0.17864E-06  2653   0.173E-03    0.578E-04
RMM:  16    -0.413992064582E+03   -0.96446E-05   -0.21494E-06  2678   0.167E-03    0.366E-04
RMM:  17    -0.413992071016E+03   -0.64346E-05   -0.15313E-06  2206   0.128E-03    0.241E-04
RMM:  18    -0.413992075582E+03   -0.45653E-05   -0.90222E-07  2079   0.106E-03    0.163E-04
RMM:  19    -0.413992078461E+03   -0.28794E-05   -0.43629E-07  1620   0.806E-04    0.119E-04
RMM:  20    -0.413992080627E+03   -0.21661E-05   -0.23880E-07  1337   0.676E-04    0.705E-05
RMM:  21    -0.413992081819E+03   -0.11919E-05   -0.13065E-07  1188   0.606E-04    0.503E-05
RMM:  22    -0.413992082660E+03   -0.84086E-06   -0.75868E-08  1078   0.565E-04
  140 T=   226. E= -.41288277E+03 F= -.41399208E+03 E0= -.41397307E+03  EK= 0.11093E+01 SP= 0.00E+00 SK= 0.00E+00
       N       E                     dE             d eps       ncg     rms          rms(c)
RMM:   1    -0.414248598661E+03   -0.25652E+00   -0.27138E+01  4264   0.940E+00    0.128E+00
RMM:   2    -0.414069350226E+03    0.17925E+00   -0.86112E-01  5193   0.102E+00    0.959E-01
RMM:   3    -0.414169763132E+03   -0.10041E+00   -0.18311E-01  5404   0.474E-01    0.144E+00
RMM:   4    -0.414077474281E+03    0.92289E-01   -0.84088E-02  5119   0.327E-01    0.618E-01
RMM:   5    -0.414072747634E+03    0.47266E-02   -0.48703E-02  5294   0.276E-01    0.254E-01
RMM:   6    -0.414071484658E+03    0.12630E-02   -0.66791E-03  5194   0.112E-01    0.110E-01
RMM:   7    -0.414071143657E+03    0.34100E-03   -0.24550E-03  5380   0.594E-02    0.610E-02
RMM:   8    -0.414071041437E+03    0.10222E-03   -0.94733E-04  5658   0.360E-02    0.352E-02
RMM:   9    -0.414071014032E+03    0.27404E-04   -0.23275E-04  5642   0.182E-02    0.253E-02
RMM:  10    -0.414070990629E+03    0.23403E-04   -0.78246E-05  5121   0.114E-02    0.915E-03
RMM:  11    -0.414070988524E+03    0.21052E-05   -0.35177E-05  5402   0.643E-03    0.780E-03
RMM:  12    -0.414070986307E+03    0.22171E-05   -0.67360E-06  3463   0.388E-03    0.323E-03
RMM:  13    -0.414070988125E+03   -0.18182E-05   -0.33198E-06  2819   0.270E-03    0.174E-03
RMM:  14    -0.414070991875E+03   -0.37493E-05   -0.14720E-06  2577   0.203E-03    0.862E-04
RMM:  15    -0.414070995403E+03   -0.35287E-05   -0.10677E-06  2532   0.151E-03    0.630E-04
RMM:  16    -0.414070999609E+03   -0.42053E-05   -0.12095E-06  2520   0.141E-03    0.462E-04
RMM:  17    -0.414071002873E+03   -0.32639E-05   -0.97466E-07  2245   0.115E-03    0.396E-04
RMM:  18    -0.414071005639E+03   -0.27665E-05   -0.77720E-07  2052   0.103E-03    0.225E-04
RMM:  19    -0.414071007811E+03   -0.21721E-05   -0.62297E-07  1860   0.908E-04    0.148E-04
RMM:  20    -0.414071009368E+03   -0.15573E-05   -0.30026E-07  1411   0.703E-04    0.102E-04
RMM:  21    -0.414071010430E+03   -0.10616E-05   -0.16655E-07  1153   0.607E-04    0.618E-05
RMM:  22    -0.414071011132E+03   -0.70160E-06   -0.91551E-08  1023   0.557E-04
  141 T=   242. E= -.41288357E+03 F= -.41407101E+03 E0= -.41405148E+03  EK= 0.11874E+01 SP= 0.00E+00 SK= 0.00E+00
       N       E                     dE             d eps       ncg     rms          rms(c)
RMM:   1    -0.414209822496E+03   -0.13881E+00   -0.27951E+01  4266   0.916E+00    0.134E+00
RMM:   2    -0.414019949046E+03    0.18987E+00   -0.10904E+00  5307   0.106E+00    0.103E+00
RMM:   3    -0.414120379575E+03   -0.10043E+00   -0.20921E-01  5339   0.498E-01    0.154E+00
RMM:   4    -0.414019794133E+03    0.10059E+00   -0.97120E-02  5111   0.368E-01    0.656E-01
RMM:   5    -0.414014459288E+03    0.53348E-02   -0.34256E-02  4956   0.253E-01    0.210E-01
RMM:   6    -0.414014398246E+03    0.61042E-04   -0.76564E-03  5607   0.108E-01    0.103E-01
RMM:   7    -0.414014187574E+03    0.21067E-03   -0.21313E-03  5270   0.553E-02    0.613E-02
RMM:   8    -0.414014148634E+03    0.38940E-04   -0.92760E-04  5676   0.350E-02    0.409E-02
RMM:   9    -0.414014106014E+03    0.42620E-04   -0.29209E-04  5598   0.204E-02    0.277E-02
RMM:  10    -0.414014086191E+03    0.19824E-04   -0.11004E-04  5360   0.135E-02    0.104E-02
RMM:  11    -0.414014084062E+03    0.21289E-05   -0.37767E-05  5519   0.673E-03    0.863E-03
RMM:  12    -0.414014079376E+03    0.46862E-05   -0.90232E-06  3849   0.423E-03    0.314E-03
RMM:  13    -0.414014078277E+03    0.10986E-05   -0.42660E-06  3008   0.287E-03    0.213E-03
RMM:  14    -0.414014077600E+03    0.67704E-06   -0.89027E-07  2495   0.180E-03
  142 T=   231. E= -.41287891E+03 F= -.41401408E+03 E0= -.41399372E+03  EK= 0.11352E+01 SP= 0.00E+00 SK= 0.00E+00
       N       E                     dE             d eps       ncg     rms          rms(c)
RMM:   1    -0.414040848127E+03   -0.26770E-01   -0.26320E+01  4269   0.853E+00    0.166E+00
RMM:   2    -0.413884705967E+03    0.15614E+00   -0.11619E+00  5398   0.108E+00    0.139E+00
RMM:   3    -0.413985179715E+03   -0.10047E+00   -0.24099E-01  5380   0.529E-01    0.175E+00
RMM:   4    -0.413874501145E+03    0.11068E+00   -0.13155E-01  5144   0.428E-01    0.744E-01
RMM:   5    -0.413865759287E+03    0.87419E-02   -0.44440E-02  4603   0.299E-01    0.202E-01
RMM:   6    -0.413865414757E+03    0.34453E-03   -0.98817E-03  5532   0.124E-01    0.117E-01
RMM:   7    -0.413865206924E+03    0.20783E-03   -0.27409E-03  5334   0.616E-02    0.715E-02
RMM:   8    -0.413865062507E+03    0.14442E-03   -0.91321E-04  5438   0.362E-02    0.426E-02
RMM:   9    -0.413865048040E+03    0.14467E-04   -0.39409E-04  5582   0.242E-02    0.275E-02
RMM:  10    -0.413865030156E+03    0.17884E-04   -0.93140E-05  5191   0.130E-02    0.107E-02
RMM:  11    -0.413865029815E+03    0.34151E-06   -0.39732E-05  5477   0.686E-03    0.766E-03
RMM:  12    -0.413865026322E+03    0.34929E-05   -0.72772E-06  3524   0.380E-03    0.307E-03
RMM:  13    -0.413865024988E+03    0.13338E-05   -0.32615E-06  2792   0.261E-03    0.191E-03
RMM:  14    -0.413865023671E+03    0.13170E-05   -0.75667E-07  2465   0.163E-03    0.714E-04
RMM:  15    -0.413865022914E+03    0.75681E-06   -0.35781E-07  2120   0.101E-03
  143 T=   198. E= -.41289431E+03 F= -.41386502E+03 E0= -.41384379E+03  EK= 0.97071E+00 SP= 0.00E+00 SK= 0.00E+00
       N       E                     dE             d eps       ncg     rms          rms(c)
RMM:   1    -0.413590896651E+03    0.27413E+00   -0.20899E+01  4268   0.738E+00    0.235E+00
RMM:   2    -0.413505209002E+03    0.85688E-01   -0.98186E-01  5396   0.101E+00    0.193E+00
RMM:   3    -0.413779786798E+03   -0.27458E+00   -0.40767E-01  5354   0.664E-01    0.249E+00
RMM:   4    -0.413533866120E+03    0.24592E+00   -0.30570E-01  5102   0.593E-01    0.985E-01
RMM:   5    -0.413495188581E+03    0.38678E-01   -0.11095E-01  4940   0.432E-01    0.269E-01
RMM:   6    -0.413493079613E+03    0.21090E-02   -0.13710E-02  5524   0.155E-01    0.124E-01
RMM:   7    -0.413492646260E+03    0.43335E-03   -0.19455E-03  4720   0.587E-02    0.606E-02
RMM:   8    -0.413492659232E+03   -0.12973E-04   -0.13835E-03  5551   0.450E-02    0.458E-02
RMM:   9    -0.413492649038E+03    0.10194E-04   -0.31553E-04  5729   0.204E-02    0.323E-02
RMM:  10    -0.413492619509E+03    0.29529E-04   -0.20186E-04  5496   0.165E-02    0.139E-02
RMM:  11    -0.413492620503E+03   -0.99383E-06   -0.59640E-05  5806   0.808E-03    0.107E-02
RMM:  12    -0.413492615154E+03    0.53497E-05   -0.21000E-05  4899   0.592E-03    0.422E-03
RMM:  13    -0.413492613771E+03    0.13825E-05   -0.30915E-06  2788   0.252E-03    0.190E-03
RMM:  14    -0.413492612735E+03    0.10362E-05   -0.97967E-07  2475   0.174E-03    0.840E-04
RMM:  15    -0.413492611706E+03    0.10291E-05   -0.44332E-07  2269   0.118E-03    0.429E-04
RMM:  16    -0.413492610584E+03    0.11214E-05   -0.26320E-07  1998   0.908E-04    0.216E-04
RMM:  17    -0.413492609646E+03    0.93802E-06   -0.14847E-07  1468   0.743E-04
  144 T=   122. E= -.41289207E+03 F= -.41349261E+03 E0= -.41347079E+03  EK= 0.60054E+00 SP= 0.00E+00 SK= 0.00E+00
       N       E                     dE             d eps       ncg     rms          rms(c)
RMM:   1    -0.413080228552E+03    0.41238E+00   -0.82500E+00  4265   0.459E+00    0.171E+00
RMM:   2    -0.413083768781E+03   -0.35402E-02   -0.39206E-01  5388   0.623E-01    0.137E+00
RMM:   3    -0.413088477457E+03   -0.47087E-02   -0.10025E-01  4859   0.395E-01    0.570E-01
RMM:   4    -0.413097534655E+03   -0.90572E-02   -0.50283E-02  4781   0.284E-01    0.522E-01
RMM:   5    -0.413084349748E+03    0.13185E-01   -0.17190E-02  5331   0.146E-01    0.254E-01
RMM:   6    -0.413081199161E+03    0.31506E-02   -0.34926E-03  4769   0.831E-02    0.722E-02
RMM:   7    -0.413081136180E+03    0.62981E-04   -0.12606E-03  5565   0.422E-02    0.384E-02
RMM:   8    -0.413081146322E+03   -0.10142E-04   -0.32607E-04  5277   0.217E-02    0.229E-02
RMM:   9    -0.413081134519E+03    0.11803E-04   -0.92525E-05  5533   0.113E-02    0.137E-02
RMM:  10    -0.413081136131E+03   -0.16115E-05   -0.34553E-05  5453   0.678E-03    0.900E-03
RMM:  11    -0.413081132679E+03    0.34511E-05   -0.10408E-05  4030   0.428E-03    0.327E-03
RMM:  12    -0.413081132533E+03    0.14631E-06   -0.24843E-06  2624   0.253E-03
  145 T=    49. E= -.41284236E+03 F= -.41308113E+03 E0= -.41305909E+03  EK= 0.23878E+00 SP= 0.00E+00 SK= 0.00E+00
       N       E                     dE             d eps       ncg     rms          rms(c)
RMM:   1    -0.413266173319E+03   -0.18504E+00   -0.37589E+00  4274   0.328E+00    0.985E-01
RMM:   2    -0.413268260333E+03   -0.20870E-02   -0.12606E-01  5332   0.367E-01    0.755E-01
RMM:   3    -0.413325510867E+03   -0.57251E-01   -0.81170E-02  5315   0.278E-01    0.116E+00
RMM:   4    -0.413267868915E+03    0.57642E-01   -0.56259E-02  5076   0.266E-01    0.298E-01
RMM:   5    -0.413264005166E+03    0.38637E-02   -0.18882E-02  5007   0.173E-01    0.804E-02
RMM:   6    -0.413263908821E+03    0.96344E-04   -0.40129E-03  5806   0.711E-02    0.665E-02
RMM:   7    -0.413263742790E+03    0.16603E-03   -0.55680E-04  4826   0.294E-02    0.285E-02
RMM:   8    -0.413263734215E+03    0.85751E-05   -0.25868E-04  5691   0.188E-02    0.147E-02
RMM:   9    -0.413263736989E+03   -0.27740E-05   -0.47843E-05  5511   0.777E-03    0.115E-02
RMM:  10    -0.413263735416E+03    0.15728E-05   -0.19222E-05  4702   0.534E-03    0.436E-03
RMM:  11    -0.413263737350E+03   -0.19342E-05   -0.74141E-06  3495   0.326E-03    0.378E-03
RMM:  12    -0.413263738591E+03   -0.12413E-05   -0.13116E-06  2557   0.215E-03    0.119E-03
RMM:  13    -0.413263739383E+03   -0.79173E-06   -0.44669E-07  2364   0.117E-03
  146 T=    80. E= -.41286914E+03 F= -.41326374E+03 E0= -.41324181E+03  EK= 0.39460E+00 SP= 0.00E+00 SK= 0.00E+00
       N       E                     dE             d eps       ncg     rms          rms(c)
RMM:   1    -0.413790963954E+03   -0.52723E+00   -0.15150E+01  4273   0.669E+00    0.221E+00
RMM:   2    -0.413747380245E+03    0.43584E-01   -0.60148E-01  5334   0.854E-01    0.180E+00
RMM:   3    -0.413931198602E+03   -0.18382E+00   -0.33324E-01  5319   0.587E-01    0.233E+00
RMM:   4    -0.413738683980E+03    0.19251E+00   -0.25556E-01  5103   0.574E-01    0.722E-01
RMM:   5    -0.413716529695E+03    0.22154E-01   -0.89773E-02  4887   0.387E-01    0.186E-01
RMM:   6    -0.413716059991E+03    0.46970E-03   -0.19296E-02  5700   0.160E-01    0.149E-01
RMM:   7    -0.413715016339E+03    0.10437E-02   -0.27967E-03  4818   0.683E-02    0.654E-02
RMM:   8    -0.413714946742E+03    0.69598E-04   -0.11545E-03  5650   0.415E-02    0.335E-02
RMM:   9    -0.413714968400E+03   -0.21658E-04   -0.31198E-04  5938   0.200E-02    0.292E-02
RMM:  10    -0.413714948941E+03    0.19459E-04   -0.78163E-05  5153   0.112E-02    0.114E-02
RMM:  11    -0.413714954955E+03   -0.60141E-05   -0.64574E-05  5728   0.839E-03    0.795E-03
RMM:  12    -0.413714957147E+03   -0.21922E-05   -0.65707E-06  3253   0.382E-03    0.321E-03
RMM:  13    -0.413714959080E+03   -0.19332E-05   -0.24250E-06  2674   0.237E-03    0.128E-03
RMM:  14    -0.413714961374E+03   -0.22933E-05   -0.10230E-06  2503   0.170E-03    0.600E-04
RMM:  15    -0.413714962528E+03   -0.11544E-05   -0.55924E-07  2267   0.123E-03    0.331E-04
RMM:  16    -0.413714963960E+03   -0.14320E-05   -0.46291E-07  2181   0.107E-03    0.251E-04
RMM:  17    -0.413714964940E+03   -0.98032E-06   -0.30965E-07  1855   0.879E-04
  147 T=   165. E= -.41290269E+03 F= -.41371496E+03 E0= -.41369345E+03  EK= 0.81228E+00 SP= 0.00E+00 SK= 0.00E+00
       N       E                     dE             d eps       ncg     rms          rms(c)
RMM:   1    -0.414069839990E+03   -0.35488E+00   -0.23530E+01  4287   0.841E+00    0.180E+00
RMM:   2    -0.413925376709E+03    0.14446E+00   -0.83674E-01  5373   0.100E+00    0.159E+00
RMM:   3    -0.413989516416E+03   -0.64140E-01   -0.21389E-01  5478   0.501E-01    0.176E+00
RMM:   4    -0.413906567788E+03    0.82949E-01   -0.13385E-01  5108   0.433E-01    0.710E-01
RMM:   5    -0.413898622805E+03    0.79450E-02   -0.69614E-02  4810   0.347E-01    0.251E-01
RMM:   6    -0.413896231443E+03    0.23914E-02   -0.19745E-02  5187   0.173E-01    0.155E-01
RMM:   7    -0.413894859936E+03    0.13715E-02   -0.28254E-03  4611   0.763E-02    0.624E-02
RMM:   8    -0.413894846201E+03    0.13734E-04   -0.10392E-03  5654   0.384E-02    0.369E-02
RMM:   9    -0.413894853897E+03   -0.76960E-05   -0.27711E-04  5241   0.207E-02    0.229E-02
RMM:  10    -0.413894849940E+03    0.39575E-05   -0.67293E-05  5482   0.103E-02    0.114E-02
RMM:  11    -0.413894855827E+03   -0.58868E-05   -0.38275E-05  5355   0.701E-03    0.736E-03
RMM:  12    -0.413894860951E+03   -0.51241E-05   -0.59631E-06  3122   0.362E-03    0.342E-03
RMM:  13    -0.413894863577E+03   -0.26260E-05   -0.25370E-06  2715   0.241E-03    0.141E-03
RMM:  14    -0.413894866413E+03   -0.28360E-05   -0.10611E-06  2507   0.170E-03    0.668E-04
RMM:  15    -0.413894868031E+03   -0.16181E-05   -0.55109E-07  2211   0.119E-03    0.366E-04
RMM:  16    -0.413894869765E+03   -0.17346E-05   -0.46685E-07  2084   0.102E-03    0.229E-04
RMM:  17    -0.413894870815E+03   -0.10501E-05   -0.31221E-07  1671   0.841E-04    0.156E-04
RMM:  18    -0.413894871540E+03   -0.72479E-06   -0.26504E-07  1609   0.785E-04
  148 T=   205. E= -.41288669E+03 F= -.41389487E+03 E0= -.41387398E+03  EK= 0.10082E+01 SP= 0.00E+00 SK= 0.00E+00
       N       E                     dE             d eps       ncg     rms          rms(c)
RMM:   1    -0.414090729988E+03   -0.19586E+00   -0.24396E+01  4294   0.864E+00    0.109E+00
RMM:   2    -0.413911039347E+03    0.17969E+00   -0.71722E-01  5401   0.927E-01    0.102E+00
RMM:   3    -0.413926441411E+03   -0.15402E-01   -0.11407E-01  5703   0.374E-01    0.107E+00
RMM:   4    -0.413898944548E+03    0.27497E-01   -0.39075E-02  5032   0.243E-01    0.561E-01
RMM:   5    -0.413899494661E+03   -0.55011E-03   -0.39976E-02  4761   0.258E-01    0.284E-01
RMM:   6    -0.413896919452E+03    0.25752E-02   -0.17478E-02  4943   0.164E-01    0.135E-01
RMM:   7    -0.413895991517E+03    0.92793E-03   -0.25520E-03  4948   0.725E-02    0.688E-02
RMM:   8    -0.413895940920E+03    0.50597E-04   -0.69840E-04  5598   0.325E-02    0.429E-02
RMM:   9    -0.413895929944E+03    0.10976E-04   -0.31718E-04  4527   0.233E-02    0.166E-02
RMM:  10    -0.413895939983E+03   -0.10039E-04   -0.78645E-05  5734   0.105E-02    0.120E-02
RMM:  11    -0.413895944450E+03   -0.44669E-05   -0.21307E-05  4630   0.603E-03    0.626E-03
RMM:  12    -0.413895950944E+03   -0.64936E-05   -0.61329E-06  3180   0.372E-03    0.351E-03
RMM:  13    -0.413895953716E+03   -0.27728E-05   -0.20240E-06  2655   0.226E-03    0.141E-03
RMM:  14    -0.413895956387E+03   -0.26703E-05   -0.11761E-06  2536   0.168E-03    0.775E-04
RMM:  15    -0.413895957819E+03   -0.14320E-05   -0.60363E-07  2241   0.117E-03    0.486E-04
RMM:  16    -0.413895959026E+03   -0.12078E-05   -0.44526E-07  1900   0.965E-04    0.260E-04
RMM:  17    -0.413895959676E+03   -0.64923E-06   -0.35226E-07  1765   0.863E-04
  149 T=   208. E= -.41287547E+03 F= -.41389596E+03 E0= -.41387596E+03  EK= 0.10205E+01 SP= 0.00E+00 SK= 0.00E+00
       N       E                     dE             d eps       ncg     rms          rms(c)
RMM:   1    -0.414036479413E+03   -0.14052E+00   -0.23165E+01  4298   0.851E+00    0.976E-01
RMM:   2    -0.413863145442E+03    0.17333E+00   -0.56527E-01  5397   0.855E-01    0.864E-01
RMM:   3    -0.413884620391E+03   -0.21475E-01   -0.95853E-02  5731   0.339E-01    0.979E-01
RMM:   4    -0.413857568602E+03    0.27052E-01   -0.31523E-02  4977   0.216E-01    0.473E-01
RMM:   5    -0.413859282433E+03   -0.17138E-02   -0.37908E-02  4943   0.240E-01    0.287E-01
RMM:   6    -0.413856201462E+03    0.30810E-02   -0.15270E-02  4978   0.154E-01    0.119E-01
RMM:   7    -0.413855739151E+03    0.46231E-03   -0.23215E-03  5414   0.664E-02    0.743E-02
RMM:   8    -0.413855644120E+03    0.95031E-04   -0.55460E-04  5139   0.296E-02    0.428E-02
RMM:   9    -0.413855650654E+03   -0.65340E-05   -0.37261E-04  4569   0.244E-02    0.187E-02
RMM:  10    -0.413855659601E+03   -0.89475E-05   -0.69144E-05  5547   0.985E-03    0.115E-02
RMM:  11    -0.413855666324E+03   -0.67230E-05   -0.21104E-05  4521   0.616E-03    0.513E-03
RMM:  12    -0.413855672476E+03   -0.61519E-05   -0.54760E-06  3107   0.339E-03    0.322E-03
RMM:  13    -0.413855676172E+03   -0.36955E-05   -0.18193E-06  2637   0.213E-03    0.136E-03
RMM:  14    -0.413855679159E+03   -0.29876E-05   -0.12647E-06  2554   0.163E-03    0.747E-04
RMM:  15    -0.413855680895E+03   -0.17356E-05   -0.74998E-07  2176   0.117E-03    0.493E-04
RMM:  16    -0.413855681884E+03   -0.98929E-06   -0.57861E-07  2040   0.102E-03
  150 T=   200. E= -.41287432E+03 F= -.41385568E+03 E0= -.41383668E+03  EK= 0.98136E+00 SP= 0.00E+00 SK= 0.00E+00
