       N       E                     dE             d eps       ncg     rms          rms(c)
RMM:   1     0.220085914577E+04    0.22009E+04   -0.52444E+04  2132   0.654E+02
RMM:   2     0.705638770926E+03   -0.14952E+04   -0.16259E+04  2132   0.177E+02
RMM:   3     0.137722617948E+03   -0.56792E+03   -0.65701E+03  2132   0.117E+02
RMM:   4    -0.159269454028E+03   -0.29699E+03   -0.27849E+03  2132   0.936E+01
RMM:   5    -0.287534824153E+03   -0.12827E+03   -0.11448E+03  2132   0.595E+01
RMM:   6    -0.349856471784E+03   -0.62322E+02   -0.55153E+02  2132   0.423E+01
RMM:   7    -0.382782041017E+03   -0.32926E+02   -0.30450E+02  2132   0.293E+01
RMM:   8    -0.404293814597E+03   -0.21512E+02   -0.18422E+02  2132   0.233E+01
RMM:   9    -0.435978658431E+03   -0.31685E+02   -0.30604E+02  6094   0.173E+01
RMM:  10    -0.441295960046E+03   -0.53173E+01   -0.63211E+01  6392   0.539E+00
RMM:  11    -0.442496579149E+03   -0.12006E+01   -0.11087E+01  6222   0.173E+00
RMM:  12    -0.442871460298E+03   -0.37488E+00   -0.26023E+00  6369   0.600E-01    0.134E+02
RMM:  13    -0.425577883792E+03    0.17294E+02   -0.80684E+01  4674   0.119E+01    0.712E+01
RMM:  14    -0.499651322394E+03   -0.74073E+02   -0.53896E+02  5418   0.232E+01    0.307E+01
RMM:  15    -0.417859250944E+03    0.81792E+02   -0.20428E+02  5115   0.164E+01    0.845E+00
RMM:  16    -0.414000856622E+03    0.38584E+01   -0.40360E+01  6088   0.620E+00    0.430E+00
RMM:  17    -0.413206301686E+03    0.79455E+00   -0.27683E+00  5426   0.195E+00    0.243E+00
RMM:  18    -0.413179434021E+03    0.26868E-01   -0.73583E-01  6007   0.873E-01    0.172E+00
RMM:  19    -0.413177638547E+03    0.17955E-02   -0.24152E-01  5646   0.543E-01    0.961E-01
RMM:  20    -0.413197514401E+03   -0.19876E-01   -0.37318E-01  5582   0.623E-01    0.719E-01
RMM:  21    -0.413170532177E+03    0.26982E-01   -0.38646E-02  4972   0.263E-01    0.347E-01
RMM:  22    -0.413165268404E+03    0.52638E-02   -0.32478E-02  5768   0.181E-01    0.142E-01
RMM:  23    -0.413164596520E+03    0.67188E-03   -0.58498E-03  5967   0.700E-02    0.861E-02
RMM:  24    -0.413163538078E+03    0.10584E-02   -0.17779E-03  5339   0.427E-02    0.567E-02
RMM:  25    -0.413162795804E+03    0.74227E-03   -0.85948E-04  4904   0.306E-02    0.398E-02
RMM:  26    -0.413162893685E+03   -0.97881E-04   -0.11239E-03  5803   0.343E-02    0.338E-02
RMM:  27    -0.413163304569E+03   -0.41088E-03   -0.19888E-04  4612   0.202E-02    0.195E-02
RMM:  28    -0.413163717738E+03   -0.41317E-03   -0.14156E-04  5064   0.167E-02    0.957E-03
RMM:  29    -0.413164113239E+03   -0.39550E-03   -0.10928E-04  4704   0.156E-02    0.477E-03
RMM:  30    -0.413164384764E+03   -0.27153E-03   -0.85926E-05  4353   0.116E-02    0.464E-03
RMM:  31    -0.413164526685E+03   -0.14192E-03   -0.57974E-05  3328   0.728E-03    0.385E-03
RMM:  32    -0.413164559836E+03   -0.33151E-04   -0.22129E-05  2988   0.332E-03    0.218E-03
RMM:  33    -0.413164574668E+03   -0.14833E-04   -0.91054E-06  2812   0.229E-03    0.887E-04
RMM:  34    -0.413164578241E+03   -0.35732E-05   -0.49648E-06  2653   0.169E-03    0.458E-04
RMM:  35    -0.413164579281E+03   -0.10394E-05   -0.22295E-06  2473   0.140E-03    0.703E-04
RMM:  36    -0.413164579204E+03    0.77023E-07   -0.37689E-06  1995   0.102E-03
    1 T=    61. E= -.41286679E+03 F= -.41316458E+03 E0= -.41314208E+03  EK= 0.29779E+00 SP= 0.00E+00 SK= 0.00E+00
       N       E                     dE             d eps       ncg     rms          rms(c)
RMM:   1    -0.413158318051E+03    0.62612E-02   -0.10255E+01  3995   0.666E-01    0.885E-01
RMM:   2    -0.413167032521E+03   -0.87145E-02   -0.12576E-01  3921   0.949E-02    0.645E-01
RMM:   3    -0.413164485706E+03    0.25468E-02   -0.95873E-03  4707   0.409E-02    0.118E-01
RMM:   4    -0.413182895996E+03   -0.18410E-01   -0.19170E-02  5207   0.115E-01    0.568E-01
RMM:   5    -0.413164188221E+03    0.18708E-01   -0.92572E-03  4851   0.951E-02    0.390E-02
RMM:   6    -0.413164313954E+03   -0.12573E-03   -0.15825E-03  5805   0.383E-02    0.263E-02
RMM:   7    -0.413164319974E+03   -0.60191E-05   -0.27995E-04  5695   0.152E-02    0.159E-02
RMM:   8    -0.413164321736E+03   -0.17628E-05   -0.37446E-05  4774   0.655E-03    0.688E-03
RMM:   9    -0.413164325248E+03   -0.35119E-05   -0.79688E-06  3260   0.310E-03    0.543E-03
RMM:  10    -0.413164330033E+03   -0.47844E-05   -0.14682E-06  2551   0.187E-03    0.345E-03
RMM:  11    -0.413164336141E+03   -0.61083E-05   -0.12856E-06  2529   0.167E-03    0.161E-03
RMM:  12    -0.413164342639E+03   -0.64983E-05   -0.11839E-06  2496   0.152E-03    0.702E-04
RMM:  13    -0.413164343394E+03   -0.75427E-06   -0.42114E-07  2083   0.985E-04
    2 T=    61. E= -.41286660E+03 F= -.41316434E+03 E0= -.41314184E+03  EK= 0.29774E+00 SP= 0.00E+00 SK= 0.00E+00
       N       E                     dE             d eps       ncg     rms          rms(c)
RMM:   1    -0.413159378842E+03    0.49638E-02   -0.10275E+01  4195   0.669E-01    0.907E-01
RMM:   2    -0.413166974468E+03   -0.75956E-02   -0.12367E-01  3940   0.935E-02    0.639E-01
RMM:   3    -0.413165051223E+03    0.19232E-02   -0.96037E-03  4799   0.400E-02    0.134E-01
RMM:   4    -0.413187583151E+03   -0.22532E-01   -0.22954E-02  5184   0.127E-01    0.628E-01
RMM:   5    -0.413164736104E+03    0.22847E-01   -0.11176E-02  4839   0.105E-01    0.417E-02
RMM:   6    -0.413164881337E+03   -0.14523E-03   -0.18728E-03  5805   0.422E-02    0.275E-02
RMM:   7    -0.413164880652E+03    0.68451E-06   -0.30732E-04  5723   0.163E-02    0.171E-02
RMM:   8    -0.413164875450E+03    0.52025E-05   -0.48945E-05  4966   0.746E-03    0.796E-03
RMM:   9    -0.413164874337E+03    0.11126E-05   -0.99142E-06  3586   0.357E-03    0.615E-03
RMM:  10    -0.413164874851E+03   -0.51432E-06   -0.14790E-06  2550   0.199E-03
    3 T=    61. E= -.41286689E+03 F= -.41316487E+03 E0= -.41314238E+03  EK= 0.29798E+00 SP= 0.00E+00 SK= 0.00E+00
       N       E                     dE             d eps       ncg     rms          rms(c)
RMM:   1    -0.413158794094E+03    0.60802E-02   -0.10192E+01  4221   0.671E-01    0.891E-01
RMM:   2    -0.413166736764E+03   -0.79427E-02   -0.12294E-01  4093   0.932E-02    0.633E-01
RMM:   3    -0.413167288420E+03   -0.55166E-03   -0.11281E-02  5129   0.625E-02    0.248E-01
RMM:   4    -0.413199752690E+03   -0.32464E-01   -0.44199E-02  5143   0.177E-01    0.774E-01
RMM:   5    -0.413164510760E+03    0.35242E-01   -0.15278E-02  4765   0.129E-01    0.578E-02
RMM:   6    -0.413164613261E+03   -0.10250E-03   -0.26311E-03  5615   0.510E-02    0.274E-02
RMM:   7    -0.413164635899E+03   -0.22638E-04   -0.39645E-04  6043   0.168E-02    0.174E-02
RMM:   8    -0.413164635974E+03   -0.74724E-07   -0.67111E-05  5276   0.865E-03    0.789E-03
RMM:   9    -0.413164634073E+03    0.19013E-05   -0.10739E-05  3545   0.377E-03    0.386E-03
RMM:  10    -0.413164635442E+03   -0.13688E-05   -0.24775E-06  2620   0.224E-03    0.268E-03
RMM:  11    -0.413164636997E+03   -0.15556E-05   -0.13472E-06  2532   0.181E-03    0.145E-03
RMM:  12    -0.413164637973E+03   -0.97596E-06   -0.76616E-07  2483   0.139E-03
    4 T=    61. E= -.41286661E+03 F= -.41316464E+03 E0= -.41314215E+03  EK= 0.29803E+00 SP= 0.00E+00 SK= 0.00E+00
       N       E                     dE             d eps       ncg     rms          rms(c)
RMM:   1    -0.413158739159E+03    0.58978E-02   -0.10244E+01  4234   0.679E-01    0.883E-01
RMM:   2    -0.413167310780E+03   -0.85716E-02   -0.12585E-01  3916   0.919E-02    0.644E-01
RMM:   3    -0.413165115828E+03    0.21950E-02   -0.96467E-03  4943   0.408E-02    0.131E-01
RMM:   4    -0.413194676843E+03   -0.29561E-01   -0.30541E-02  5162   0.146E-01    0.717E-01
RMM:   5    -0.413164599641E+03    0.30077E-01   -0.14468E-02  4814   0.120E-01    0.441E-02
RMM:   6    -0.413164787835E+03   -0.18819E-03   -0.24746E-03  5800   0.478E-02    0.275E-02
RMM:   7    -0.413164799176E+03   -0.11341E-04   -0.35495E-04  5814   0.167E-02    0.178E-02
RMM:   8    -0.413164800474E+03   -0.12977E-05   -0.58127E-05  5020   0.783E-03    0.855E-03
RMM:   9    -0.413164802011E+03   -0.15376E-05   -0.11881E-05  3822   0.391E-03    0.628E-03
RMM:  10    -0.413164806113E+03   -0.41018E-05   -0.17483E-06  2575   0.203E-03    0.410E-03
RMM:  11    -0.413164811339E+03   -0.52257E-05   -0.15601E-06  2559   0.191E-03    0.194E-03
RMM:  12    -0.413164816730E+03   -0.53908E-05   -0.14483E-06  2543   0.175E-03    0.808E-04
RMM:  13    -0.413164817341E+03   -0.61161E-06   -0.40875E-07  2214   0.109E-03
    5 T=    61. E= -.41286660E+03 F= -.41316482E+03 E0= -.41314234E+03  EK= 0.29822E+00 SP= 0.00E+00 SK= 0.00E+00
       N       E                     dE             d eps       ncg     rms          rms(c)
RMM:   1    -0.413159629614E+03    0.51871E-02   -0.10277E+01  4250   0.682E-01    0.903E-01
RMM:   2    -0.413167366428E+03   -0.77368E-02   -0.12400E-01  3955   0.927E-02    0.641E-01
RMM:   3    -0.413165444365E+03    0.19221E-02   -0.95744E-03  4747   0.392E-02    0.129E-01
RMM:   4    -0.413185625853E+03   -0.20181E-01   -0.20488E-02  5160   0.120E-01    0.595E-01
RMM:   5    -0.413165139079E+03    0.20487E-01   -0.10080E-02  4831   0.987E-02    0.401E-02
RMM:   6    -0.413165265449E+03   -0.12637E-03   -0.16668E-03  5811   0.394E-02    0.258E-02
RMM:   7    -0.413165268101E+03   -0.26513E-05   -0.27043E-04  5695   0.155E-02    0.162E-02
RMM:   8    -0.413165262950E+03    0.51506E-05   -0.47699E-05  4898   0.736E-03    0.778E-03
RMM:   9    -0.413165261876E+03    0.10744E-05   -0.94480E-06  3581   0.354E-03    0.610E-03
RMM:  10    -0.413165262386E+03   -0.51042E-06   -0.13754E-06  2539   0.197E-03
    6 T=    61. E= -.41286679E+03 F= -.41316526E+03 E0= -.41314280E+03  EK= 0.29848E+00 SP= 0.00E+00 SK= 0.00E+00
       N       E                     dE             d eps       ncg     rms          rms(c)
RMM:   1    -0.413159389813E+03    0.58721E-02   -0.10220E+01  4256   0.684E-01    0.899E-01
RMM:   2    -0.413167100358E+03   -0.77105E-02   -0.12316E-01  4142   0.916E-02    0.634E-01
RMM:   3    -0.413167338387E+03   -0.23803E-03   -0.11120E-02  5107   0.592E-02    0.236E-01
RMM:   4    -0.413201789246E+03   -0.34451E-01   -0.44940E-02  5137   0.178E-01    0.792E-01
RMM:   5    -0.413164927043E+03    0.36862E-01   -0.16338E-02  4770   0.131E-01    0.571E-02
RMM:   6    -0.413165046459E+03   -0.11942E-03   -0.27446E-03  5634   0.519E-02    0.281E-02
RMM:   7    -0.413165064552E+03   -0.18093E-04   -0.40381E-04  6037   0.169E-02    0.177E-02
RMM:   8    -0.413165062727E+03    0.18258E-05   -0.66801E-05  5253   0.856E-03    0.800E-03
RMM:   9    -0.413165059189E+03    0.35377E-05   -0.10955E-05  3560   0.376E-03    0.401E-03
RMM:  10    -0.413165059171E+03    0.17953E-07   -0.25888E-06  2627   0.225E-03
    7 T=    61. E= -.41286656E+03 F= -.41316506E+03 E0= -.41314261E+03  EK= 0.29850E+00 SP= 0.00E+00 SK= 0.00E+00
       N       E                     dE             d eps       ncg     rms          rms(c)
RMM:   1    -0.413159586202E+03    0.54730E-02   -0.10223E+01  4265   0.691E-01    0.882E-01
RMM:   2    -0.413168151084E+03   -0.85649E-02   -0.12519E-01  4092   0.925E-02    0.642E-01
RMM:   3    -0.413166815090E+03    0.13360E-02   -0.10276E-02  5071   0.518E-02    0.184E-01
RMM:   4    -0.413209277080E+03   -0.42462E-01   -0.48332E-02  5147   0.183E-01    0.860E-01
RMM:   5    -0.413165353101E+03    0.43924E-01   -0.20361E-02  4795   0.144E-01    0.533E-02
RMM:   6    -0.413165563273E+03   -0.21017E-03   -0.33781E-03  5728   0.571E-02    0.283E-02
RMM:   7    -0.413165583260E+03   -0.19987E-04   -0.46769E-04  5982   0.183E-02    0.193E-02
RMM:   8    -0.413165585550E+03   -0.22903E-05   -0.74868E-05  5240   0.869E-03    0.929E-03
RMM:   9    -0.413165585229E+03    0.32131E-06   -0.14396E-05  3941   0.417E-03    0.539E-03
RMM:  10    -0.413165588549E+03   -0.33195E-05   -0.27567E-06  2648   0.223E-03    0.364E-03
RMM:  11    -0.413165591693E+03   -0.31444E-05   -0.12090E-06  2522   0.171E-03    0.187E-03
RMM:  12    -0.413165595270E+03   -0.35769E-05   -0.12485E-06  2533   0.164E-03    0.564E-04
RMM:  13    -0.413165596482E+03   -0.12126E-05   -0.53453E-07  2256   0.115E-03    0.474E-04
RMM:  14    -0.413165596440E+03    0.41950E-07   -0.22545E-07  1692   0.811E-04
    8 T=    61. E= -.41286682E+03 F= -.41316560E+03 E0= -.41314317E+03  EK= 0.29878E+00 SP= 0.00E+00 SK= 0.00E+00
       N       E                     dE             d eps       ncg     rms          rms(c)
RMM:   1    -0.413160770001E+03    0.48265E-02   -0.10280E+01  4279   0.709E-01    0.898E-01
RMM:   2    -0.413168247162E+03   -0.74772E-02   -0.12470E-01  4118   0.949E-02    0.644E-01
RMM:   3    -0.413166107367E+03    0.21398E-02   -0.97339E-03  4855   0.416E-02    0.133E-01
RMM:   4    -0.413192995951E+03   -0.26889E-01   -0.27687E-02  5147   0.138E-01    0.685E-01
RMM:   5    -0.413165627402E+03    0.27369E-01   -0.13311E-02  4810   0.114E-01    0.435E-02
RMM:   6    -0.413165797941E+03   -0.17054E-03   -0.22514E-03  5779   0.455E-02    0.281E-02
RMM:   7    -0.413165800991E+03   -0.30500E-05   -0.34336E-04  5744   0.166E-02    0.178E-02
RMM:   8    -0.413165797054E+03    0.39374E-05   -0.52429E-05  4983   0.761E-03    0.833E-03
RMM:   9    -0.413165795609E+03    0.14451E-05   -0.10704E-05  3681   0.372E-03    0.625E-03
RMM:  10    -0.413165796343E+03   -0.73441E-06   -0.15267E-06  2553   0.198E-03
    9 T=    61. E= -.41286680E+03 F= -.41316580E+03 E0= -.41314339E+03  EK= 0.29899E+00 SP= 0.00E+00 SK= 0.00E+00
       N       E                     dE             d eps       ncg     rms          rms(c)
RMM:   1    -0.413160396142E+03    0.53995E-02   -0.10247E+01  4297   0.698E-01    0.905E-01
RMM:   2    -0.413167904305E+03   -0.75082E-02   -0.12318E-01  4243   0.934E-02    0.636E-01
RMM:   3    -0.413168549493E+03   -0.64519E-03   -0.11591E-02  5086   0.639E-02    0.252E-01
RMM:   4    -0.413200155998E+03   -0.31607E-01   -0.43614E-02  5120   0.175E-01    0.766E-01
RMM:   5    -0.413165751913E+03    0.34404E-01   -0.14988E-02  4747   0.127E-01    0.566E-02
RMM:   6    -0.413165863452E+03   -0.11154E-03   -0.25659E-03  5609   0.502E-02    0.282E-02
RMM:   7    -0.413165874488E+03   -0.11036E-04   -0.38278E-04  6010   0.166E-02    0.177E-02
RMM:   8    -0.413165870414E+03    0.40738E-05   -0.65233E-05  5244   0.854E-03    0.792E-03
RMM:   9    -0.413165865378E+03    0.50367E-05   -0.10366E-05  3500   0.373E-03    0.392E-03
RMM:  10    -0.413165864183E+03    0.11943E-05   -0.24294E-06  2604   0.223E-03    0.271E-03
RMM:  11    -0.413165862440E+03    0.17435E-05   -0.12286E-06  2518   0.175E-03    0.142E-03
RMM:  12    -0.413165860533E+03    0.19067E-05   -0.76154E-07  2469   0.138E-03    0.464E-04
RMM:  13    -0.413165859606E+03    0.92688E-06   -0.37081E-07  2047   0.986E-04
   10 T=    61. E= -.41286662E+03 F= -.41316586E+03 E0= -.41314347E+03  EK= 0.29924E+00 SP= 0.00E+00 SK= 0.00E+00
       N       E                     dE             d eps       ncg     rms          rms(c)
RMM:   1    -0.413160666719E+03    0.51938E-02   -0.10204E+01  4291   0.703E-01    0.882E-01
RMM:   2    -0.413169031408E+03   -0.83647E-02   -0.12458E-01  4186   0.940E-02    0.639E-01
RMM:   3    -0.413166999008E+03    0.20324E-02   -0.95698E-03  4869   0.440E-02    0.136E-01
RMM:   4    -0.413197475165E+03   -0.30476E-01   -0.31666E-02  5148   0.148E-01    0.728E-01
RMM:   5    -0.413166434558E+03    0.31041E-01   -0.15155E-02  4806   0.121E-01    0.445E-02
RMM:   6    -0.413166618485E+03   -0.18393E-03   -0.24533E-03  5774   0.480E-02    0.282E-02
RMM:   7    -0.413166624112E+03   -0.56268E-05   -0.36311E-04  5774   0.170E-02    0.181E-02
RMM:   8    -0.413166621297E+03    0.28146E-05   -0.58907E-05  5022   0.794E-03    0.866E-03
RMM:   9    -0.413166619856E+03    0.14415E-05   -0.12190E-05  3824   0.394E-03    0.630E-03
RMM:  10    -0.413166621068E+03   -0.12118E-05   -0.17041E-06  2566   0.202E-03    0.409E-03
RMM:  11    -0.413166622681E+03   -0.16133E-05   -0.16038E-06  2552   0.195E-03    0.182E-03
RMM:  12    -0.413166623968E+03   -0.12876E-05   -0.13131E-06  2530   0.170E-03    0.796E-04
RMM:  13    -0.413166624067E+03   -0.99040E-07   -0.37655E-07  2194   0.106E-03
   11 T=    61. E= -.41286686E+03 F= -.41316662E+03 E0= -.41314426E+03  EK= 0.29976E+00 SP= 0.00E+00 SK= 0.00E+00
       N       E                     dE             d eps       ncg     rms          rms(c)
RMM:   1    -0.413160750135E+03    0.58738E-02   -0.10278E+01  4294   0.709E-01    0.894E-01
RMM:   2    -0.413169039899E+03   -0.82898E-02   -0.12556E-01  4205   0.948E-02    0.646E-01
RMM:   3    -0.413166788397E+03    0.22515E-02   -0.97192E-03  4822   0.407E-02    0.127E-01
RMM:   4    -0.413191466904E+03   -0.24679E-01   -0.25371E-02  5142   0.132E-01    0.656E-01
RMM:   5    -0.413166399464E+03    0.25067E-01   -0.12254E-02  4807   0.109E-01    0.418E-02
RMM:   6    -0.413166558181E+03   -0.15872E-03   -0.20647E-03  5803   0.431E-02    0.265E-02
RMM:   7    -0.413166564388E+03   -0.62066E-05   -0.29996E-04  5729   0.160E-02    0.169E-02
RMM:   8    -0.413166560414E+03    0.39737E-05   -0.55197E-05  4975   0.775E-03    0.843E-03
RMM:   9    -0.413166558829E+03    0.15857E-05   -0.10966E-05  3758   0.383E-03    0.639E-03
RMM:  10    -0.413166559815E+03   -0.98659E-06   -0.14738E-06  2544   0.199E-03
   12 T=    61. E= -.41286653E+03 F= -.41316656E+03 E0= -.41314423E+03  EK= 0.30003E+00 SP= 0.00E+00 SK= 0.00E+00
       N       E                     dE             d eps       ncg     rms          rms(c)
RMM:   1    -0.413161759238E+03    0.47996E-02   -0.10277E+01  4308   0.710E-01    0.911E-01
RMM:   2    -0.413168960293E+03   -0.72011E-02   -0.12356E-01  4253   0.922E-02    0.639E-01
RMM:   3    -0.413169804312E+03   -0.84402E-03   -0.11766E-02  5110   0.621E-02    0.252E-01
RMM:   4    -0.413201598509E+03   -0.31794E-01   -0.44139E-02  5116   0.176E-01    0.768E-01
RMM:   5    -0.413166960623E+03    0.34638E-01   -0.15042E-02  4744   0.127E-01    0.567E-02
RMM:   6    -0.413167073574E+03   -0.11295E-03   -0.26014E-03  5613   0.502E-02    0.286E-02
RMM:   7    -0.413167086699E+03   -0.13125E-04   -0.38955E-04  5999   0.169E-02    0.180E-02
RMM:   8    -0.413167081810E+03    0.48892E-05   -0.65918E-05  5235   0.858E-03    0.803E-03
RMM:   9    -0.413167075748E+03    0.60615E-05   -0.10678E-05  3549   0.377E-03    0.401E-03
RMM:  10    -0.413167073662E+03    0.20866E-05   -0.24318E-06  2611   0.223E-03    0.278E-03
RMM:  11    -0.413167070788E+03    0.28742E-05   -0.11921E-06  2515   0.174E-03    0.144E-03
RMM:  12    -0.413167067731E+03    0.30571E-05   -0.75891E-07  2465   0.138E-03    0.471E-04
RMM:  13    -0.413167066298E+03    0.14329E-05   -0.36784E-07  2062   0.994E-04    0.303E-04
RMM:  14    -0.413167065152E+03    0.11458E-05   -0.21537E-07  1574   0.793E-04    0.209E-04
RMM:  15    -0.413167063234E+03    0.19175E-05   -0.19414E-07  1433   0.748E-04    0.102E-04
RMM:  16    -0.413167061272E+03    0.19623E-05   -0.16762E-07  1451   0.718E-04    0.119E-04
RMM:  17    -0.413167059470E+03    0.18022E-05   -0.13189E-07  1375   0.662E-04    0.691E-05
RMM:  18    -0.413167058059E+03    0.14105E-05   -0.90075E-08  1096   0.592E-04    0.282E-05
RMM:  19    -0.413167057567E+03    0.49251E-06   -0.42880E-08   861   0.544E-04
   13 T=    61. E= -.41286658E+03 F= -.41316706E+03 E0= -.41314476E+03  EK= 0.30048E+00 SP= 0.00E+00 SK= 0.00E+00
       N       E                     dE             d eps       ncg     rms          rms(c)
RMM:   1    -0.413161865703E+03    0.51924E-02   -0.10200E+01  4293   0.714E-01    0.886E-01
RMM:   2    -0.413170073183E+03   -0.82075E-02   -0.12437E-01  4211   0.919E-02    0.638E-01
RMM:   3    -0.413168231945E+03    0.18412E-02   -0.96831E-03  4915   0.428E-02    0.143E-01
RMM:   4    -0.413201725360E+03   -0.33493E-01   -0.35186E-02  5138   0.156E-01    0.762E-01
RMM:   5    -0.413167583525E+03    0.34142E-01   -0.16550E-02  4791   0.127E-01    0.468E-02
RMM:   6    -0.413167784377E+03   -0.20085E-03   -0.27940E-03  5760   0.504E-02    0.293E-02
RMM:   7    -0.413167788930E+03   -0.45528E-05   -0.39387E-04  5748   0.176E-02    0.189E-02
RMM:   8    -0.413167784539E+03    0.43908E-05   -0.63015E-05  5091   0.820E-03    0.912E-03
RMM:   9    -0.413167781527E+03    0.30127E-05   -0.13246E-05  3947   0.408E-03    0.649E-03
RMM:  10    -0.413167781301E+03    0.22563E-06   -0.18580E-06  2563   0.206E-03
   14 T=    61. E= -.41286676E+03 F= -.41316778E+03 E0= -.41314551E+03  EK= 0.30102E+00 SP= 0.00E+00 SK= 0.00E+00
       N       E                     dE             d eps       ncg     rms          rms(c)
RMM:   1    -0.413162655451E+03    0.51261E-02   -0.10291E+01  4302   0.733E-01    0.890E-01
RMM:   2    -0.413170578055E+03   -0.79226E-02   -0.12791E-01  4293   0.976E-02    0.649E-01
RMM:   3    -0.413171842429E+03   -0.12644E-02   -0.12763E-02  5123   0.710E-02    0.290E-01
RMM:   4    -0.413200949404E+03   -0.29107E-01   -0.45917E-02  5099   0.181E-01    0.751E-01
RMM:   5    -0.413167715700E+03    0.33234E-01   -0.13772E-02  4714   0.123E-01    0.570E-02
RMM:   6    -0.413167803967E+03   -0.88267E-04   -0.24250E-03  5578   0.485E-02    0.266E-02
RMM:   7    -0.413167824186E+03   -0.20219E-04   -0.36477E-04  6009   0.166E-02    0.172E-02
RMM:   8    -0.413167825209E+03   -0.10226E-05   -0.67165E-05  5239   0.868E-03    0.786E-03
RMM:   9    -0.413167823090E+03    0.21194E-05   -0.10520E-05  3516   0.381E-03    0.365E-03
RMM:  10    -0.413167824317E+03   -0.12279E-05   -0.22505E-06  2584   0.216E-03    0.245E-03
RMM:  11    -0.413167825731E+03   -0.14138E-05   -0.14402E-06  2532   0.183E-03    0.143E-03
RMM:  12    -0.413167826226E+03   -0.49448E-06   -0.72624E-07  2468   0.138E-03
   15 T=    61. E= -.41286646E+03 F= -.41316783E+03 E0= -.41314559E+03  EK= 0.30137E+00 SP= 0.00E+00 SK= 0.00E+00
       N       E                     dE             d eps       ncg     rms          rms(c)
RMM:   1    -0.413163623151E+03    0.42026E-02   -0.10297E+01  4301   0.726E-01    0.912E-01
RMM:   2    -0.413171093085E+03   -0.74699E-02   -0.12417E-01  4235   0.964E-02    0.642E-01
RMM:   3    -0.413169431830E+03    0.16613E-02   -0.10122E-02  4934   0.454E-02    0.153E-01
RMM:   4    -0.413205166420E+03   -0.35735E-01   -0.37796E-02  5132   0.161E-01    0.787E-01
RMM:   5    -0.413168672796E+03    0.36494E-01   -0.17688E-02  4790   0.131E-01    0.486E-02
RMM:   6    -0.413168886664E+03   -0.21387E-03   -0.29781E-03  5777   0.523E-02    0.308E-02
RMM:   7    -0.413168886440E+03    0.22406E-06   -0.42109E-04  5780   0.184E-02    0.199E-02
RMM:   8    -0.413168877425E+03    0.90145E-05   -0.69406E-05  5127   0.858E-03    0.988E-03
RMM:   9    -0.413168870867E+03    0.65582E-05   -0.14129E-05  4024   0.423E-03    0.691E-03
RMM:  10    -0.413168867231E+03    0.36365E-05   -0.20690E-06  2590   0.215E-03    0.444E-03
RMM:  11    -0.413168863580E+03    0.36507E-05   -0.14482E-06  2534   0.188E-03    0.223E-03
RMM:  12    -0.413168858369E+03    0.52108E-05   -0.15781E-06  2552   0.189E-03    0.851E-04
RMM:  13    -0.413168857065E+03    0.13038E-05   -0.46859E-07  2303   0.121E-03    0.592E-04
RMM:  14    -0.413168856980E+03    0.85103E-07   -0.21465E-07  1788   0.821E-04
   16 T=    61. E= -.41286686E+03 F= -.41316886E+03 E0= -.41314666E+03  EK= 0.30200E+00 SP= 0.00E+00 SK= 0.00E+00
       N       E                     dE             d eps       ncg     rms          rms(c)
RMM:   1    -0.413163643515E+03    0.52136E-02   -0.10210E+01  4294   0.723E-01    0.892E-01
RMM:   2    -0.413171679199E+03   -0.80357E-02   -0.12420E-01  4243   0.951E-02    0.637E-01
RMM:   3    -0.413169607520E+03    0.20717E-02   -0.96379E-03  4844   0.429E-02    0.138E-01
RMM:   4    -0.413198008823E+03   -0.28401E-01   -0.29431E-02  5135   0.142E-01    0.703E-01
RMM:   5    -0.413169108640E+03    0.28900E-01   -0.14119E-02  4796   0.117E-01    0.448E-02
RMM:   6    -0.413169291110E+03   -0.18247E-03   -0.24270E-03  5788   0.467E-02    0.289E-02
RMM:   7    -0.413169292255E+03   -0.11452E-05   -0.35515E-04  5717   0.171E-02    0.184E-02
RMM:   8    -0.413169284474E+03    0.77814E-05   -0.58755E-05  5008   0.801E-03    0.891E-03
RMM:   9    -0.413169279953E+03    0.45206E-05   -0.12149E-05  3833   0.395E-03    0.660E-03
RMM:  10    -0.413169277800E+03    0.21535E-05   -0.16269E-06  2553   0.203E-03    0.427E-03
RMM:  11    -0.413169275141E+03    0.26593E-05   -0.14876E-06  2535   0.192E-03    0.198E-03
RMM:  12    -0.413169271987E+03    0.31536E-05   -0.13047E-06  2519   0.175E-03    0.798E-04
RMM:  13    -0.413169271473E+03    0.51364E-06   -0.38817E-07  2206   0.110E-03
   17 T=    62. E= -.41286677E+03 F= -.41316927E+03 E0= -.41314711E+03  EK= 0.30251E+00 SP= 0.00E+00 SK= 0.00E+00
       N       E                     dE             d eps       ncg     rms          rms(c)
RMM:   1    -0.413163965548E+03    0.53064E-02   -0.10283E+01  4298   0.734E-01    0.889E-01
RMM:   2    -0.413172416151E+03   -0.84506E-02   -0.12670E-01  4242   0.960E-02    0.649E-01
RMM:   3    -0.413170056455E+03    0.23597E-02   -0.10046E-02  4834   0.443E-02    0.129E-01
RMM:   4    -0.413198775713E+03   -0.28719E-01   -0.29815E-02  5136   0.143E-01    0.707E-01
RMM:   5    -0.413169533698E+03    0.29242E-01   -0.14286E-02  4798   0.117E-01    0.439E-02
RMM:   6    -0.413169717983E+03   -0.18429E-03   -0.24409E-03  5812   0.465E-02    0.276E-02
RMM:   7    -0.413169724537E+03   -0.65541E-05   -0.33429E-04  5750   0.167E-02    0.176E-02
RMM:   8    -0.413169720359E+03    0.41781E-05   -0.62542E-05  5002   0.811E-03    0.909E-03
RMM:   9    -0.413169717450E+03    0.29087E-05   -0.13163E-05  4005   0.411E-03    0.669E-03
RMM:  10    -0.413169717567E+03   -0.11650E-06   -0.16976E-06  2555   0.205E-03
   18 T=    62. E= -.41286657E+03 F= -.41316972E+03 E0= -.41314760E+03  EK= 0.30315E+00 SP= 0.00E+00 SK= 0.00E+00
       N       E                     dE             d eps       ncg     rms          rms(c)
RMM:   1    -0.413165635935E+03    0.40815E-02   -0.10314E+01  4301   0.734E-01    0.911E-01
RMM:   2    -0.413173166787E+03   -0.75309E-02   -0.12500E-01  4301   0.994E-02    0.645E-01
RMM:   3    -0.413174780965E+03   -0.16142E-02   -0.12849E-02  5110   0.701E-02    0.288E-01
RMM:   4    -0.413202077186E+03   -0.27296E-01   -0.43283E-02  5091   0.175E-01    0.729E-01
RMM:   5    -0.413170895159E+03    0.31182E-01   -0.13011E-02  4707   0.120E-01    0.563E-02
RMM:   6    -0.413170977541E+03   -0.82382E-04   -0.23121E-03  5588   0.471E-02    0.281E-02
RMM:   7    -0.413170986836E+03   -0.92950E-05   -0.35379E-04  6001   0.163E-02    0.177E-02
RMM:   8    -0.413170980872E+03    0.59641E-05   -0.64995E-05  5206   0.862E-03    0.788E-03
RMM:   9    -0.413170973720E+03    0.71516E-05   -0.10000E-05  3493   0.378E-03    0.374E-03
RMM:  10    -0.413170971263E+03    0.24572E-05   -0.21965E-06  2583   0.217E-03    0.252E-03
RMM:  11    -0.413170967136E+03    0.41276E-05   -0.12668E-06  2516   0.179E-03    0.142E-03
RMM:  12    -0.413170963570E+03    0.35657E-05   -0.65881E-07  2450   0.136E-03    0.471E-04
RMM:  13    -0.413170961687E+03    0.18833E-05   -0.32276E-07  1997   0.954E-04    0.290E-04
RMM:  14    -0.413170959962E+03    0.17250E-05   -0.19095E-07  1505   0.775E-04    0.200E-04
RMM:  15    -0.413170957016E+03    0.29456E-05   -0.17437E-07  1416   0.739E-04    0.999E-05
RMM:  16    -0.413170954701E+03    0.23154E-05   -0.13015E-07  1372   0.683E-04    0.995E-05
RMM:  17    -0.413170951786E+03    0.29147E-05   -0.12513E-07  1400   0.667E-04    0.517E-05
RMM:  18    -0.413170950249E+03    0.15374E-05   -0.68179E-08  1041   0.575E-04    0.329E-05
RMM:  19    -0.413170949628E+03    0.62036E-06   -0.33670E-08   813   0.534E-04
   19 T=    62. E= -.41286687E+03 F= -.41317095E+03 E0= -.41314887E+03  EK= 0.30408E+00 SP= 0.00E+00 SK= 0.00E+00
       N       E                     dE             d eps       ncg     rms          rms(c)
RMM:   1    -0.413165936061E+03    0.50142E-02   -0.10251E+01  4294   0.735E-01    0.901E-01
RMM:   2    -0.413173448407E+03   -0.75123E-02   -0.12444E-01  4248   0.954E-02    0.639E-01
RMM:   3    -0.413171953852E+03    0.14946E-02   -0.10058E-02  4946   0.453E-02    0.156E-01
RMM:   4    -0.413209086792E+03   -0.37133E-01   -0.39712E-02  5134   0.165E-01    0.802E-01
RMM:   5    -0.413171137863E+03    0.37949E-01   -0.18380E-02  4785   0.134E-01    0.497E-02
RMM:   6    -0.413171351693E+03   -0.21383E-03   -0.31136E-03  5762   0.533E-02    0.311E-02
RMM:   7    -0.413171353681E+03   -0.19881E-05   -0.43981E-04  5741   0.185E-02    0.201E-02
RMM:   8    -0.413171345146E+03    0.85350E-05   -0.71056E-05  5171   0.870E-03    0.988E-03
RMM:   9    -0.413171338294E+03    0.68520E-05   -0.15018E-05  4130   0.433E-03    0.680E-03
RMM:  10    -0.413171334613E+03    0.36815E-05   -0.21420E-06  2589   0.215E-03    0.442E-03
RMM:  11    -0.413171331279E+03    0.33336E-05   -0.12718E-06  2512   0.179E-03    0.233E-03
RMM:  12    -0.413171326243E+03    0.50358E-05   -0.14631E-06  2528   0.189E-03    0.829E-04
RMM:  13    -0.413171324726E+03    0.15175E-05   -0.48830E-07  2324   0.124E-03    0.624E-04
RMM:  14    -0.413171324773E+03   -0.46584E-07   -0.22315E-07  1849   0.834E-04
   20 T=    62. E= -.41286657E+03 F= -.41317132E+03 E0= -.41314929E+03  EK= 0.30475E+00 SP= 0.00E+00 SK= 0.00E+00
       N       E                     dE             d eps       ncg     rms          rms(c)
RMM:   1    -0.413166834954E+03    0.44898E-02   -0.10294E+01  4296   0.749E-01    0.889E-01
RMM:   2    -0.413175247263E+03   -0.84123E-02   -0.12756E-01  4257   0.958E-02    0.650E-01
RMM:   3    -0.413172787786E+03    0.24595E-02   -0.10078E-02  4867   0.426E-02    0.129E-01
RMM:   4    -0.413200603352E+03   -0.27816E-01   -0.28922E-02  5134   0.141E-01    0.696E-01
RMM:   5    -0.413172288873E+03    0.28314E-01   -0.13886E-02  4794   0.115E-01    0.438E-02
RMM:   6    -0.413172458501E+03   -0.16963E-03   -0.23518E-03  5819   0.456E-02    0.276E-02
RMM:   7    -0.413172462764E+03   -0.42627E-05   -0.32749E-04  5711   0.166E-02    0.173E-02
RMM:   8    -0.413172457622E+03    0.51416E-05   -0.62845E-05  4985   0.817E-03    0.909E-03
RMM:   9    -0.413172453682E+03    0.39405E-05   -0.13039E-05  3995   0.412E-03    0.666E-03
RMM:  10    -0.413172453023E+03    0.65889E-06   -0.16432E-06  2548   0.204E-03
   21 T=    62. E= -.41286673E+03 F= -.41317245E+03 E0= -.41315046E+03  EK= 0.30573E+00 SP= 0.00E+00 SK= 0.00E+00
       N       E                     dE             d eps       ncg     rms          rms(c)
RMM:   1    -0.413168462221E+03    0.39915E-02   -0.10346E+01  4295   0.757E-01    0.909E-01
RMM:   2    -0.413176031927E+03   -0.75697E-02   -0.12637E-01  4293   0.973E-02    0.650E-01
RMM:   3    -0.413176719377E+03   -0.68745E-03   -0.12460E-02  5091   0.668E-02    0.267E-01
RMM:   4    -0.413208858659E+03   -0.32139E-01   -0.46497E-02  5104   0.181E-01    0.775E-01
RMM:   5    -0.413173395065E+03    0.35464E-01   -0.15333E-02  4733   0.128E-01    0.563E-02
RMM:   6    -0.413173505560E+03   -0.11049E-03   -0.26326E-03  5634   0.504E-02    0.287E-02
RMM:   7    -0.413173512787E+03   -0.72275E-05   -0.38525E-04  5972   0.171E-02    0.183E-02
RMM:   8    -0.413173507090E+03    0.56971E-05   -0.68953E-05  5207   0.881E-03    0.823E-03
RMM:   9    -0.413173500050E+03    0.70404E-05   -0.11446E-05  3643   0.393E-03    0.403E-03
RMM:  10    -0.413173497383E+03    0.26672E-05   -0.24354E-06  2606   0.223E-03    0.279E-03
RMM:  11    -0.413173493680E+03    0.37022E-05   -0.11302E-06  2503   0.172E-03    0.144E-03
RMM:  12    -0.413173489721E+03    0.39596E-05   -0.69058E-07  2447   0.136E-03    0.429E-04
RMM:  13    -0.413173487677E+03    0.20439E-05   -0.33722E-07  2028   0.971E-04    0.271E-04
RMM:  14    -0.413173485952E+03    0.17252E-05   -0.19341E-07  1525   0.775E-04    0.163E-04
RMM:  15    -0.413173483022E+03    0.29300E-05   -0.16084E-07  1378   0.728E-04    0.102E-04
RMM:  16    -0.413173481000E+03    0.20215E-05   -0.11159E-07  1289   0.674E-04    0.106E-04
RMM:  17    -0.413173478664E+03    0.23359E-05   -0.98083E-08  1310   0.647E-04    0.612E-05
RMM:  18    -0.413173476714E+03    0.19503E-05   -0.65897E-08  1075   0.589E-04    0.254E-05
RMM:  19    -0.413173475957E+03    0.75732E-06   -0.33762E-08   839   0.542E-04
   22 T=    62. E= -.41286678E+03 F= -.41317348E+03 E0= -.41315153E+03  EK= 0.30670E+00 SP= 0.00E+00 SK= 0.00E+00
       N       E                     dE             d eps       ncg     rms          rms(c)
RMM:   1    -0.413168882397E+03    0.45943E-02   -0.10310E+01  4295   0.748E-01    0.911E-01
RMM:   2    -0.413176578806E+03   -0.76964E-02   -0.12537E-01  4263   0.993E-02    0.643E-01
RMM:   3    -0.413174665217E+03    0.19136E-02   -0.10287E-02  4881   0.464E-02    0.149E-01
RMM:   4    -0.413208546666E+03   -0.33881E-01   -0.35587E-02  5137   0.156E-01    0.766E-01
RMM:   5    -0.413173996592E+03    0.34550E-01   -0.16833E-02  4786   0.128E-01    0.483E-02
RMM:   6    -0.413174198251E+03   -0.20166E-03   -0.29367E-03  5797   0.510E-02    0.311E-02
RMM:   7    -0.413174196323E+03    0.19283E-05   -0.40351E-04  5726   0.183E-02    0.197E-02
RMM:   8    -0.413174186031E+03    0.10292E-04   -0.72220E-05  5104   0.877E-03    0.103E-02
RMM:   9    -0.413174178017E+03    0.80131E-05   -0.14908E-05  4141   0.438E-03    0.730E-03
RMM:  10    -0.413174173178E+03    0.48391E-05   -0.20067E-06  2574   0.218E-03    0.470E-03
RMM:  11    -0.413174168460E+03    0.47187E-05   -0.14672E-06  2525   0.191E-03    0.244E-03
RMM:  12    -0.413174161694E+03    0.67661E-05   -0.15762E-06  2538   0.196E-03    0.878E-04
RMM:  13    -0.413174159789E+03    0.19044E-05   -0.48272E-07  2325   0.125E-03    0.606E-04
RMM:  14    -0.413174159841E+03   -0.51572E-07   -0.22869E-07  1839   0.842E-04
   23 T=    63. E= -.41286660E+03 F= -.41317416E+03 E0= -.41315226E+03  EK= 0.30756E+00 SP= 0.00E+00 SK= 0.00E+00
       N       E                     dE             d eps       ncg     rms          rms(c)
RMM:   1    -0.413176098539E+03   -0.19387E-02   -0.10364E+01  4298   0.809E-01    0.892E-01
RMM:   2    -0.413178705617E+03   -0.26071E-02   -0.12777E-01  4270   0.102E-01    0.649E-01
RMM:   3    -0.413175988866E+03    0.27168E-02   -0.10151E-02  4733   0.439E-02    0.122E-01
RMM:   4    -0.413197567757E+03   -0.21579E-01   -0.22134E-02  5136   0.124E-01    0.615E-01
RMM:   5    -0.413175643886E+03    0.21924E-01   -0.10861E-02  4803   0.102E-01    0.414E-02
RMM:   6    -0.413175765070E+03   -0.12118E-03   -0.18575E-03  5817   0.400E-02    0.257E-02
RMM:   7    -0.413175766834E+03   -0.17641E-05   -0.24184E-04  5697   0.149E-02    0.144E-02
RMM:   8    -0.413175762788E+03    0.40457E-05   -0.54217E-05  4971   0.753E-03    0.890E-03
RMM:   9    -0.413175757990E+03    0.47977E-05   -0.10996E-05  3877   0.388E-03    0.661E-03
RMM:  10    -0.413175756359E+03    0.16314E-05   -0.14691E-06  2541   0.203E-03    0.421E-03
RMM:  11    -0.413175754071E+03    0.22878E-05   -0.15846E-06  2533   0.201E-03    0.200E-03
RMM:  12    -0.413175751316E+03    0.27558E-05   -0.10570E-06  2465   0.164E-03    0.613E-04
RMM:  13    -0.413175750734E+03    0.58177E-06   -0.35911E-07  2118   0.103E-03
   24 T=    63. E= -.41286692E+03 F= -.41317575E+03 E0= -.41315390E+03  EK= 0.30883E+00 SP= 0.00E+00 SK= 0.00E+00
       N       E                     dE             d eps       ncg     rms          rms(c)
RMM:   1    -0.413176695177E+03   -0.94386E-03   -0.10437E+01  4296   0.816E-01    0.905E-01
RMM:   2    -0.413179659488E+03   -0.29643E-02   -0.13934E-01  4271   0.106E-01    0.657E-01
RMM:   3    -0.413176872043E+03    0.27874E-02   -0.97483E-03  4585   0.431E-02    0.133E-01
RMM:   4    -0.413190434707E+03   -0.13563E-01   -0.14048E-02  5141   0.988E-02    0.490E-01
RMM:   5    -0.413176685536E+03    0.13749E-01   -0.68511E-03  4818   0.805E-02    0.383E-02
RMM:   6    -0.413176738437E+03   -0.52901E-04   -0.11612E-03  5833   0.313E-02    0.222E-02
RMM:   7    -0.413176739799E+03   -0.13621E-05   -0.16253E-04  5626   0.125E-02    0.121E-02
RMM:   8    -0.413176729822E+03    0.99766E-05   -0.33529E-05  4779   0.613E-03    0.708E-03
RMM:   9    -0.413176728365E+03    0.14571E-05   -0.70277E-06  3376   0.325E-03    0.566E-03
RMM:  10    -0.413176725656E+03    0.27091E-05   -0.10787E-06  2509   0.187E-03    0.338E-03
RMM:  11    -0.413176722336E+03    0.33202E-05   -0.10160E-06  2495   0.166E-03    0.171E-03
RMM:  12    -0.413176718605E+03    0.37312E-05   -0.72898E-07  2397   0.135E-03    0.601E-04
RMM:  13    -0.413176717611E+03    0.99387E-06   -0.26462E-07  1948   0.896E-04
   25 T=    63. E= -.41286671E+03 F= -.41317672E+03 E0= -.41315492E+03  EK= 0.31001E+00 SP= 0.00E+00 SK= 0.00E+00
       N       E                     dE             d eps       ncg     rms          rms(c)
RMM:   1    -0.413173092073E+03    0.36265E-02   -0.10386E+01  4295   0.766E-01    0.920E-01
RMM:   2    -0.413180369885E+03   -0.72778E-02   -0.12658E-01  4268   0.102E-01    0.648E-01
RMM:   3    -0.413178235232E+03    0.21347E-02   -0.10356E-02  4699   0.441E-02    0.132E-01
RMM:   4    -0.413197578496E+03   -0.19343E-01   -0.19745E-02  5144   0.117E-01    0.582E-01
RMM:   5    -0.413177989822E+03    0.19589E-01   -0.98243E-03  4809   0.963E-02    0.419E-02
RMM:   6    -0.413178074389E+03   -0.84566E-04   -0.16251E-03  5814   0.380E-02    0.255E-02
RMM:   7    -0.413178065810E+03    0.85781E-05   -0.20501E-04  5652   0.141E-02    0.130E-02
RMM:   8    -0.413178059018E+03    0.67929E-05   -0.44005E-05  4926   0.686E-03    0.863E-03
RMM:   9    -0.413178052666E+03    0.63520E-05   -0.93286E-06  3693   0.357E-03    0.651E-03
RMM:  10    -0.413178047826E+03    0.48393E-05   -0.13303E-06  2521   0.202E-03    0.402E-03
RMM:  11    -0.413178041066E+03    0.67600E-05   -0.14363E-06  2524   0.193E-03    0.197E-03
RMM:  12    -0.413178033236E+03    0.78301E-05   -0.97825E-07  2459   0.161E-03    0.656E-04
RMM:  13    -0.413178031591E+03    0.16451E-05   -0.34520E-07  2112   0.102E-03    0.475E-04
RMM:  14    -0.413178030756E+03    0.83478E-06   -0.16662E-07  1577   0.753E-04
   26 T=    63. E= -.41286671E+03 F= -.41317803E+03 E0= -.41315628E+03  EK= 0.31132E+00 SP= 0.00E+00 SK= 0.00E+00
       N       E                     dE             d eps       ncg     rms          rms(c)
RMM:   1    -0.413174420423E+03    0.36112E-02   -0.10344E+01  4294   0.782E-01    0.897E-01
RMM:   2    -0.413182376224E+03   -0.79558E-02   -0.12804E-01  4270   0.101E-01    0.650E-01
RMM:   3    -0.413180013452E+03    0.23628E-02   -0.10331E-02  4722   0.456E-02    0.126E-01
RMM:   4    -0.413201996787E+03   -0.21983E-01   -0.22499E-02  5145   0.125E-01    0.620E-01
RMM:   5    -0.413179699758E+03    0.22297E-01   -0.11146E-02  4809   0.103E-01    0.421E-02
RMM:   6    -0.413179803272E+03   -0.10351E-03   -0.18324E-03  5815   0.407E-02    0.266E-02
RMM:   7    -0.413179801697E+03    0.15756E-05   -0.26382E-04  5679   0.155E-02    0.154E-02
RMM:   8    -0.413179795430E+03    0.62663E-05   -0.55963E-05  4967   0.776E-03    0.887E-03
RMM:   9    -0.413179789823E+03    0.56069E-05   -0.11048E-05  3849   0.390E-03    0.648E-03
RMM:  10    -0.413179786939E+03    0.28845E-05   -0.14732E-06  2543   0.202E-03    0.406E-03
RMM:  11    -0.413179783334E+03    0.36049E-05   -0.13467E-06  2511   0.189E-03    0.194E-03
RMM:  12    -0.413179779084E+03    0.42500E-05   -0.10712E-06  2471   0.163E-03    0.671E-04
RMM:  13    -0.413179778011E+03    0.10726E-05   -0.35945E-07  2146   0.104E-03    0.461E-04
RMM:  14    -0.413179777500E+03    0.51161E-06   -0.17422E-07  1609   0.762E-04
   27 T=    64. E= -.41286692E+03 F= -.41317978E+03 E0= -.41315808E+03  EK= 0.31286E+00 SP= 0.00E+00 SK= 0.00E+00
       N       E                     dE             d eps       ncg     rms          rms(c)
RMM:   1    -0.413176893049E+03    0.28850E-02   -0.10460E+01  4292   0.810E-01    0.906E-01
RMM:   2    -0.413183720233E+03   -0.68272E-02   -0.13274E-01  4268   0.106E-01    0.661E-01
RMM:   3    -0.413181122542E+03    0.25977E-02   -0.10595E-02  4642   0.465E-02    0.121E-01
RMM:   4    -0.413198024668E+03   -0.16902E-01   -0.17239E-02  5145   0.110E-01    0.545E-01
RMM:   5    -0.413180893782E+03    0.17131E-01   -0.85472E-03  4809   0.899E-02    0.398E-02
RMM:   6    -0.413180965909E+03   -0.72127E-04   -0.14202E-03  5839   0.355E-02    0.242E-02
RMM:   7    -0.413180962595E+03    0.33147E-05   -0.19043E-04  5639   0.136E-02    0.125E-02
RMM:   8    -0.413180958720E+03    0.38749E-05   -0.40429E-05  4884   0.665E-03    0.808E-03
RMM:   9    -0.413180954510E+03    0.42096E-05   -0.83631E-06  3555   0.344E-03    0.605E-03
RMM:  10    -0.413180952520E+03    0.19905E-05   -0.12305E-06  2518   0.195E-03    0.369E-03
RMM:  11    -0.413180949584E+03    0.29357E-05   -0.13233E-06  2520   0.186E-03    0.177E-03
RMM:  12    -0.413180946122E+03    0.34622E-05   -0.88001E-07  2432   0.150E-03    0.639E-04
RMM:  13    -0.413180945409E+03    0.71307E-06   -0.30580E-07  2053   0.962E-04
   28 T=    64. E= -.41286662E+03 F= -.41318095E+03 E0= -.41315930E+03  EK= 0.31433E+00 SP= 0.00E+00 SK= 0.00E+00
       N       E                     dE             d eps       ncg     rms          rms(c)
RMM:   1    -0.413178145981E+03    0.28001E-02   -0.10475E+01  4290   0.788E-01    0.928E-01
RMM:   2    -0.413185410331E+03   -0.72644E-02   -0.12862E-01  4271   0.104E-01    0.655E-01
RMM:   3    -0.413183043267E+03    0.23671E-02   -0.10823E-02  4468   0.467E-02    0.125E-01
RMM:   4    -0.413190658518E+03   -0.76153E-02   -0.80467E-03  5153   0.755E-02    0.368E-01
RMM:   5    -0.413183002523E+03    0.76560E-02   -0.38905E-03  4825   0.605E-02    0.380E-02
RMM:   6    -0.413183020851E+03   -0.18328E-04   -0.75778E-04  5788   0.257E-02    0.241E-02
RMM:   7    -0.413183010661E+03    0.10189E-04   -0.22050E-04  5348   0.148E-02    0.155E-02
RMM:   8    -0.413182994866E+03    0.15795E-04   -0.18077E-05  4193   0.560E-03    0.648E-03
RMM:   9    -0.413182990833E+03    0.40338E-05   -0.39945E-06  2871   0.256E-03    0.443E-03
RMM:  10    -0.413182985205E+03    0.56274E-05   -0.13850E-06  2494   0.197E-03    0.241E-03
RMM:  11    -0.413182978709E+03    0.64965E-05   -0.81780E-07  2460   0.156E-03    0.112E-03
RMM:  12    -0.413182973825E+03    0.48836E-05   -0.41269E-07  2200   0.111E-03    0.521E-04
RMM:  13    -0.413182971239E+03    0.25858E-05   -0.22355E-07  1761   0.826E-04    0.256E-04
RMM:  14    -0.413182967491E+03    0.37483E-05   -0.13622E-07  1430   0.719E-04    0.167E-04
RMM:  15    -0.413182962565E+03    0.49265E-05   -0.10802E-07  1327   0.683E-04    0.890E-05
RMM:  16    -0.413182960484E+03    0.20802E-05   -0.58240E-08  1041   0.605E-04    0.688E-05
RMM:  17    -0.413182956032E+03    0.44527E-05   -0.76997E-08  1266   0.635E-04    0.407E-05
RMM:  18    -0.413182954579E+03    0.14529E-05   -0.34826E-08   930   0.552E-04    0.244E-05
RMM:  19    -0.413182954141E+03    0.43740E-06   -0.14493E-08   711   0.515E-04
   29 T=    64. E= -.41286682E+03 F= -.41318295E+03 E0= -.41316136E+03  EK= 0.31613E+00 SP= 0.00E+00 SK= 0.00E+00
       N       E                     dE             d eps       ncg     rms          rms(c)
RMM:   1    -0.413179656143E+03    0.32984E-02   -0.10419E+01  4284   0.799E-01    0.907E-01
RMM:   2    -0.413187717523E+03   -0.80614E-02   -0.12973E-01  4264   0.112E-01    0.654E-01
RMM:   3    -0.413184966511E+03    0.27510E-02   -0.10729E-02  4492   0.508E-02    0.120E-01
RMM:   4    -0.413195096430E+03   -0.10130E-01   -0.10499E-02  5154   0.862E-02    0.424E-01
RMM:   5    -0.413184861151E+03    0.10235E-01   -0.51783E-03  4822   0.698E-02    0.382E-02
RMM:   6    -0.413184896356E+03   -0.35206E-04   -0.93848E-04  5834   0.284E-02    0.237E-02
RMM:   7    -0.413184896991E+03   -0.63483E-06   -0.21419E-04  5441   0.145E-02    0.157E-02
RMM:   8    -0.413184880650E+03    0.16341E-04   -0.27921E-05  4594   0.633E-03    0.688E-03
RMM:   9    -0.413184878422E+03    0.22284E-05   -0.52638E-06  3029   0.289E-03    0.511E-03
RMM:  10    -0.413184874907E+03    0.35150E-05   -0.13468E-06  2491   0.197E-03    0.286E-03
RMM:  11    -0.413184871218E+03    0.36892E-05   -0.86746E-07  2469   0.158E-03    0.144E-03
RMM:  12    -0.413184867535E+03    0.36825E-05   -0.56212E-07  2361   0.125E-03    0.704E-04
RMM:  13    -0.413184866038E+03    0.14968E-05   -0.24616E-07  1908   0.872E-04    0.305E-04
RMM:  14    -0.413184864367E+03    0.16718E-05   -0.13213E-07  1345   0.701E-04    0.195E-04
RMM:  15    -0.413184861576E+03    0.27905E-05   -0.95160E-08  1229   0.665E-04    0.807E-05
RMM:  16    -0.413184860068E+03    0.15079E-05   -0.54281E-08   988   0.613E-04    0.703E-05
RMM:  17    -0.413184858325E+03    0.17431E-05   -0.44864E-08   965   0.598E-04    0.491E-05
RMM:  18    -0.413184855700E+03    0.26251E-05   -0.52014E-08  1090   0.606E-04    0.280E-05
RMM:  19    -0.413184855140E+03    0.56019E-06   -0.18914E-08   734   0.539E-04
   30 T=    65. E= -.41286698E+03 F= -.41318486E+03 E0= -.41316331E+03  EK= 0.31787E+00 SP= 0.00E+00 SK= 0.00E+00
       N       E                     dE             d eps       ncg     rms          rms(c)
RMM:   1    -0.413183786391E+03    0.10693E-02   -0.10554E+01  4291   0.845E-01    0.908E-01
RMM:   2    -0.413189940551E+03   -0.61542E-02   -0.13838E-01  4272   0.123E-01    0.667E-01
RMM:   3    -0.413186430136E+03    0.35104E-02   -0.10971E-02  4382   0.548E-02    0.117E-01
RMM:   4    -0.413192541546E+03   -0.61114E-02   -0.65981E-03  5155   0.685E-02    0.329E-01
RMM:   5    -0.413186426628E+03    0.61149E-02   -0.30937E-03  4822   0.542E-02    0.362E-02
RMM:   6    -0.413186449435E+03   -0.22807E-04   -0.62772E-04  5785   0.236E-02    0.233E-02
RMM:   7    -0.413186446519E+03    0.29161E-05   -0.20487E-04  5298   0.141E-02    0.151E-02
RMM:   8    -0.413186434133E+03    0.12386E-04   -0.17400E-05  4218   0.548E-03    0.639E-03
RMM:   9    -0.413186432898E+03    0.12350E-05   -0.30358E-06  2729   0.235E-03    0.425E-03
RMM:  10    -0.413186430946E+03    0.19522E-05   -0.13265E-06  2495   0.184E-03    0.226E-03
RMM:  11    -0.413186429113E+03    0.18327E-05   -0.76808E-07  2442   0.145E-03    0.107E-03
RMM:  12    -0.413186427378E+03    0.17352E-05   -0.40583E-07  2165   0.107E-03    0.504E-04
RMM:  13    -0.413186426276E+03    0.11021E-05   -0.20556E-07  1659   0.795E-04    0.252E-04
RMM:  14    -0.413186424853E+03    0.14232E-05   -0.11788E-07  1214   0.684E-04    0.156E-04
RMM:  15    -0.413186422689E+03    0.21636E-05   -0.91688E-08  1123   0.658E-04    0.749E-05
RMM:  16    -0.413186421771E+03    0.91823E-06   -0.50053E-08   949   0.605E-04
   31 T=    65. E= -.41286678E+03 F= -.41318642E+03 E0= -.41316492E+03  EK= 0.31964E+00 SP= 0.00E+00 SK= 0.00E+00
       N       E                     dE             d eps       ncg     rms          rms(c)
RMM:   1    -0.413184559244E+03    0.18634E-02   -0.10576E+01  4291   0.827E-01    0.933E-01
RMM:   2    -0.413191926370E+03   -0.73671E-02   -0.13214E-01  4276   0.124E-01    0.663E-01
RMM:   3    -0.413189063967E+03    0.28624E-02   -0.11268E-02  4318   0.543E-02    0.121E-01
RMM:   4    -0.413191508446E+03   -0.24445E-02   -0.31131E-03  5138   0.469E-02    0.209E-01
RMM:   5    -0.413189096850E+03    0.24116E-02   -0.12562E-03  4823   0.350E-02    0.371E-02
RMM:   6    -0.413189107863E+03   -0.11012E-04   -0.40283E-04  5583   0.199E-02    0.267E-02
RMM:   7    -0.413189077605E+03    0.30257E-04   -0.19285E-04  5058   0.139E-02    0.144E-02
RMM:   8    -0.413189070902E+03    0.67032E-05   -0.16285E-05  4040   0.489E-03    0.561E-03
RMM:   9    -0.413189068771E+03    0.21315E-05   -0.21112E-06  2542   0.207E-03    0.334E-03
RMM:  10    -0.413189062312E+03    0.64585E-05   -0.89683E-07  2468   0.156E-03    0.172E-03
RMM:  11    -0.413189057596E+03    0.47165E-05   -0.49732E-07  2246   0.111E-03    0.723E-04
RMM:  12    -0.413189052560E+03    0.50354E-05   -0.29097E-07  1960   0.910E-04    0.266E-04
RMM:  13    -0.413189049499E+03    0.30612E-05   -0.14207E-07  1382   0.713E-04    0.191E-04
RMM:  14    -0.413189045624E+03    0.38748E-05   -0.89962E-08  1097   0.652E-04    0.127E-04
RMM:  15    -0.413189040732E+03    0.48920E-05   -0.87528E-08  1204   0.655E-04    0.780E-05
RMM:  16    -0.413189038739E+03    0.19930E-05   -0.48735E-08   974   0.593E-04    0.703E-05
RMM:  17    -0.413189035590E+03    0.31495E-05   -0.52837E-08  1086   0.593E-04    0.325E-05
RMM:  18    -0.413189034511E+03    0.10786E-05   -0.24804E-08   779   0.528E-04    0.227E-05
RMM:  19    -0.413189034113E+03    0.39852E-06   -0.13052E-08   638   0.507E-04
   32 T=    66. E= -.41286715E+03 F= -.41318903E+03 E0= -.41316758E+03  EK= 0.32188E+00 SP= 0.00E+00 SK= 0.00E+00
       N       E                     dE             d eps       ncg     rms          rms(c)
RMM:   1    -0.413186270959E+03    0.27636E-02   -0.10531E+01  4288   0.837E-01    0.920E-01
RMM:   2    -0.413193983329E+03   -0.77124E-02   -0.13286E-01  4273   0.126E-01    0.659E-01
RMM:   3    -0.413190963545E+03    0.30198E-02   -0.11035E-02  4232   0.515E-02    0.120E-01
RMM:   4    -0.413191444846E+03   -0.48130E-03   -0.12581E-03  5033   0.280E-02    0.896E-02
RMM:   5    -0.413191064703E+03    0.38014E-03   -0.25609E-04  4757   0.162E-02    0.375E-02
RMM:   6    -0.413191066636E+03   -0.19335E-05   -0.26029E-04  5328   0.161E-02    0.265E-02
RMM:   7    -0.413191035989E+03    0.30648E-04   -0.17167E-04  4846   0.126E-02    0.153E-02
RMM:   8    -0.413191031149E+03    0.48397E-05   -0.15924E-05  3969   0.457E-03    0.550E-03
RMM:   9    -0.413191029851E+03    0.12979E-05   -0.27647E-06  2379   0.204E-03    0.230E-03
RMM:  10    -0.413191023194E+03    0.66574E-05   -0.86806E-07  2304   0.143E-03    0.939E-04
RMM:  11    -0.413191019460E+03    0.37338E-05   -0.30136E-07  1847   0.905E-04    0.406E-04
RMM:  12    -0.413191015426E+03    0.40336E-05   -0.18008E-07  1472   0.765E-04    0.195E-04
RMM:  13    -0.413191012129E+03    0.32973E-05   -0.97944E-08  1069   0.658E-04    0.141E-04
RMM:  14    -0.413191007838E+03    0.42909E-05   -0.73024E-08   980   0.633E-04    0.987E-05
RMM:  15    -0.413191003342E+03    0.44965E-05   -0.69624E-08  1043   0.623E-04    0.557E-05
RMM:  16    -0.413191000997E+03    0.23440E-05   -0.35984E-08   770   0.559E-04    0.468E-05
RMM:  17    -0.413190999828E+03    0.11698E-05   -0.17685E-08   572   0.523E-04    0.220E-05
RMM:  18    -0.413190999303E+03    0.52504E-06   -0.11566E-08   511   0.514E-04
   33 T=    66. E= -.41286697E+03 F= -.41319100E+03 E0= -.41316960E+03  EK= 0.32403E+00 SP= 0.00E+00 SK= 0.00E+00
       N       E                     dE             d eps       ncg     rms          rms(c)
RMM:   1    -0.413197112500E+03   -0.61127E-02   -0.10713E+01  4298   0.915E-01    0.911E-01
RMM:   2    -0.413196653172E+03    0.45933E-03   -0.15314E-01  4271   0.135E-01    0.674E-01
RMM:   3    -0.413193422822E+03    0.32303E-02   -0.10559E-02  4192   0.542E-02    0.134E-01
RMM:   4    -0.413193778741E+03   -0.35592E-03   -0.14117E-03  4968   0.286E-02    0.788E-02
RMM:   5    -0.413193496048E+03    0.28269E-03   -0.20535E-04  4723   0.145E-02    0.370E-02
RMM:   6    -0.413193499867E+03   -0.38187E-05   -0.24320E-04  5325   0.154E-02    0.248E-02
RMM:   7    -0.413193474363E+03    0.25504E-04   -0.16509E-04  4830   0.125E-02    0.152E-02
RMM:   8    -0.413193470111E+03    0.42516E-05   -0.15386E-05  3608   0.428E-03    0.461E-03
RMM:   9    -0.413193469591E+03    0.51996E-06   -0.21948E-06  2386   0.199E-03
   34 T=    66. E= -.41286697E+03 F= -.41319347E+03 E0= -.41317212E+03  EK= 0.32650E+00 SP= 0.00E+00 SK= 0.00E+00
       N       E                     dE             d eps       ncg     rms          rms(c)
RMM:   1    -0.413193985128E+03   -0.51502E-03   -0.10725E+01  4302   0.890E-01    0.938E-01
RMM:   2    -0.413198994999E+03   -0.50099E-02   -0.13828E-01  4266   0.129E-01    0.673E-01
RMM:   3    -0.413196134348E+03    0.28607E-02   -0.11393E-02  4323   0.557E-02    0.121E-01
RMM:   4    -0.413196692758E+03   -0.55841E-03   -0.14571E-03  5108   0.297E-02    0.981E-02
RMM:   5    -0.413196219268E+03    0.47349E-03   -0.31986E-04  4795   0.182E-02    0.403E-02
RMM:   6    -0.413196204661E+03    0.14606E-04   -0.24820E-04  5318   0.161E-02    0.291E-02
RMM:   7    -0.413196178945E+03    0.25716E-04   -0.19414E-04  4736   0.124E-02    0.166E-02
RMM:   8    -0.413196172858E+03    0.60867E-05   -0.15405E-05  3865   0.446E-03    0.607E-03
RMM:   9    -0.413196171269E+03    0.15889E-05   -0.34192E-06  2415   0.199E-03    0.230E-03
RMM:  10    -0.413196160964E+03    0.10305E-04   -0.11615E-06  2320   0.156E-03    0.695E-04
RMM:  11    -0.413196156427E+03    0.45375E-05   -0.34134E-07  1896   0.956E-04    0.318E-04
RMM:  12    -0.413196153029E+03    0.33976E-05   -0.17336E-07  1477   0.761E-04    0.240E-04
RMM:  13    -0.413196147952E+03    0.50767E-05   -0.10854E-07  1098   0.662E-04    0.117E-04
RMM:  14    -0.413196141016E+03    0.69361E-05   -0.10248E-07  1123   0.661E-04    0.134E-04
RMM:  15    -0.413196136465E+03    0.45515E-05   -0.70304E-08  1041   0.610E-04    0.867E-05
RMM:  16    -0.413196133734E+03    0.27303E-05   -0.40914E-08   785   0.552E-04    0.408E-05
RMM:  17    -0.413196132487E+03    0.12475E-05   -0.20411E-08   605   0.516E-04    0.353E-05
RMM:  18    -0.413196131791E+03    0.69635E-06   -0.12635E-08   534   0.509E-04
   35 T=    67. E= -.41286704E+03 F= -.41319613E+03 E0= -.41317482E+03  EK= 0.32909E+00 SP= 0.00E+00 SK= 0.00E+00
       N       E                     dE             d eps       ncg     rms          rms(c)
RMM:   1    -0.413203122007E+03   -0.69895E-02   -0.10780E+01  4299   0.943E-01    0.937E-01
RMM:   2    -0.413200737980E+03    0.23840E-02   -0.13682E-01  4247   0.131E-01    0.667E-01
RMM:   3    -0.413198218511E+03    0.25195E-02   -0.11675E-02  4505   0.577E-02    0.129E-01
RMM:   4    -0.413210115724E+03   -0.11897E-01   -0.12198E-02  5172   0.933E-02    0.460E-01
RMM:   5    -0.413198160458E+03    0.11955E-01   -0.60524E-03  4810   0.761E-02    0.417E-02
RMM:   6    -0.413198171563E+03   -0.11105E-04   -0.11325E-03  5803   0.323E-02    0.282E-02
RMM:   7    -0.413198170732E+03    0.83037E-06   -0.28235E-04  5413   0.164E-02    0.174E-02
RMM:   8    -0.413198153497E+03    0.17235E-04   -0.34478E-05  4811   0.694E-03    0.769E-03
RMM:   9    -0.413198150546E+03    0.29512E-05   -0.58711E-06  3106   0.305E-03    0.517E-03
RMM:  10    -0.413198144939E+03    0.56069E-05   -0.13352E-06  2505   0.203E-03    0.284E-03
RMM:  11    -0.413198138990E+03    0.59494E-05   -0.94801E-07  2481   0.162E-03    0.145E-03
RMM:  12    -0.413198132632E+03    0.63578E-05   -0.63457E-07  2393   0.132E-03    0.712E-04
RMM:  13    -0.413198129943E+03    0.26894E-05   -0.27686E-07  1978   0.917E-04    0.352E-04
RMM:  14    -0.413198127615E+03    0.23277E-05   -0.13872E-07  1381   0.709E-04    0.222E-04
RMM:  15    -0.413198123375E+03    0.42398E-05   -0.89346E-08  1152   0.660E-04    0.910E-05
RMM:  16    -0.413198120416E+03    0.29588E-05   -0.59839E-08  1006   0.625E-04    0.672E-05
RMM:  17    -0.413198117909E+03    0.25070E-05   -0.47004E-08   996   0.606E-04    0.589E-05
RMM:  18    -0.413198113971E+03    0.39387E-05   -0.54948E-08  1219   0.618E-04    0.422E-05
RMM:  19    -0.413198112969E+03    0.10017E-05   -0.20792E-08   774   0.532E-04    0.297E-05
RMM:  20    -0.413198112572E+03    0.39677E-06   -0.11746E-08   662   0.515E-04
   36 T=    67. E= -.41286666E+03 F= -.41319811E+03 E0= -.41317685E+03  EK= 0.33145E+00 SP= 0.00E+00 SK= 0.00E+00
       N       E                     dE             d eps       ncg     rms          rms(c)
RMM:   1    -0.413213689419E+03   -0.15576E-01   -0.10914E+01  4303   0.105E+00    0.920E-01
RMM:   2    -0.413204629669E+03    0.90597E-02   -0.16324E-01  4248   0.144E-01    0.680E-01
RMM:   3    -0.413201350649E+03    0.32790E-02   -0.10697E-02  4637   0.576E-02    0.160E-01
RMM:   4    -0.413225957413E+03   -0.24607E-01   -0.25074E-02  5163   0.133E-01    0.656E-01
RMM:   5    -0.413201112605E+03    0.24845E-01   -0.12515E-02  4797   0.109E-01    0.458E-02
RMM:   6    -0.413201151595E+03   -0.38990E-04   -0.21035E-03  5856   0.430E-02    0.287E-02
RMM:   7    -0.413201161556E+03   -0.99611E-05   -0.28855E-04  5649   0.161E-02    0.156E-02
RMM:   8    -0.413201152225E+03    0.93314E-05   -0.55668E-05  4976   0.786E-03    0.912E-03
RMM:   9    -0.413201151039E+03    0.11859E-05   -0.15650E-05  4326   0.453E-03    0.673E-03
RMM:  10    -0.413201147327E+03    0.37116E-05   -0.19236E-06  2591   0.230E-03    0.395E-03
RMM:  11    -0.413201145183E+03    0.21445E-05   -0.10626E-06  2497   0.166E-03    0.246E-03
RMM:  12    -0.413201139838E+03    0.53449E-05   -0.15816E-06  2527   0.200E-03    0.115E-03
RMM:  13    -0.413201137416E+03    0.24223E-05   -0.54162E-07  2334   0.129E-03    0.677E-04
RMM:  14    -0.413201137170E+03    0.24577E-06   -0.22172E-07  1830   0.838E-04
   37 T=    68. E= -.41286702E+03 F= -.41320114E+03 E0= -.41317992E+03  EK= 0.33412E+00 SP= 0.00E+00 SK= 0.00E+00
       N       E                     dE             d eps       ncg     rms          rms(c)
RMM:   1    -0.413220310954E+03   -0.19174E-01   -0.11046E+01  4306   0.108E+00    0.940E-01
RMM:   2    -0.413207286629E+03    0.13024E-01   -0.16397E-01  4250   0.135E-01    0.685E-01
RMM:   3    -0.413203863420E+03    0.34232E-02   -0.10996E-02  4729   0.543E-02    0.169E-01
RMM:   4    -0.413235361468E+03   -0.31498E-01   -0.32118E-02  5156   0.150E-01    0.740E-01
RMM:   5    -0.413203491900E+03    0.31870E-01   -0.16207E-02  4800   0.124E-01    0.487E-02
RMM:   6    -0.413203546527E+03   -0.54628E-04   -0.25784E-03  5850   0.482E-02    0.308E-02
RMM:   7    -0.413203556611E+03   -0.10083E-04   -0.34449E-04  5707   0.174E-02    0.165E-02
RMM:   8    -0.413203546831E+03    0.97799E-05   -0.63167E-05  5026   0.825E-03    0.981E-03
RMM:   9    -0.413203544284E+03    0.25470E-05   -0.19387E-05  4513   0.491E-03    0.693E-03
RMM:  10    -0.413203538703E+03    0.55810E-05   -0.24571E-06  2648   0.247E-03    0.409E-03
RMM:  11    -0.413203535225E+03    0.34777E-05   -0.12018E-06  2495   0.178E-03    0.248E-03
RMM:  12    -0.413203526915E+03    0.83097E-05   -0.16041E-06  2520   0.206E-03    0.117E-03
RMM:  13    -0.413203523273E+03    0.36424E-05   -0.57751E-07  2356   0.135E-03    0.777E-04
RMM:  14    -0.413203523099E+03    0.17412E-06   -0.23520E-07  1931   0.871E-04
   38 T=    69. E= -.41286691E+03 F= -.41320352E+03 E0= -.41318234E+03  EK= 0.33662E+00 SP= 0.00E+00 SK= 0.00E+00
       N       E                     dE             d eps       ncg     rms          rms(c)
RMM:   1    -0.413205142811E+03   -0.16195E-02   -0.10876E+01  4305   0.102E+00    0.953E-01
RMM:   2    -0.413209470384E+03   -0.43276E-02   -0.14238E-01  4249   0.123E-01    0.677E-01
RMM:   3    -0.413206678271E+03    0.27921E-02   -0.12296E-02  4923   0.563E-02    0.170E-01
RMM:   4    -0.413248930722E+03   -0.42252E-01   -0.44652E-02  5140   0.176E-01    0.854E-01
RMM:   5    -0.413205956091E+03    0.42975E-01   -0.21444E-02  4797   0.143E-01    0.542E-02
RMM:   6    -0.413206059127E+03   -0.10304E-03   -0.34732E-03  5833   0.555E-02    0.334E-02
RMM:   7    -0.413206067961E+03   -0.88345E-05   -0.41015E-04  5686   0.186E-02    0.172E-02
RMM:   8    -0.413206057929E+03    0.10032E-04   -0.50039E-05  4767   0.703E-03    0.874E-03
RMM:   9    -0.413206051684E+03    0.62455E-05   -0.11172E-05  3429   0.353E-03    0.574E-03
RMM:  10    -0.413206047458E+03    0.42260E-05   -0.21569E-06  2589   0.218E-03    0.398E-03
RMM:  11    -0.413206040249E+03    0.72092E-05   -0.14611E-06  2497   0.203E-03    0.215E-03
RMM:  12    -0.413206029465E+03    0.10784E-04   -0.14520E-06  2509   0.196E-03    0.106E-03
RMM:  13    -0.413206027283E+03    0.21819E-05   -0.44680E-07  2350   0.124E-03    0.687E-04
RMM:  14    -0.413206026839E+03    0.44365E-06   -0.20003E-07  1822   0.816E-04
   39 T=    69. E= -.41286685E+03 F= -.41320603E+03 E0= -.41318489E+03  EK= 0.33918E+00 SP= 0.00E+00 SK= 0.00E+00
       N       E                     dE             d eps       ncg     rms          rms(c)
RMM:   1    -0.413230236224E+03   -0.24209E-01   -0.11099E+01  4309   0.117E+00    0.930E-01
RMM:   2    -0.413212991227E+03    0.17245E-01   -0.16881E-01  4253   0.133E-01    0.684E-01
RMM:   3    -0.413209945811E+03    0.30454E-02   -0.11256E-02  4987   0.568E-02    0.207E-01
RMM:   4    -0.413263262387E+03   -0.53317E-01   -0.57878E-02  5138   0.200E-01    0.956E-01
RMM:   5    -0.413208768631E+03    0.54494E-01   -0.26972E-02  4789   0.161E-01    0.588E-02
RMM:   6    -0.413208928233E+03   -0.15960E-03   -0.43466E-03  5823   0.621E-02    0.349E-02
RMM:   7    -0.413208944675E+03   -0.16442E-04   -0.51416E-04  5806   0.203E-02    0.202E-02
RMM:   8    -0.413208946035E+03   -0.13601E-05   -0.10960E-04  5244   0.101E-02    0.131E-02
RMM:   9    -0.413208933816E+03    0.12219E-04   -0.28988E-05  4744   0.598E-03    0.707E-03
RMM:  10    -0.413208929628E+03    0.41882E-05   -0.47319E-06  2842   0.297E-03    0.440E-03
RMM:  11    -0.413208926190E+03    0.34377E-05   -0.16345E-06  2504   0.210E-03    0.264E-03
RMM:  12    -0.413208919180E+03    0.70103E-05   -0.14988E-06  2516   0.203E-03    0.913E-04
RMM:  13    -0.413208915345E+03    0.38347E-05   -0.64158E-07  2421   0.140E-03    0.665E-04
RMM:  14    -0.413208914680E+03    0.66496E-06   -0.27811E-07  2042   0.935E-04
   40 T=    70. E= -.41286708E+03 F= -.41320891E+03 E0= -.41318781E+03  EK= 0.34184E+00 SP= 0.00E+00 SK= 0.00E+00
       N       E                     dE             d eps       ncg     rms          rms(c)
RMM:   1    -0.413226401283E+03   -0.17486E-01   -0.11153E+01  4309   0.118E+00    0.944E-01
RMM:   2    -0.413215084314E+03    0.11317E-01   -0.17185E-01  4257   0.140E-01    0.695E-01
RMM:   3    -0.413212566467E+03    0.25178E-02   -0.12175E-02  5038   0.621E-02    0.234E-01
RMM:   4    -0.413268835408E+03   -0.56269E-01   -0.64381E-02  5131   0.211E-01    0.985E-01
RMM:   5    -0.413210752668E+03    0.58083E-01   -0.28107E-02  4777   0.166E-01    0.617E-02
RMM:   6    -0.413210929689E+03   -0.17702E-03   -0.46338E-03  5810   0.640E-02    0.356E-02
RMM:   7    -0.413210947087E+03   -0.17399E-04   -0.56526E-04  5820   0.211E-02    0.223E-02
RMM:   8    -0.413210948338E+03   -0.12509E-05   -0.12923E-04  5276   0.111E-02    0.141E-02
RMM:   9    -0.413210934285E+03    0.14053E-04   -0.28106E-05  4703   0.616E-03    0.667E-03
RMM:  10    -0.413210930343E+03    0.39417E-05   -0.57552E-06  3011   0.305E-03    0.419E-03
RMM:  11    -0.413210927055E+03    0.32883E-05   -0.15469E-06  2507   0.206E-03    0.248E-03
RMM:  12    -0.413210920711E+03    0.63440E-05   -0.12694E-06  2493   0.190E-03    0.839E-04
RMM:  13    -0.413210916951E+03    0.37593E-05   -0.60269E-07  2407   0.134E-03    0.558E-04
RMM:  14    -0.413210916067E+03    0.88449E-06   -0.27466E-07  2024   0.921E-04
   41 T=    70. E= -.41286679E+03 F= -.41321092E+03 E0= -.41318985E+03  EK= 0.34412E+00 SP= 0.00E+00 SK= 0.00E+00
       N       E                     dE             d eps       ncg     rms          rms(c)
RMM:   1    -0.413217066262E+03   -0.61493E-02   -0.11043E+01  4310   0.117E+00    0.967E-01
RMM:   2    -0.413216842530E+03    0.22373E-03   -0.14904E-01  4280   0.134E-01    0.687E-01
RMM:   3    -0.413216415499E+03    0.42703E-03   -0.14718E-02  5079   0.725E-02    0.271E-01
RMM:   4    -0.413257271889E+03   -0.40856E-01   -0.54712E-02  5100   0.196E-01    0.862E-01
RMM:   5    -0.413213306276E+03    0.43966E-01   -0.19913E-02  4752   0.144E-01    0.600E-02
RMM:   6    -0.413213400693E+03   -0.94417E-04   -0.34722E-03  5787   0.555E-02    0.350E-02
RMM:   7    -0.413213406691E+03   -0.59984E-05   -0.46083E-04  5764   0.196E-02    0.218E-02
RMM:   8    -0.413213403786E+03    0.29055E-05   -0.12697E-04  5221   0.113E-02    0.132E-02
RMM:   9    -0.413213388126E+03    0.15659E-04   -0.22321E-05  4522   0.583E-03    0.560E-03
RMM:  10    -0.413213382283E+03    0.58435E-05   -0.49170E-06  2932   0.282E-03    0.357E-03
RMM:  11    -0.413213376734E+03    0.55489E-05   -0.12582E-06  2498   0.192E-03    0.199E-03
RMM:  12    -0.413213367520E+03    0.92140E-05   -0.88566E-07  2465   0.163E-03    0.733E-04
RMM:  13    -0.413213362107E+03    0.54130E-05   -0.42532E-07  2291   0.114E-03    0.396E-04
RMM:  14    -0.413213360195E+03    0.19117E-05   -0.21497E-07  1812   0.828E-04    0.269E-04
RMM:  15    -0.413213355636E+03    0.45588E-05   -0.12713E-07  1386   0.706E-04    0.129E-04
RMM:  16    -0.413213350835E+03    0.48011E-05   -0.89885E-08  1234   0.663E-04    0.136E-04
RMM:  17    -0.413213347656E+03    0.31797E-05   -0.61255E-08  1109   0.623E-04    0.878E-05
RMM:  18    -0.413213344024E+03    0.36314E-05   -0.58150E-08  1224   0.621E-04    0.616E-05
RMM:  19    -0.413213341270E+03    0.27543E-05   -0.39043E-08  1080   0.586E-04    0.366E-05
RMM:  20    -0.413213340825E+03    0.44488E-06   -0.17158E-08   749   0.533E-04
   42 T=    71. E= -.41286698E+03 F= -.41321334E+03 E0= -.41319230E+03  EK= 0.34636E+00 SP= 0.00E+00 SK= 0.00E+00
       N       E                     dE             d eps       ncg     rms          rms(c)
RMM:   1    -0.413237736118E+03   -0.24395E-01   -0.11166E+01  4311   0.134E+00    0.943E-01
RMM:   2    -0.413218976888E+03    0.18759E-01   -0.16972E-01  4291   0.148E-01    0.689E-01
RMM:   3    -0.413219542354E+03   -0.56547E-03   -0.14571E-02  5082   0.797E-02    0.320E-01
RMM:   4    -0.413257574794E+03   -0.38032E-01   -0.56100E-02  5095   0.200E-01    0.848E-01
RMM:   5    -0.413215248927E+03    0.42326E-01   -0.18734E-02  4734   0.142E-01    0.615E-02
RMM:   6    -0.413215320671E+03   -0.71744E-04   -0.32851E-03  5748   0.543E-02    0.346E-02
RMM:   7    -0.413215326808E+03   -0.61375E-05   -0.47717E-04  5791   0.195E-02    0.230E-02
RMM:   8    -0.413215323631E+03    0.31770E-05   -0.12480E-04  5192   0.114E-02    0.123E-02
RMM:   9    -0.413215311226E+03    0.12406E-04   -0.21505E-05  4503   0.574E-03    0.482E-03
RMM:  10    -0.413215307987E+03    0.32392E-05   -0.45160E-06  2852   0.266E-03    0.308E-03
RMM:  11    -0.413215304135E+03    0.38517E-05   -0.13082E-06  2502   0.188E-03    0.168E-03
RMM:  12    -0.413215298856E+03    0.52789E-05   -0.74605E-07  2452   0.148E-03    0.633E-04
RMM:  13    -0.413215295755E+03    0.31005E-05   -0.37196E-07  2119   0.104E-03    0.294E-04
RMM:  14    -0.413215293708E+03    0.20468E-05   -0.20061E-07  1628   0.799E-04    0.192E-04
RMM:  15    -0.413215289883E+03    0.38257E-05   -0.13844E-07  1334   0.718E-04    0.108E-04
RMM:  16    -0.413215287739E+03    0.21439E-05   -0.85722E-08  1133   0.658E-04    0.794E-05
RMM:  17    -0.413215285277E+03    0.24621E-05   -0.69393E-08  1149   0.642E-04    0.507E-05
RMM:  18    -0.413215282820E+03    0.24565E-05   -0.55629E-08  1130   0.620E-04    0.353E-05
RMM:  19    -0.413215281210E+03    0.16103E-05   -0.37168E-08   966   0.579E-04    0.227E-05
RMM:  20    -0.413215280721E+03    0.48875E-06   -0.20059E-08   782   0.548E-04
   43 T=    71. E= -.41286707E+03 F= -.41321528E+03 E0= -.41319427E+03  EK= 0.34821E+00 SP= 0.00E+00 SK= 0.00E+00
       N       E                     dE             d eps       ncg     rms          rms(c)
RMM:   1    -0.413230967143E+03   -0.15686E-01   -0.11179E+01  4312   0.135E+00    0.948E-01
RMM:   2    -0.413220325329E+03    0.10642E-01   -0.16461E-01  4283   0.160E-01    0.701E-01
RMM:   3    -0.413221673960E+03   -0.13486E-02   -0.16581E-02  5075   0.891E-02    0.341E-01
RMM:   4    -0.413256348264E+03   -0.34674E-01   -0.55872E-02  5078   0.201E-01    0.823E-01
RMM:   5    -0.413216300176E+03    0.40048E-01   -0.17076E-02  4715   0.137E-01    0.606E-02
RMM:   6    -0.413216354249E+03   -0.54073E-04   -0.30509E-03  5740   0.523E-02    0.339E-02
RMM:   7    -0.413216357982E+03   -0.37333E-05   -0.43479E-04  5779   0.191E-02    0.225E-02
RMM:   8    -0.413216355063E+03    0.29194E-05   -0.11608E-04  5175   0.111E-02    0.116E-02
RMM:   9    -0.413216344800E+03    0.10263E-04   -0.19888E-05  4420   0.558E-03    0.456E-03
RMM:  10    -0.413216342541E+03    0.22588E-05   -0.40293E-06  2799   0.256E-03    0.287E-03
RMM:  11    -0.413216339677E+03    0.28647E-05   -0.12978E-06  2500   0.185E-03    0.155E-03
RMM:  12    -0.413216335840E+03    0.38363E-05   -0.74582E-07  2443   0.144E-03    0.590E-04
RMM:  13    -0.413216333508E+03    0.23322E-05   -0.36955E-07  2028   0.101E-03    0.278E-04
RMM:  14    -0.413216331777E+03    0.17307E-05   -0.20693E-07  1558   0.792E-04    0.176E-04
RMM:  15    -0.413216328429E+03    0.33486E-05   -0.15551E-07  1331   0.728E-04    0.108E-04
RMM:  16    -0.413216326843E+03    0.15852E-05   -0.93289E-08  1122   0.659E-04    0.762E-05
RMM:  17    -0.413216324697E+03    0.21468E-05   -0.76408E-08  1148   0.650E-04    0.453E-05
RMM:  18    -0.413216322651E+03    0.20452E-05   -0.59790E-08  1121   0.625E-04    0.355E-05
RMM:  19    -0.413216321513E+03    0.11381E-05   -0.36793E-08   933   0.580E-04    0.205E-05
RMM:  20    -0.413216320873E+03    0.64073E-06   -0.20989E-08   773   0.553E-04
   44 T=    71. E= -.41286684E+03 F= -.41321632E+03 E0= -.41319533E+03  EK= 0.34948E+00 SP= 0.00E+00 SK= 0.00E+00
       N       E                     dE             d eps       ncg     rms          rms(c)
RMM:   1    -0.413250412656E+03   -0.34091E-01   -0.11328E+01  4310   0.151E+00    0.973E-01
RMM:   2    -0.413220907683E+03    0.29505E-01   -0.16940E-01  4307   0.168E-01    0.696E-01
RMM:   3    -0.413226434332E+03   -0.55266E-02   -0.19616E-02  5119   0.104E-01    0.431E-01
RMM:   4    -0.413243387318E+03   -0.16953E-01   -0.45924E-02  5053   0.185E-01    0.670E-01
RMM:   5    -0.413217591402E+03    0.25796E-01   -0.10006E-02  4662   0.112E-01    0.580E-02
RMM:   6    -0.413217576494E+03    0.14908E-04   -0.19599E-03  5629   0.428E-02    0.334E-02
RMM:   7    -0.413217570854E+03    0.56402E-05   -0.32880E-04  5636   0.175E-02    0.220E-02
RMM:   8    -0.413217563046E+03    0.78085E-05   -0.11446E-04  5081   0.113E-02    0.104E-02
RMM:   9    -0.413217550138E+03    0.12908E-04   -0.15833E-05  4293   0.541E-03    0.421E-03
RMM:  10    -0.413217546312E+03    0.38256E-05   -0.29742E-06  2719   0.231E-03    0.249E-03
RMM:  11    -0.413217540324E+03    0.59883E-05   -0.11426E-06  2482   0.177E-03    0.135E-03
RMM:  12    -0.413217534109E+03    0.62149E-05   -0.59951E-07  2413   0.134E-03    0.599E-04
RMM:  13    -0.413217530574E+03    0.35351E-05   -0.28419E-07  1875   0.917E-04    0.287E-04
RMM:  14    -0.413217527343E+03    0.32313E-05   -0.16177E-07  1413   0.733E-04    0.161E-04
RMM:  15    -0.413217522169E+03    0.51740E-05   -0.12783E-07  1314   0.703E-04    0.123E-04
RMM:  16    -0.413217519620E+03    0.25485E-05   -0.79503E-08  1113   0.639E-04    0.922E-05
RMM:  17    -0.413217514991E+03    0.46297E-05   -0.82189E-08  1334   0.655E-04    0.668E-05
RMM:  18    -0.413217512994E+03    0.19960E-05   -0.44335E-08  1007   0.576E-04    0.414E-05
RMM:  19    -0.413217511707E+03    0.12878E-05   -0.30214E-08   872   0.548E-04    0.217E-05
RMM:  20    -0.413217511233E+03    0.47408E-06   -0.18915E-08   749   0.527E-04
   45 T=    71. E= -.41286720E+03 F= -.41321751E+03 E0= -.41319655E+03  EK= 0.35031E+00 SP= 0.00E+00 SK= 0.00E+00
       N       E                     dE             d eps       ncg     rms          rms(c)
RMM:   1    -0.413263318601E+03   -0.45807E-01   -0.11325E+01  4310   0.163E+00    0.953E-01
RMM:   2    -0.413220670891E+03    0.42648E-01   -0.17977E-01  4325   0.182E-01    0.692E-01
RMM:   3    -0.413228249542E+03   -0.75787E-02   -0.20598E-02  5115   0.112E-01    0.481E-01
RMM:   4    -0.413239142235E+03   -0.10893E-01   -0.44105E-02  5036   0.182E-01    0.623E-01
RMM:   5    -0.413217242542E+03    0.21900E-01   -0.82700E-03  4613   0.106E-01    0.577E-02
RMM:   6    -0.413217210100E+03    0.32441E-04   -0.16752E-03  5517   0.397E-02    0.325E-02
RMM:   7    -0.413217205244E+03    0.48564E-05   -0.29096E-04  5620   0.166E-02    0.219E-02
RMM:   8    -0.413217197099E+03    0.81455E-05   -0.12059E-04  5078   0.114E-02    0.102E-02
RMM:   9    -0.413217184175E+03    0.12924E-04   -0.16177E-05  4298   0.553E-03    0.414E-03
RMM:  10    -0.413217181011E+03    0.31643E-05   -0.28411E-06  2710   0.226E-03    0.241E-03
RMM:  11    -0.413217175430E+03    0.55811E-05   -0.12437E-06  2492   0.180E-03    0.131E-03
RMM:  12    -0.413217170558E+03    0.48721E-05   -0.58072E-07  2427   0.132E-03    0.646E-04
RMM:  13    -0.413217167317E+03    0.32401E-05   -0.27459E-07  1824   0.901E-04    0.313E-04
RMM:  14    -0.413217164103E+03    0.32144E-05   -0.15635E-07  1365   0.719E-04    0.167E-04
RMM:  15    -0.413217160070E+03    0.40328E-05   -0.11760E-07  1231   0.679E-04    0.116E-04
RMM:  16    -0.413217157606E+03    0.24647E-05   -0.76286E-08  1081   0.630E-04    0.940E-05
RMM:  17    -0.413217153742E+03    0.38636E-05   -0.75914E-08  1229   0.643E-04    0.606E-05
RMM:  18    -0.413217151592E+03    0.21502E-05   -0.48324E-08  1052   0.586E-04    0.442E-05
RMM:  19    -0.413217150710E+03    0.88142E-06   -0.27024E-08   824   0.539E-04
   46 T=    71. E= -.41286707E+03 F= -.41321715E+03 E0= -.41319620E+03  EK= 0.35008E+00 SP= 0.00E+00 SK= 0.00E+00
       N       E                     dE             d eps       ncg     rms          rms(c)
RMM:   1    -0.413246857656E+03   -0.29706E-01   -0.11164E+01  4310   0.163E+00    0.939E-01
RMM:   2    -0.413220134454E+03    0.26723E-01   -0.19391E-01  4336   0.194E-01    0.706E-01
RMM:   3    -0.413227729324E+03   -0.75949E-02   -0.20344E-02  5112   0.117E-01    0.500E-01
RMM:   4    -0.413240109605E+03   -0.12380E-01   -0.47579E-02  5035   0.189E-01    0.652E-01
RMM:   5    -0.413216064733E+03    0.24045E-01   -0.93469E-03  4617   0.112E-01    0.603E-02
RMM:   6    -0.413216023862E+03    0.40871E-04   -0.18057E-03  5511   0.413E-02    0.328E-02
RMM:   7    -0.413216018827E+03    0.50353E-05   -0.30342E-04  5694   0.168E-02    0.230E-02
RMM:   8    -0.413216009187E+03    0.96400E-05   -0.12564E-04  5109   0.115E-02    0.106E-02
RMM:   9    -0.413215997172E+03    0.12015E-04   -0.19043E-05  4413   0.588E-03    0.420E-03
RMM:  10    -0.413215995081E+03    0.20904E-05   -0.32105E-06  2727   0.235E-03    0.242E-03
RMM:  11    -0.413215991375E+03    0.37059E-05   -0.15308E-06  2525   0.193E-03    0.140E-03
RMM:  12    -0.413215988474E+03    0.29014E-05   -0.63024E-07  2439   0.139E-03    0.723E-04
RMM:  13    -0.413215985972E+03    0.25018E-05   -0.32231E-07  1877   0.950E-04    0.336E-04
RMM:  14    -0.413215983563E+03    0.24092E-05   -0.18929E-07  1439   0.757E-04    0.178E-04
RMM:  15    -0.413215980962E+03    0.26005E-05   -0.13980E-07  1273   0.697E-04    0.114E-04
RMM:  16    -0.413215979001E+03    0.19609E-05   -0.96333E-08  1178   0.648E-04    0.964E-05
RMM:  17    -0.413215976497E+03    0.25043E-05   -0.83686E-08  1190   0.635E-04    0.529E-05
RMM:  18    -0.413215974612E+03    0.18850E-05   -0.55388E-08  1022   0.591E-04    0.479E-05
RMM:  19    -0.413215974090E+03    0.52188E-06   -0.28782E-08   797   0.546E-04
   47 T=    71. E= -.41286709E+03 F= -.41321597E+03 E0= -.41319504E+03  EK= 0.34888E+00 SP= 0.00E+00 SK= 0.00E+00
       N       E                     dE             d eps       ncg     rms          rms(c)
RMM:   1    -0.413242473137E+03   -0.26499E-01   -0.11024E+01  4306   0.174E+00    0.963E-01
RMM:   2    -0.413217473110E+03    0.25000E-01   -0.17651E-01  4383   0.201E-01    0.698E-01
RMM:   3    -0.413232459489E+03   -0.14986E-01   -0.27578E-02  5136   0.139E-01    0.603E-01
RMM:   4    -0.413227983627E+03    0.44759E-02   -0.41903E-02  4992   0.182E-01    0.506E-01
RMM:   5    -0.413213939139E+03    0.14044E-01   -0.50657E-03  4552   0.920E-02    0.569E-02
RMM:   6    -0.413213847178E+03    0.91961E-04   -0.85026E-04  5038   0.312E-02    0.303E-02
RMM:   7    -0.413213832139E+03    0.15039E-04   -0.16843E-04  5691   0.127E-02    0.137E-02
RMM:   8    -0.413213834918E+03   -0.27784E-05   -0.95617E-05  5262   0.991E-03    0.116E-02
RMM:   9    -0.413213819640E+03    0.15278E-04   -0.23032E-05  4579   0.585E-03    0.454E-03
RMM:  10    -0.413213817143E+03    0.24965E-05   -0.31353E-06  2719   0.248E-03    0.239E-03
RMM:  11    -0.413213811232E+03    0.59110E-05   -0.16008E-06  2470   0.205E-03    0.136E-03
RMM:  12    -0.413213806934E+03    0.42988E-05   -0.67724E-07  2388   0.146E-03    0.806E-04
RMM:  13    -0.413213803052E+03    0.38816E-05   -0.30823E-07  1918   0.100E-03    0.447E-04
RMM:  14    -0.413213798877E+03    0.41751E-05   -0.16025E-07  1517   0.747E-04    0.252E-04
RMM:  15    -0.413213794964E+03    0.39132E-05   -0.10021E-07  1098   0.635E-04    0.141E-04
RMM:  16    -0.413213792577E+03    0.23869E-05   -0.68451E-08  1030   0.597E-04    0.113E-04
RMM:  17    -0.413213789306E+03    0.32707E-05   -0.65461E-08  1100   0.603E-04    0.754E-05
RMM:  18    -0.413213787004E+03    0.23017E-05   -0.42572E-08   965   0.572E-04    0.564E-05
RMM:  19    -0.413213786240E+03    0.76410E-06   -0.19299E-08   680   0.513E-04
   48 T=    71. E= -.41286738E+03 F= -.41321379E+03 E0= -.41319286E+03  EK= 0.34640E+00 SP= 0.00E+00 SK= 0.00E+00
       N       E                     dE             d eps       ncg     rms          rms(c)
RMM:   1    -0.413242451127E+03   -0.28664E-01   -0.10828E+01  4305   0.186E+00    0.952E-01
RMM:   2    -0.413212623634E+03    0.29827E-01   -0.17565E-01  4446   0.211E-01    0.688E-01
RMM:   3    -0.413233711405E+03   -0.21088E-01   -0.32461E-02  5150   0.155E-01    0.686E-01
RMM:   4    -0.413218918331E+03    0.14793E-01   -0.40277E-02  4971   0.181E-01    0.431E-01
RMM:   5    -0.413209245695E+03    0.96726E-02   -0.42207E-03  4556   0.875E-02    0.603E-02
RMM:   6    -0.413209098321E+03    0.14737E-03   -0.51059E-04  4744   0.285E-02    0.319E-02
RMM:   7    -0.413209103838E+03   -0.55172E-05   -0.28441E-04  5799   0.173E-02    0.220E-02
RMM:   8    -0.413209075039E+03    0.28800E-04   -0.10215E-04  5073   0.114E-02    0.919E-03
RMM:   9    -0.413209068236E+03    0.68027E-05   -0.15261E-05  4462   0.529E-03    0.465E-03
RMM:  10    -0.413209064188E+03    0.40473E-05   -0.20326E-06  2594   0.229E-03    0.244E-03
RMM:  11    -0.413209058091E+03    0.60975E-05   -0.13233E-06  2488   0.186E-03    0.171E-03
RMM:  12    -0.413209054610E+03    0.34808E-05   -0.43267E-07  2375   0.121E-03    0.878E-04
RMM:  13    -0.413209049793E+03    0.48169E-05   -0.28490E-07  1931   0.901E-04    0.434E-04
RMM:  14    -0.413209044300E+03    0.54935E-05   -0.23169E-07  1822   0.813E-04    0.418E-04
RMM:  15    -0.413209040227E+03    0.40725E-05   -0.11784E-07  1116   0.634E-04    0.164E-04
RMM:  16    -0.413209037845E+03    0.23822E-05   -0.73475E-08  1033   0.602E-04    0.103E-04
RMM:  17    -0.413209034847E+03    0.29979E-05   -0.66587E-08  1081   0.600E-04    0.830E-05
RMM:  18    -0.413209033526E+03    0.13213E-05   -0.39833E-08   903   0.557E-04    0.696E-05
RMM:  19    -0.413209031621E+03    0.19046E-05   -0.39764E-08   998   0.565E-04    0.483E-05
RMM:  20    -0.413209030759E+03    0.86260E-06   -0.24274E-08   806   0.522E-04
   49 T=    70. E= -.41286709E+03 F= -.41320903E+03 E0= -.41318812E+03  EK= 0.34194E+00 SP= 0.00E+00 SK= 0.00E+00
       N       E                     dE             d eps       ncg     rms          rms(c)
RMM:   1    -0.413232019355E+03   -0.22988E-01   -0.10585E+01  4305   0.193E+00    0.924E-01
RMM:   2    -0.413207073372E+03    0.24946E-01   -0.17578E-01  4464   0.220E-01    0.691E-01
RMM:   3    -0.413228544091E+03   -0.21471E-01   -0.32948E-02  5146   0.159E-01    0.699E-01
RMM:   4    -0.413213147836E+03    0.15396E-01   -0.41651E-02  4965   0.185E-01    0.435E-01
RMM:   5    -0.413203085068E+03    0.10063E-01   -0.44952E-03  4591   0.906E-02    0.627E-02
RMM:   6    -0.413202914670E+03    0.17040E-03   -0.51999E-04  4746   0.295E-02    0.321E-02
RMM:   7    -0.413202922551E+03   -0.78803E-05   -0.30277E-04  5790   0.180E-02    0.228E-02
RMM:   8    -0.413202892316E+03    0.30235E-04   -0.10169E-04  5093   0.114E-02    0.956E-03
RMM:   9    -0.413202887324E+03    0.49921E-05   -0.18918E-05  4830   0.570E-03    0.487E-03
[...]
RMM:   3    -0.413274998995E+03   -0.63151E-01   -0.11162E-01  5421   0.344E-01    0.114E+00
RMM:   4    -0.413218626819E+03    0.56372E-01   -0.74652E-02  5067   0.295E-01    0.467E-01
RMM:   5    -0.413209846282E+03    0.87805E-02   -0.27918E-02  5218   0.215E-01    0.192E-01
RMM:   6    -0.413208715765E+03    0.11305E-02   -0.19152E-03  4462   0.693E-02    0.987E-02
RMM:   7    -0.413208806588E+03   -0.90824E-04   -0.24870E-03  5254   0.591E-02    0.541E-02
RMM:   8    -0.413208753006E+03    0.53582E-04   -0.78670E-04  5442   0.330E-02    0.353E-02
RMM:   9    -0.413208742557E+03    0.10449E-04   -0.16289E-04  5636   0.159E-02    0.163E-02
RMM:  10    -0.413208773013E+03   -0.30456E-04   -0.90925E-05  5650   0.110E-02    0.102E-02
RMM:  11    -0.413208794716E+03   -0.21703E-04   -0.15636E-05  4116   0.575E-03    0.454E-03
RMM:  12    -0.413208807608E+03   -0.12892E-04   -0.82795E-06  3479   0.388E-03    0.345E-03
RMM:  13    -0.413208817752E+03   -0.10144E-04   -0.64664E-06  3127   0.341E-03    0.148E-03
RMM:  14    -0.413208820820E+03   -0.30679E-05   -0.43614E-06  2920   0.252E-03    0.119E-03
RMM:  15    -0.413208819959E+03    0.86125E-06   -0.43278E-06  2863   0.243E-03
  140 T=    66. E= -.41288336E+03 F= -.41320882E+03 E0= -.41318889E+03  EK= 0.32546E+00 SP= 0.00E+00 SK= 0.00E+00
       N       E                     dE             d eps       ncg     rms          rms(c)
RMM:   1    -0.413219481696E+03   -0.10661E-01   -0.75446E+00  4292   0.539E+00    0.733E-01
RMM:   2    -0.413213485791E+03    0.59959E-02   -0.16811E-01  5143   0.476E-01    0.584E-01
RMM:   3    -0.413229213060E+03   -0.15727E-01   -0.39042E-02  5639   0.213E-01    0.619E-01
RMM:   4    -0.413218803369E+03    0.10410E-01   -0.24995E-02  5230   0.164E-01    0.383E-01
RMM:   5    -0.413214557209E+03    0.42462E-02   -0.17930E-02  5265   0.165E-01    0.175E-01
RMM:   6    -0.413213222963E+03    0.13342E-02   -0.27618E-03  4779   0.728E-02    0.841E-02
RMM:   7    -0.413213126821E+03    0.96143E-04   -0.75338E-04  5388   0.349E-02    0.500E-02
RMM:   8    -0.413213114331E+03    0.12489E-04   -0.51878E-04  5498   0.267E-02    0.210E-02
RMM:   9    -0.413213119989E+03   -0.56578E-05   -0.84246E-05  5606   0.112E-02    0.139E-02
RMM:  10    -0.413213122224E+03   -0.22348E-05   -0.32485E-05  5329   0.724E-03    0.503E-03
RMM:  11    -0.413213126609E+03   -0.43851E-05   -0.61320E-06  3221   0.337E-03    0.311E-03
RMM:  12    -0.413213129185E+03   -0.25764E-05   -0.20315E-06  2636   0.239E-03    0.212E-03
RMM:  13    -0.413213129986E+03   -0.80103E-06   -0.12702E-06  2515   0.166E-03
  141 T=    69. E= -.41287339E+03 F= -.41321313E+03 E0= -.41319345E+03  EK= 0.33974E+00 SP= 0.00E+00 SK= 0.00E+00
       N       E                     dE             d eps       ncg     rms          rms(c)
RMM:   1    -0.413390601414E+03   -0.17747E+00   -0.90812E+00  4273   0.594E+00    0.632E-01
RMM:   2    -0.413383064271E+03    0.75371E-02   -0.19059E-01  5050   0.544E-01    0.634E-01
RMM:   3    -0.413382653738E+03    0.41053E-03   -0.44418E-02  5581   0.216E-01    0.611E-01
RMM:   4    -0.413373825369E+03    0.88284E-02   -0.11449E-02  5095   0.131E-01    0.337E-01
RMM:   5    -0.413375219003E+03   -0.13936E-02   -0.15132E-02  4981   0.150E-01    0.201E-01
RMM:   6    -0.413373845130E+03    0.13739E-02   -0.83372E-03  5012   0.110E-01    0.949E-02
RMM:   7    -0.413373547115E+03    0.29802E-03   -0.12337E-03  5297   0.474E-02    0.586E-02
RMM:   8    -0.413373446532E+03    0.10058E-03   -0.32545E-04  4735   0.230E-02    0.246E-02
RMM:   9    -0.413373444107E+03    0.24246E-05   -0.20498E-04  5054   0.165E-02    0.965E-03
RMM:  10    -0.413373443050E+03    0.10570E-05   -0.24192E-05  4624   0.587E-03    0.593E-03
RMM:  11    -0.413373441965E+03    0.10852E-05   -0.53615E-06  3184   0.327E-03    0.377E-03
RMM:  12    -0.413373441591E+03    0.37384E-06   -0.12367E-06  2494   0.204E-03
  142 T=   100. E= -.41288044E+03 F= -.41337344E+03 E0= -.41335393E+03  EK= 0.49300E+00 SP= 0.00E+00 SK= 0.00E+00
       N       E                     dE             d eps       ncg     rms          rms(c)
RMM:   1    -0.413644955575E+03   -0.27151E+00   -0.14559E+01  4264   0.757E+00    0.124E+00
RMM:   2    -0.413625814353E+03    0.19141E-01   -0.36386E-01  5102   0.778E-01    0.119E+00
RMM:   3    -0.413628307320E+03   -0.24930E-02   -0.10788E-01  5551   0.345E-01    0.116E+00
RMM:   4    -0.413598626456E+03    0.29681E-01   -0.45807E-02  5114   0.257E-01    0.563E-01
RMM:   5    -0.413601579236E+03   -0.29528E-02   -0.46360E-02  5042   0.259E-01    0.317E-01
RMM:   6    -0.413597081317E+03    0.44979E-02   -0.19228E-02  4990   0.168E-01    0.139E-01
RMM:   7    -0.413596252701E+03    0.82862E-03   -0.24154E-03  5013   0.707E-02    0.644E-02
RMM:   8    -0.413596170865E+03    0.81836E-04   -0.76465E-04  5449   0.334E-02    0.336E-02
RMM:   9    -0.413596158944E+03    0.11921E-04   -0.27802E-04  5071   0.203E-02    0.140E-02
RMM:  10    -0.413596160549E+03   -0.16049E-05   -0.51717E-05  5591   0.826E-03    0.896E-03
RMM:  11    -0.413596163974E+03   -0.34247E-05   -0.12167E-05  4109   0.458E-03    0.537E-03
RMM:  12    -0.413596170728E+03   -0.67547E-05   -0.40667E-06  2943   0.319E-03    0.318E-03
RMM:  13    -0.413596175313E+03   -0.45843E-05   -0.13282E-06  2547   0.198E-03    0.117E-03
RMM:  14    -0.413596179316E+03   -0.40037E-05   -0.81573E-07  2468   0.143E-03    0.676E-04
RMM:  15    -0.413596184397E+03   -0.50803E-05   -0.77971E-07  2351   0.126E-03    0.458E-04
RMM:  16    -0.413596188437E+03   -0.40401E-05   -0.54874E-07  2001   0.103E-03    0.274E-04
RMM:  17    -0.413596193254E+03   -0.48172E-05   -0.63941E-07  2130   0.104E-03    0.203E-04
RMM:  18    -0.413596197776E+03   -0.45223E-05   -0.59227E-07  1941   0.957E-04    0.124E-04
RMM:  19    -0.413596199999E+03   -0.22227E-05   -0.28433E-07  1474   0.741E-04    0.901E-05
RMM:  20    -0.413596201994E+03   -0.19949E-05   -0.18194E-07  1305   0.669E-04    0.544E-05
RMM:  21    -0.413596202845E+03   -0.85084E-06   -0.91423E-08  1061   0.597E-04
  143 T=   144. E= -.41289039E+03 F= -.41359620E+03 E0= -.41357683E+03  EK= 0.70581E+00 SP= 0.00E+00 SK= 0.00E+00
       N       E                     dE             d eps       ncg     rms          rms(c)
RMM:   1    -0.413815619690E+03   -0.21942E+00   -0.19214E+01  4282   0.866E+00    0.124E+00
RMM:   2    -0.413764973894E+03    0.50646E-01   -0.47202E-01  5129   0.895E-01    0.128E+00
RMM:   3    -0.413750602971E+03    0.14371E-01   -0.11757E-01  5626   0.369E-01    0.116E+00
RMM:   4    -0.413727154075E+03    0.23449E-01   -0.40208E-02  5165   0.242E-01    0.672E-01
RMM:   5    -0.413732329997E+03   -0.51759E-02   -0.53629E-02  5024   0.276E-01    0.393E-01
RMM:   6    -0.413726368182E+03    0.59618E-02   -0.28938E-02  4959   0.204E-01    0.171E-01
RMM:   7    -0.413725096814E+03    0.12714E-02   -0.40473E-03  5101   0.892E-02    0.779E-02
RMM:   8    -0.413724966898E+03    0.12992E-03   -0.10317E-03  5607   0.388E-02    0.413E-02
RMM:   9    -0.413724924706E+03    0.42192E-04   -0.35137E-04  4768   0.238E-02    0.147E-02
RMM:  10    -0.413724929923E+03   -0.52167E-05   -0.80869E-05  5782   0.104E-02    0.103E-02
RMM:  11    -0.413724934000E+03   -0.40775E-05   -0.14988E-05  4336   0.506E-03    0.614E-03
RMM:  12    -0.413724942448E+03   -0.84481E-05   -0.59079E-06  3234   0.361E-03    0.348E-03
RMM:  13    -0.413724948870E+03   -0.64217E-05   -0.17785E-06  2623   0.224E-03    0.139E-03
RMM:  14    -0.413724955186E+03   -0.63155E-05   -0.11583E-06  2524   0.166E-03    0.844E-04
RMM:  15    -0.413724962497E+03   -0.73110E-05   -0.11163E-06  2478   0.146E-03    0.521E-04
RMM:  16    -0.413724967629E+03   -0.51325E-05   -0.72204E-07  2124   0.113E-03    0.349E-04
RMM:  17    -0.413724973576E+03   -0.59465E-05   -0.83336E-07  2290   0.116E-03    0.284E-04
RMM:  18    -0.413724979303E+03   -0.57271E-05   -0.91268E-07  2082   0.111E-03    0.161E-04
RMM:  19    -0.413724981679E+03   -0.23758E-05   -0.36308E-07  1621   0.797E-04    0.113E-04
RMM:  20    -0.413724984248E+03   -0.25697E-05   -0.23785E-07  1447   0.713E-04    0.749E-05
RMM:  21    -0.413724985610E+03   -0.13622E-05   -0.12364E-07  1173   0.622E-04    0.518E-05
RMM:  22    -0.413724986662E+03   -0.10514E-05   -0.73014E-08  1026   0.586E-04    0.293E-05
RMM:  23    -0.413724987329E+03   -0.66681E-06   -0.50814E-08  1005   0.570E-04
  144 T=   170. E= -.41288821E+03 F= -.41372499E+03 E0= -.41370572E+03  EK= 0.83678E+00 SP= 0.00E+00 SK= 0.00E+00
       N       E                     dE             d eps       ncg     rms          rms(c)
RMM:   1    -0.413874295809E+03   -0.14931E+00   -0.20869E+01  4285   0.895E+00    0.105E+00
RMM:   2    -0.413814317488E+03    0.59978E-01   -0.51212E-01  5162   0.927E-01    0.121E+00
RMM:   3    -0.413782071779E+03    0.32246E-01   -0.11879E-01  5610   0.376E-01    0.990E-01
RMM:   4    -0.413763301952E+03    0.18770E-01   -0.36424E-02  5234   0.228E-01    0.636E-01
RMM:   5    -0.413765287929E+03   -0.19860E-02   -0.30360E-02  5014   0.212E-01    0.394E-01
RMM:   6    -0.413763467554E+03    0.18204E-02   -0.27923E-02  4962   0.203E-01    0.200E-01
RMM:   7    -0.413761591062E+03    0.18765E-02   -0.50360E-03  4823   0.991E-02    0.832E-02
RMM:   8    -0.413761511668E+03    0.79394E-04   -0.14934E-03  5936   0.443E-02    0.497E-02
RMM:   9    -0.413761412490E+03    0.99178E-04   -0.38982E-04  4510   0.255E-02    0.173E-02
RMM:  10    -0.413761415812E+03   -0.33219E-05   -0.12643E-04  5832   0.128E-02    0.107E-02
RMM:  11    -0.413761417987E+03   -0.21749E-05   -0.18963E-05  4516   0.545E-03    0.684E-03
RMM:  12    -0.413761423453E+03   -0.54665E-05   -0.73762E-06  3522   0.384E-03    0.343E-03
RMM:  13    -0.413761428532E+03   -0.50790E-05   -0.18797E-06  2641   0.231E-03    0.149E-03
RMM:  14    -0.413761433173E+03   -0.46406E-05   -0.10624E-06  2521   0.161E-03    0.958E-04
RMM:  15    -0.413761438599E+03   -0.54259E-05   -0.91193E-07  2393   0.139E-03    0.578E-04
RMM:  16    -0.413761443032E+03   -0.44329E-05   -0.65614E-07  2143   0.111E-03    0.359E-04
RMM:  17    -0.413761446248E+03   -0.32164E-05   -0.46042E-07  1889   0.925E-04    0.237E-04
RMM:  18    -0.413761451299E+03   -0.50503E-05   -0.86025E-07  2216   0.114E-03    0.184E-04
RMM:  19    -0.413761453377E+03   -0.20787E-05   -0.32051E-07  1477   0.766E-04    0.106E-04
RMM:  20    -0.413761455031E+03   -0.16534E-05   -0.20070E-07  1392   0.688E-04    0.628E-05
RMM:  21    -0.413761456206E+03   -0.11751E-05   -0.12418E-07  1217   0.618E-04    0.550E-05
RMM:  22    -0.413761457008E+03   -0.80197E-06   -0.72082E-08  1017   0.567E-04
  145 T=   179. E= -.41288200E+03 F= -.41376146E+03 E0= -.41374228E+03  EK= 0.87946E+00 SP= 0.00E+00 SK= 0.00E+00
       N       E                     dE             d eps       ncg     rms          rms(c)
RMM:   1    -0.413910308140E+03   -0.14885E+00   -0.20937E+01  4288   0.888E+00    0.113E+00
RMM:   2    -0.413866982303E+03    0.43326E-01   -0.58641E-01  5196   0.987E-01    0.132E+00
RMM:   3    -0.413818135983E+03    0.48846E-01   -0.16026E-01  5490   0.443E-01    0.105E+00
RMM:   4    -0.413783575383E+03    0.34561E-01   -0.69789E-02  5205   0.309E-01    0.577E-01
RMM:   5    -0.413782229315E+03    0.13461E-02   -0.22005E-02  5059   0.189E-01    0.364E-01
RMM:   6    -0.413782694942E+03   -0.46563E-03   -0.24040E-02  4984   0.187E-01    0.223E-01
RMM:   7    -0.413780659292E+03    0.20357E-02   -0.54523E-03  4661   0.105E-01    0.841E-02
RMM:   8    -0.413780654722E+03    0.45699E-05   -0.16728E-03  5965   0.464E-02    0.534E-02
RMM:   9    -0.413780568438E+03    0.86284E-04   -0.45205E-04  4507   0.276E-02    0.233E-02
RMM:  10    -0.413780561635E+03    0.68033E-05   -0.10902E-04  5646   0.125E-02    0.123E-02
RMM:  11    -0.413780562538E+03   -0.90324E-06   -0.32855E-05  5200   0.669E-03    0.695E-03
RMM:  12    -0.413780564778E+03   -0.22400E-05   -0.64957E-06  3309   0.379E-03    0.366E-03
RMM:  13    -0.413780567167E+03   -0.23883E-05   -0.20887E-06  2666   0.226E-03    0.149E-03
RMM:  14    -0.413780569476E+03   -0.23090E-05   -0.89039E-07  2470   0.153E-03    0.847E-04
RMM:  15    -0.413780571482E+03   -0.20069E-05   -0.59917E-07  2278   0.121E-03    0.495E-04
RMM:  16    -0.413780573525E+03   -0.20429E-05   -0.48666E-07  2094   0.102E-03    0.300E-04
RMM:  17    -0.413780575052E+03   -0.15265E-05   -0.34944E-07  1763   0.861E-04    0.184E-04
RMM:  18    -0.413780576402E+03   -0.13506E-05   -0.32396E-07  1768   0.820E-04    0.142E-04
RMM:  19    -0.413780577411E+03   -0.10086E-05   -0.23978E-07  1475   0.733E-04    0.960E-05
RMM:  20    -0.413780577885E+03   -0.47433E-06   -0.13409E-07  1209   0.639E-04
  146 T=   184. E= -.41287782E+03 F= -.41378058E+03 E0= -.41376148E+03  EK= 0.90275E+00 SP= 0.00E+00 SK= 0.00E+00
       N       E                     dE             d eps       ncg     rms          rms(c)
RMM:   1    -0.413994618351E+03   -0.21404E+00   -0.21269E+01  4288   0.880E+00    0.145E+00
RMM:   2    -0.413980312450E+03    0.14306E-01   -0.80556E-01  5289   0.113E+00    0.168E+00
RMM:   3    -0.413913449456E+03    0.66863E-01   -0.25997E-01  5403   0.561E-01    0.140E+00
RMM:   4    -0.413839829755E+03    0.73620E-01   -0.13322E-01  5178   0.426E-01    0.613E-01
RMM:   5    -0.413837720563E+03    0.21092E-02   -0.36454E-02  5265   0.240E-01    0.378E-01
RMM:   6    -0.413836514093E+03    0.12065E-02   -0.28558E-02  4995   0.202E-01    0.238E-01
RMM:   7    -0.413834718718E+03    0.17954E-02   -0.54258E-03  4603   0.108E-01    0.957E-02
RMM:   8    -0.413834669324E+03    0.49394E-04   -0.12988E-03  5601   0.453E-02    0.576E-02
RMM:   9    -0.413834646832E+03    0.22492E-04   -0.61732E-04  5007   0.306E-02    0.326E-02
RMM:  10    -0.413834621494E+03    0.25339E-04   -0.11250E-04  5115   0.139E-02    0.166E-02
RMM:  11    -0.413834619964E+03    0.15297E-05   -0.69388E-05  5630   0.941E-03    0.811E-03
RMM:  12    -0.413834620527E+03   -0.56314E-06   -0.10775E-05  3900   0.445E-03    0.479E-03
RMM:  13    -0.413834621388E+03   -0.86074E-06   -0.30297E-06  2754   0.272E-03
  147 T=   195. E= -.41287813E+03 F= -.41383462E+03 E0= -.41381531E+03  EK= 0.95649E+00 SP= 0.00E+00 SK= 0.00E+00
       N       E                     dE             d eps       ncg     rms          rms(c)
RMM:   1    -0.414146441903E+03   -0.31182E+00   -0.23094E+01  4285   0.885E+00    0.166E+00
RMM:   2    -0.414110655228E+03    0.35787E-01   -0.10900E+00  5392   0.130E+00    0.201E+00
RMM:   3    -0.414032195744E+03    0.78459E-01   -0.33286E-01  5359   0.643E-01    0.170E+00
RMM:   4    -0.413929275600E+03    0.10292E+00   -0.16459E-01  5211   0.481E-01    0.722E-01
RMM:   5    -0.413926833076E+03    0.24425E-02   -0.49398E-02  5367   0.280E-01    0.420E-01
RMM:   6    -0.413925514744E+03    0.13183E-02   -0.44038E-02  5094   0.243E-01    0.269E-01
RMM:   7    -0.413922429570E+03    0.30852E-02   -0.82840E-03  4749   0.129E-01    0.109E-01
RMM:   8    -0.413922356043E+03    0.73527E-04   -0.17226E-03  5484   0.531E-02    0.659E-02
RMM:   9    -0.413922336783E+03    0.19260E-04   -0.68772E-04  5084   0.328E-02    0.342E-02
RMM:  10    -0.413922317601E+03    0.19183E-04   -0.15099E-04  5114   0.162E-02    0.171E-02
RMM:  11    -0.413922318618E+03   -0.10176E-05   -0.87247E-05  5785   0.108E-02    0.979E-03
RMM:  12    -0.413922320819E+03   -0.22009E-05   -0.15149E-05  4393   0.516E-03    0.646E-03
RMM:  13    -0.413922322411E+03   -0.15920E-05   -0.65116E-06  3420   0.360E-03    0.274E-03
RMM:  14    -0.413922324259E+03   -0.18472E-05   -0.17338E-06  2595   0.212E-03    0.116E-03
RMM:  15    -0.413922325487E+03   -0.12283E-05   -0.79908E-07  2457   0.148E-03    0.576E-04
RMM:  16    -0.413922326249E+03   -0.76223E-06   -0.55322E-07  2230   0.114E-03
  148 T=   211. E= -.41288371E+03 F= -.41392233E+03 E0= -.41390192E+03  EK= 0.10386E+01 SP= 0.00E+00 SK= 0.00E+00
       N       E                     dE             d eps       ncg     rms          rms(c)
RMM:   1    -0.414300648818E+03   -0.37832E+00   -0.26807E+01  4280   0.914E+00    0.166E+00
RMM:   2    -0.414077410247E+03    0.22324E+00   -0.11545E+00  5425   0.136E+00    0.189E+00
RMM:   3    -0.414077482648E+03   -0.72401E-04   -0.29173E-01  5508   0.606E-01    0.181E+00
RMM:   4    -0.413975002151E+03    0.10248E+00   -0.12333E-01  5246   0.420E-01    0.927E-01
RMM:   5    -0.413968365381E+03    0.66368E-02   -0.53836E-02  4879   0.312E-01    0.411E-01
RMM:   6    -0.413969629174E+03   -0.12638E-02   -0.53688E-02  5168   0.269E-01    0.269E-01
RMM:   7    -0.413964923404E+03    0.47058E-02   -0.11860E-02  5009   0.143E-01    0.111E-01
RMM:   8    -0.413964788665E+03    0.13474E-03   -0.21126E-03  5606   0.568E-02    0.749E-02
RMM:   9    -0.413964650892E+03    0.13777E-03   -0.75141E-04  4434   0.371E-02    0.223E-02
RMM:  10    -0.413964672276E+03   -0.21383E-04   -0.24826E-04  5807   0.186E-02    0.164E-02
RMM:  11    -0.413964674515E+03   -0.22397E-05   -0.41847E-05  4871   0.825E-03    0.777E-03
RMM:  12    -0.413964679472E+03   -0.49568E-05   -0.11728E-05  3791   0.435E-03    0.382E-03
RMM:  13    -0.413964685840E+03   -0.63676E-05   -0.37338E-06  2866   0.300E-03    0.215E-03
RMM:  14    -0.413964690063E+03   -0.42235E-05   -0.16051E-06  2616   0.201E-03    0.112E-03
RMM:  15    -0.413964693170E+03   -0.31063E-05   -0.94430E-07  2518   0.147E-03    0.612E-04
RMM:  16    -0.413964695359E+03   -0.21892E-05   -0.63519E-07  2161   0.113E-03    0.387E-04
RMM:  17    -0.413964697852E+03   -0.24936E-05   -0.70864E-07  2229   0.111E-03    0.311E-04
RMM:  18    -0.413964699207E+03   -0.13545E-05   -0.40312E-07  1641   0.864E-04    0.165E-04
RMM:  19    -0.413964700074E+03   -0.86701E-06   -0.28360E-07  1564   0.786E-04
  149 T=   216. E= -.41290464E+03 F= -.41396470E+03 E0= -.41394341E+03  EK= 0.10601E+01 SP= 0.00E+00 SK= 0.00E+00
       N       E                     dE             d eps       ncg     rms          rms(c)
RMM:   1    -0.414072589090E+03   -0.10789E+00   -0.27822E+01  4264   0.911E+00    0.223E+00
RMM:   2    -0.413738301417E+03    0.33429E+00   -0.10738E+00  5425   0.132E+00    0.216E+00
RMM:   3    -0.413738779414E+03   -0.47800E-03   -0.17065E-01  5381   0.496E-01    0.165E+00
RMM:   4    -0.413954762013E+03   -0.21598E+00   -0.32436E-01  5329   0.531E-01    0.218E+00
RMM:   5    -0.413718085074E+03    0.23668E+00   -0.19684E-01  4643   0.553E-01    0.434E-01
RMM:   6    -0.413714130720E+03    0.39544E-02   -0.43220E-02  5496   0.249E-01    0.185E-01
RMM:   7    -0.413713736161E+03    0.39456E-03   -0.65548E-03  5464   0.903E-02    0.114E-01
RMM:   8    -0.413713615623E+03    0.12054E-03   -0.21033E-03  5308   0.520E-02    0.698E-02
RMM:   9    -0.413713472944E+03    0.14268E-03   -0.11128E-03  5077   0.410E-02    0.312E-02
RMM:  10    -0.413713473089E+03   -0.14461E-06   -0.27697E-04  5916   0.204E-02    0.194E-02
RMM:  11    -0.413713475060E+03   -0.19710E-05   -0.71321E-05  5572   0.965E-03    0.115E-02
RMM:  12    -0.413713479693E+03   -0.46329E-05   -0.18853E-05  4607   0.581E-03    0.586E-03
RMM:  13    -0.413713486027E+03   -0.63348E-05   -0.51087E-06  3046   0.360E-03    0.348E-03
RMM:  14    -0.413713491140E+03   -0.51123E-05   -0.20230E-06  2657   0.232E-03    0.135E-03
RMM:  15    -0.413713494805E+03   -0.36657E-05   -0.10799E-06  2552   0.160E-03    0.802E-04
RMM:  16    -0.413713498100E+03   -0.32943E-05   -0.69841E-07  2320   0.120E-03    0.526E-04
RMM:  17    -0.413713501054E+03   -0.29542E-05   -0.59572E-07  1988   0.103E-03    0.301E-04
RMM:  18    -0.413713503772E+03   -0.27179E-05   -0.57061E-07  2000   0.980E-04    0.212E-04
RMM:  19    -0.413713506072E+03   -0.23001E-05   -0.49998E-07  1794   0.897E-04    0.160E-04
RMM:  20    -0.413713507393E+03   -0.13214E-05   -0.29909E-07  1436   0.743E-04    0.109E-04
RMM:  21    -0.413713508204E+03   -0.81093E-06   -0.17435E-07  1221   0.660E-04
  150 T=   161. E= -.41292136E+03 F= -.41371351E+03 E0= -.41369272E+03  EK= 0.79215E+00 SP= 0.00E+00 SK= 0.00E+00
