       N       E                     dE             d eps       ncg     rms          rms(c)
RMM:   1     0.220191872573E+04    0.22019E+04   -0.52441E+04  2132   0.654E+02
RMM:   2     0.705560452443E+03   -0.14964E+04   -0.16265E+04  2132   0.177E+02
RMM:   3     0.137611212675E+03   -0.56795E+03   -0.65680E+03  2132   0.117E+02
RMM:   4    -0.159379966480E+03   -0.29699E+03   -0.27838E+03  2132   0.936E+01
RMM:   5    -0.287457632524E+03   -0.12808E+03   -0.11449E+03  2132   0.595E+01
RMM:   6    -0.349766010753E+03   -0.62308E+02   -0.55130E+02  2132   0.423E+01
RMM:   7    -0.382630977752E+03   -0.32865E+02   -0.30407E+02  2132   0.293E+01
RMM:   8    -0.404231228692E+03   -0.21600E+02   -0.18487E+02  2132   0.234E+01
RMM:   9    -0.436035359854E+03   -0.31804E+02   -0.30662E+02  6109   0.173E+01
RMM:  10    -0.441323641454E+03   -0.52883E+01   -0.63177E+01  6395   0.539E+00
RMM:  11    -0.442516827575E+03   -0.11932E+01   -0.10955E+01  6206   0.172E+00
RMM:  12    -0.442888621272E+03   -0.37179E+00   -0.27388E+00  6371   0.601E-01    0.134E+02
RMM:  13    -0.425580257214E+03    0.17308E+02   -0.81006E+01  4674   0.119E+01    0.712E+01
RMM:  14    -0.499082390486E+03   -0.73502E+02   -0.53976E+02  5423   0.232E+01    0.307E+01
RMM:  15    -0.414324438789E+03    0.84758E+02   -0.19617E+02  5068   0.163E+01    0.613E+00
RMM:  16    -0.414067092452E+03    0.25735E+00   -0.39282E+01  6075   0.603E+00    0.430E+00
RMM:  17    -0.413223955704E+03    0.84314E+00   -0.23703E+00  5332   0.182E+00    0.248E+00
RMM:  18    -0.413165111832E+03    0.58844E-01   -0.89334E-01  5959   0.975E-01    0.160E+00
RMM:  19    -0.413169340800E+03   -0.42290E-02   -0.28522E-01  5708   0.565E-01    0.868E-01
RMM:  20    -0.413188315329E+03   -0.18975E-01   -0.24204E-01  5390   0.534E-01    0.599E-01
RMM:  21    -0.413168346305E+03    0.19969E-01   -0.38177E-02  4974   0.248E-01    0.268E-01
RMM:  22    -0.413166497965E+03    0.18483E-02   -0.16663E-02  6081   0.110E-01    0.151E-01
RMM:  23    -0.413164799123E+03    0.16988E-02   -0.60041E-03  5915   0.708E-02    0.830E-02
RMM:  24    -0.413163280512E+03    0.15186E-02   -0.16420E-03  5365   0.401E-02    0.419E-02
RMM:  25    -0.413162832249E+03    0.44826E-03   -0.87601E-04  5810   0.258E-02    0.295E-02
RMM:  26    -0.413162950610E+03   -0.11836E-03   -0.75624E-04  5833   0.283E-02    0.334E-02
RMM:  27    -0.413163325666E+03   -0.37506E-03   -0.18926E-04  4584   0.195E-02    0.194E-02
RMM:  28    -0.413163787235E+03   -0.46157E-03   -0.21606E-04  5231   0.207E-02    0.904E-03
RMM:  29    -0.413164135026E+03   -0.34779E-03   -0.99828E-05  4377   0.146E-02    0.416E-03
RMM:  30    -0.413164360966E+03   -0.22594E-03   -0.83972E-05  4188   0.105E-02    0.341E-03
RMM:  31    -0.413164467021E+03   -0.10605E-03   -0.51460E-05  3150   0.642E-03    0.263E-03
RMM:  32    -0.413164487636E+03   -0.20614E-04   -0.20035E-05  2936   0.300E-03    0.146E-03
RMM:  33    -0.413164493509E+03   -0.58732E-05   -0.87864E-06  2784   0.210E-03    0.550E-04
RMM:  34    -0.413164493833E+03   -0.32414E-06   -0.41191E-06  2617   0.155E-03
    1 T=    61. E= -.41286670E+03 F= -.41316449E+03 E0= -.41314200E+03  EK= 0.29779E+00 SP= 0.00E+00 SK= 0.00E+00
       N       E                     dE             d eps       ncg     rms          rms(c)
RMM:   1    -0.413170539852E+03   -0.60463E-02   -0.70478E+00  3997   0.529E-01    0.898E-01
RMM:   2    -0.413170603237E+03   -0.63385E-04   -0.89083E-02  3952   0.777E-02    0.660E-01
RMM:   3    -0.413165899148E+03    0.47041E-02   -0.38237E-02  4976   0.667E-02    0.220E-01
RMM:   4    -0.413189039610E+03   -0.23140E-01   -0.29065E-02  5183   0.143E-01    0.655E-01
RMM:   5    -0.413164006191E+03    0.25033E-01   -0.12098E-02  4822   0.111E-01    0.496E-02
RMM:   6    -0.413164176717E+03   -0.17053E-03   -0.22039E-03  5706   0.461E-02    0.335E-02
RMM:   7    -0.413164187600E+03   -0.10884E-04   -0.40690E-04  5753   0.180E-02    0.209E-02
RMM:   8    -0.413164187934E+03   -0.33385E-06   -0.45791E-05  5052   0.753E-03    0.799E-03
RMM:   9    -0.413164191138E+03   -0.32042E-05   -0.10108E-05  3378   0.326E-03    0.563E-03
RMM:  10    -0.413164196756E+03   -0.56180E-05   -0.21428E-06  2589   0.214E-03    0.329E-03
RMM:  11    -0.413164200956E+03   -0.41995E-05   -0.11965E-06  2512   0.157E-03    0.168E-03
RMM:  12    -0.413164206871E+03   -0.59153E-05   -0.12299E-06  2509   0.154E-03    0.769E-04
RMM:  13    -0.413164209579E+03   -0.27079E-05   -0.61736E-07  2259   0.112E-03    0.524E-04
RMM:  14    -0.413164209815E+03   -0.23621E-06   -0.34101E-07  1735   0.800E-04
    2 T=    61. E= -.41286648E+03 F= -.41316421E+03 E0= -.41314171E+03  EK= 0.29773E+00 SP= 0.00E+00 SK= 0.00E+00
       N       E                     dE             d eps       ncg     rms          rms(c)
RMM:   1    -0.413171590729E+03   -0.73811E-02   -0.70117E+00  4185   0.530E-01    0.913E-01
RMM:   2    -0.413170881085E+03    0.70964E-03   -0.89203E-02  3985   0.781E-02    0.659E-01
RMM:   3    -0.413166740852E+03    0.41402E-02   -0.35371E-02  5035   0.663E-02    0.212E-01
RMM:   4    -0.413193431804E+03   -0.26691E-01   -0.33678E-02  5145   0.155E-01    0.702E-01
RMM:   5    -0.413164591576E+03    0.28840E-01   -0.13301E-02  4783   0.118E-01    0.504E-02
RMM:   6    -0.413164790717E+03   -0.19914E-03   -0.24662E-03  5708   0.490E-02    0.359E-02
RMM:   7    -0.413164779426E+03    0.11291E-04   -0.44042E-04  5642   0.198E-02    0.232E-02
RMM:   8    -0.413164771139E+03    0.82872E-05   -0.57971E-05  5233   0.885E-03    0.100E-02
RMM:   9    -0.413164769849E+03    0.12900E-05   -0.11855E-05  3727   0.382E-03    0.673E-03
RMM:  10    -0.413164770366E+03   -0.51768E-06   -0.21745E-06  2590   0.232E-03
    3 T=    61. E= -.41286678E+03 F= -.41316477E+03 E0= -.41314227E+03  EK= 0.29799E+00 SP= 0.00E+00 SK= 0.00E+00
       N       E                     dE             d eps       ncg     rms          rms(c)
RMM:   1    -0.413171001882E+03   -0.62320E-02   -0.69652E+00  4217   0.535E-01    0.899E-01
RMM:   2    -0.413170475961E+03    0.52592E-03   -0.88722E-02  4208   0.762E-02    0.653E-01
RMM:   3    -0.413173543343E+03   -0.30674E-02   -0.40121E-02  5178   0.101E-01    0.410E-01
RMM:   4    -0.413180834552E+03   -0.72912E-02   -0.33357E-02  5090   0.159E-01    0.537E-01
RMM:   5    -0.413164518504E+03    0.16316E-01   -0.64456E-03  4606   0.898E-02    0.523E-02
RMM:   6    -0.413164536724E+03   -0.18220E-04   -0.12638E-03  5361   0.355E-02    0.313E-02
RMM:   7    -0.413164547899E+03   -0.11175E-04   -0.25394E-04  5723   0.152E-02    0.183E-02
RMM:   8    -0.413164545659E+03    0.22391E-05   -0.39704E-05  5004   0.755E-03    0.691E-03
RMM:   9    -0.413164545394E+03    0.26594E-06   -0.46488E-06  2892   0.284E-03
    4 T=    61. E= -.41286656E+03 F= -.41316455E+03 E0= -.41314206E+03  EK= 0.29799E+00 SP= 0.00E+00 SK= 0.00E+00
       N       E                     dE             d eps       ncg     rms          rms(c)
RMM:   1    -0.413170954046E+03   -0.64084E-02   -0.70451E+00  4238   0.542E-01    0.895E-01
RMM:   2    -0.413170829297E+03    0.12475E-03   -0.89355E-02  4090   0.747E-02    0.659E-01
RMM:   3    -0.413170359034E+03    0.47026E-03   -0.40545E-02  5125   0.868E-02    0.342E-01
RMM:   4    -0.413187224079E+03   -0.16865E-01   -0.35216E-02  5101   0.161E-01    0.630E-01
RMM:   5    -0.413164567624E+03    0.22656E-01   -0.98649E-03  4691   0.105E-01    0.518E-02
RMM:   6    -0.413164672360E+03   -0.10474E-03   -0.17855E-03  5566   0.421E-02    0.315E-02
RMM:   7    -0.413164692504E+03   -0.20144E-04   -0.33071E-04  5785   0.164E-02    0.198E-02
RMM:   8    -0.413164692716E+03   -0.21195E-06   -0.44062E-05  5037   0.782E-03    0.751E-03
RMM:   9    -0.413164694824E+03   -0.21086E-05   -0.67884E-06  3141   0.311E-03    0.441E-03
RMM:  10    -0.413164699462E+03   -0.46380E-05   -0.16650E-06  2548   0.205E-03    0.270E-03
RMM:  11    -0.413164703098E+03   -0.36355E-05   -0.92622E-07  2497   0.152E-03    0.135E-03
RMM:  12    -0.413164707674E+03   -0.45757E-05   -0.97165E-07  2505   0.140E-03    0.647E-04
RMM:  13    -0.413164709969E+03   -0.22958E-05   -0.51750E-07  2125   0.105E-03    0.380E-04
RMM:  14    -0.413164710520E+03   -0.55086E-06   -0.23673E-07  1608   0.790E-04
    5 T=    61. E= -.41286656E+03 F= -.41316471E+03 E0= -.41314223E+03  EK= 0.29815E+00 SP= 0.00E+00 SK= 0.00E+00
       N       E                     dE             d eps       ncg     rms          rms(c)
RMM:   1    -0.413171858017E+03   -0.71480E-02   -0.70278E+00  4245   0.544E-01    0.910E-01
RMM:   2    -0.413171127301E+03    0.73072E-03   -0.89265E-02  4049   0.748E-02    0.660E-01
RMM:   3    -0.413167643474E+03    0.34838E-02   -0.36243E-02  5048   0.679E-02    0.234E-01
RMM:   4    -0.413193875347E+03   -0.26232E-01   -0.35017E-02  5126   0.158E-01    0.703E-01
RMM:   5    -0.413164995755E+03    0.28880E-01   -0.13211E-02  4752   0.118E-01    0.512E-02
RMM:   6    -0.413165184494E+03   -0.18874E-03   -0.23942E-03  5670   0.485E-02    0.351E-02
RMM:   7    -0.413165179383E+03    0.51104E-05   -0.42572E-04  5665   0.192E-02    0.227E-02
RMM:   8    -0.413165172841E+03    0.65422E-05   -0.56971E-05  5225   0.858E-03    0.958E-03
RMM:   9    -0.413165171233E+03    0.16085E-05   -0.10562E-05  3634   0.370E-03    0.620E-03
RMM:  10    -0.413165171805E+03   -0.57266E-06   -0.19844E-06  2558   0.227E-03
    6 T=    61. E= -.41286673E+03 F= -.41316517E+03 E0= -.41314271E+03  EK= 0.29844E+00 SP= 0.00E+00 SK= 0.00E+00
       N       E                     dE             d eps       ncg     rms          rms(c)
RMM:   1    -0.413171486927E+03   -0.63157E-02   -0.69838E+00  4257   0.548E-01    0.905E-01
RMM:   2    -0.413170899906E+03    0.58702E-03   -0.88912E-02  4228   0.756E-02    0.654E-01
RMM:   3    -0.413172514303E+03   -0.16144E-02   -0.38708E-02  5150   0.945E-02    0.377E-01
RMM:   4    -0.413183263041E+03   -0.10749E-01   -0.33919E-02  5078   0.159E-01    0.567E-01
RMM:   5    -0.413164883593E+03    0.18379E-01   -0.73502E-03  4639   0.946E-02    0.525E-02
RMM:   6    -0.413164927255E+03   -0.43661E-04   -0.14106E-03  5419   0.376E-02    0.320E-02
RMM:   7    -0.413164945376E+03   -0.18121E-04   -0.27651E-04  5742   0.158E-02    0.191E-02
RMM:   8    -0.413164939472E+03    0.59039E-05   -0.43128E-05  4998   0.800E-03    0.726E-03
RMM:   9    -0.413164937508E+03    0.19639E-05   -0.56984E-06  2988   0.304E-03    0.386E-03
RMM:  10    -0.413164937112E+03    0.39626E-06   -0.14613E-06  2525   0.196E-03
    7 T=    61. E= -.41286647E+03 F= -.41316494E+03 E0= -.41314249E+03  EK= 0.29846E+00 SP= 0.00E+00 SK= 0.00E+00
       N       E                     dE             d eps       ncg     rms          rms(c)
RMM:   1    -0.413171712812E+03   -0.67753E-02   -0.70349E+00  4267   0.555E-01    0.894E-01
RMM:   2    -0.413171865553E+03   -0.15274E-03   -0.89038E-02  4107   0.763E-02    0.657E-01
RMM:   3    -0.413168791028E+03    0.30745E-02   -0.38584E-02  5042   0.760E-02    0.272E-01
RMM:   4    -0.413193004400E+03   -0.24213E-01   -0.35283E-02  5111   0.159E-01    0.690E-01
RMM:   5    -0.413165363662E+03    0.27641E-01   -0.12575E-02  4740   0.116E-01    0.505E-02
RMM:   6    -0.413165545633E+03   -0.18197E-03   -0.22823E-03  5660   0.473E-02    0.337E-02
RMM:   7    -0.413165550488E+03   -0.48553E-05   -0.40340E-04  5656   0.190E-02    0.220E-02
RMM:   8    -0.413165544818E+03    0.56695E-05   -0.55168E-05  5138   0.871E-03    0.910E-03
RMM:   9    -0.413165544736E+03    0.82029E-07   -0.10476E-05  3520   0.366E-03    0.583E-03
RMM:  10    -0.413165547396E+03   -0.26601E-05   -0.19623E-06  2571   0.224E-03    0.346E-03
RMM:  11    -0.413165549388E+03   -0.19919E-05   -0.98065E-07  2509   0.158E-03    0.187E-03
RMM:  12    -0.413165552461E+03   -0.30730E-05   -0.12963E-06  2524   0.167E-03    0.905E-04
RMM:  13    -0.413165553779E+03   -0.13180E-05   -0.66105E-07  2352   0.123E-03    0.687E-04
RMM:  14    -0.413165553579E+03    0.19982E-06   -0.23960E-07  1814   0.828E-04
    8 T=    61. E= -.41286676E+03 F= -.41316555E+03 E0= -.41314312E+03  EK= 0.29879E+00 SP= 0.00E+00 SK= 0.00E+00
       N       E                     dE             d eps       ncg     rms          rms(c)
RMM:   1    -0.413172280808E+03   -0.67270E-02   -0.70488E+00  4280   0.557E-01    0.907E-01
RMM:   2    -0.413172000972E+03    0.27984E-03   -0.89163E-02  4138   0.780E-02    0.661E-01
RMM:   3    -0.413167983787E+03    0.40172E-02   -0.36940E-02  4998   0.701E-02    0.233E-01
RMM:   4    -0.413194219381E+03   -0.26236E-01   -0.33965E-02  5114   0.156E-01    0.702E-01
RMM:   5    -0.413165521014E+03    0.28698E-01   -0.13323E-02  4774   0.117E-01    0.496E-02
RMM:   6    -0.413165715342E+03   -0.19433E-03   -0.23786E-03  5698   0.482E-02    0.352E-02
RMM:   7    -0.413165712462E+03    0.28805E-05   -0.42175E-04  5614   0.194E-02    0.226E-02
RMM:   8    -0.413165706191E+03    0.62711E-05   -0.55552E-05  5173   0.860E-03    0.969E-03
RMM:   9    -0.413165704759E+03    0.14316E-05   -0.10884E-05  3640   0.374E-03    0.646E-03
RMM:  10    -0.413165705714E+03   -0.95466E-06   -0.19518E-06  2557   0.226E-03
    9 T=    61. E= -.41286667E+03 F= -.41316571E+03 E0= -.41314330E+03  EK= 0.29903E+00 SP= 0.00E+00 SK= 0.00E+00
       N       E                     dE             d eps       ncg     rms          rms(c)
RMM:   1    -0.413172511133E+03   -0.68064E-02   -0.70115E+00  4292   0.561E-01    0.911E-01
RMM:   2    -0.413171874838E+03    0.63629E-03   -0.89413E-02  4294   0.784E-02    0.657E-01
RMM:   3    -0.413174109062E+03   -0.22342E-02   -0.39202E-02  5131   0.997E-02    0.394E-01
RMM:   4    -0.413183014945E+03   -0.89059E-02   -0.33595E-02  5064   0.159E-01    0.550E-01
RMM:   5    -0.413165764617E+03    0.17250E-01   -0.67309E-03  4626   0.914E-02    0.525E-02
RMM:   6    -0.413165791286E+03   -0.26669E-04   -0.13551E-03  5387   0.363E-02    0.321E-02
RMM:   7    -0.413165796741E+03   -0.54550E-05   -0.26598E-04  5696   0.155E-02    0.189E-02
RMM:   8    -0.413165791358E+03    0.53830E-05   -0.41373E-05  4991   0.771E-03    0.713E-03
RMM:   9    -0.413165788708E+03    0.26497E-05   -0.50362E-06  2919   0.293E-03    0.377E-03
RMM:  10    -0.413165787113E+03    0.15956E-05   -0.14469E-06  2522   0.194E-03    0.226E-03
RMM:  11    -0.413165785355E+03    0.17579E-05   -0.88564E-07  2459   0.148E-03    0.111E-03
RMM:  12    -0.413165782901E+03    0.24535E-05   -0.73689E-07  2450   0.127E-03    0.509E-04
RMM:  13    -0.413165781217E+03    0.16840E-05   -0.36057E-07  1928   0.940E-04    0.311E-04
RMM:  14    -0.413165779634E+03    0.15831E-05   -0.22245E-07  1518   0.769E-04    0.189E-04
RMM:  15    -0.413165776376E+03    0.32583E-05   -0.32142E-07  1825   0.821E-04    0.296E-04
RMM:  16    -0.413165773222E+03    0.31537E-05   -0.24252E-07  1380   0.700E-04    0.189E-04
RMM:  17    -0.413165772238E+03    0.98398E-06   -0.92748E-08  1004   0.578E-04
   10 T=    61. E= -.41286651E+03 F= -.41316577E+03 E0= -.41314339E+03  EK= 0.29926E+00 SP= 0.00E+00 SK= 0.00E+00
       N       E                     dE             d eps       ncg     rms          rms(c)
RMM:   1    -0.413172838935E+03   -0.70657E-02   -0.70226E+00  4291   0.567E-01    0.894E-01
RMM:   2    -0.413172690632E+03    0.14830E-03   -0.89126E-02  4218   0.774E-02    0.656E-01
RMM:   3    -0.413169183322E+03    0.35073E-02   -0.37565E-02  5024   0.704E-02    0.248E-01
RMM:   4    -0.413194789763E+03   -0.25606E-01   -0.34673E-02  5109   0.157E-01    0.699E-01
RMM:   5    -0.413166363341E+03    0.28426E-01   -0.13175E-02  4753   0.117E-01    0.498E-02
RMM:   6    -0.413166545433E+03   -0.18209E-03   -0.23375E-03  5667   0.477E-02    0.346E-02
RMM:   7    -0.413166545968E+03   -0.53491E-06   -0.41307E-04  5583   0.190E-02    0.222E-02
RMM:   8    -0.413166542414E+03    0.35537E-05   -0.55246E-05  5192   0.846E-03    0.939E-03
RMM:   9    -0.413166542087E+03    0.32763E-06   -0.10408E-05  3627   0.370E-03    0.616E-03
RMM:  10    -0.413166544279E+03   -0.21928E-05   -0.19111E-06  2551   0.222E-03    0.366E-03
RMM:  11    -0.413166545542E+03   -0.12628E-05   -0.89285E-07  2487   0.155E-03    0.203E-03
RMM:  12    -0.413166547529E+03   -0.19871E-05   -0.12598E-06  2510   0.168E-03    0.998E-04
RMM:  13    -0.413166548171E+03   -0.64170E-06   -0.57409E-07  2349   0.123E-03
   11 T=    61. E= -.41286683E+03 F= -.41316655E+03 E0= -.41314419E+03  EK= 0.29972E+00 SP= 0.00E+00 SK= 0.00E+00
       N       E                     dE             d eps       ncg     rms          rms(c)
RMM:   1    -0.413173042975E+03   -0.64954E-02   -0.70766E+00  4293   0.572E-01    0.904E-01
RMM:   2    -0.413172645106E+03    0.39787E-03   -0.89707E-02  4229   0.776E-02    0.663E-01
RMM:   3    -0.413168807123E+03    0.38380E-02   -0.37776E-02  5000   0.681E-02    0.238E-01
RMM:   4    -0.413194837219E+03   -0.26030E-01   -0.33836E-02  5113   0.155E-01    0.700E-01
RMM:   5    -0.413166304759E+03    0.28532E-01   -0.13333E-02  4760   0.117E-01    0.489E-02
RMM:   6    -0.413166505921E+03   -0.20116E-03   -0.24073E-03  5721   0.480E-02    0.346E-02
RMM:   7    -0.413166500436E+03    0.54843E-05   -0.41488E-04  5614   0.195E-02    0.226E-02
RMM:   8    -0.413166494812E+03    0.56243E-05   -0.56487E-05  5116   0.864E-03    0.995E-03
RMM:   9    -0.413166493828E+03    0.98442E-06   -0.11062E-05  3649   0.379E-03    0.671E-03
RMM:  10    -0.413166495187E+03   -0.13591E-05   -0.19410E-06  2554   0.225E-03    0.394E-03
RMM:  11    -0.413166496074E+03   -0.88752E-06   -0.10109E-06  2491   0.164E-03
   12 T=    61. E= -.41286652E+03 F= -.41316650E+03 E0= -.41314417E+03  EK= 0.29997E+00 SP= 0.00E+00 SK= 0.00E+00
       N       E                     dE             d eps       ncg     rms          rms(c)
RMM:   1    -0.413173997908E+03   -0.75027E-02   -0.70426E+00  4296   0.575E-01    0.915E-01
RMM:   2    -0.413172987274E+03    0.10106E-02   -0.89783E-02  4237   0.755E-02    0.659E-01
RMM:   3    -0.413168788331E+03    0.41989E-02   -0.34774E-02  5007   0.610E-02    0.195E-01
RMM:   4    -0.413195353499E+03   -0.26565E-01   -0.32161E-02  5119   0.151E-01    0.697E-01
RMM:   5    -0.413166953765E+03    0.28400E-01   -0.13260E-02  4776   0.116E-01    0.491E-02
RMM:   6    -0.413167150746E+03   -0.19698E-03   -0.24244E-03  5743   0.483E-02    0.358E-02
RMM:   7    -0.413167129679E+03    0.21067E-04   -0.42071E-04  5632   0.199E-02    0.232E-02
RMM:   8    -0.413167116799E+03    0.12881E-04   -0.55784E-05  5096   0.866E-03    0.104E-02
RMM:   9    -0.413167112080E+03    0.47186E-05   -0.11443E-05  3678   0.388E-03    0.722E-03
RMM:  10    -0.413167108829E+03    0.32513E-05   -0.21181E-06  2570   0.236E-03    0.416E-03
RMM:  11    -0.413167106445E+03    0.23840E-05   -0.11263E-06  2504   0.172E-03    0.231E-03
RMM:  12    -0.413167101919E+03    0.45255E-05   -0.16849E-06  2568   0.192E-03    0.112E-03
RMM:  13    -0.413167098696E+03    0.32227E-05   -0.62454E-07  2398   0.133E-03    0.876E-04
RMM:  14    -0.413167098725E+03   -0.28296E-07   -0.23909E-07  1887   0.852E-04
   13 T=    61. E= -.41286666E+03 F= -.41316710E+03 E0= -.41314480E+03  EK= 0.30044E+00 SP= 0.00E+00 SK= 0.00E+00
       N       E                     dE             d eps       ncg     rms          rms(c)
RMM:   1    -0.413174024891E+03   -0.69262E-02   -0.70204E+00  4295   0.579E-01    0.896E-01
RMM:   2    -0.413173770643E+03    0.25425E-03   -0.89114E-02  4246   0.755E-02    0.655E-01
RMM:   3    -0.413170062529E+03    0.37081E-02   -0.36589E-02  5024   0.667E-02    0.232E-01
RMM:   4    -0.413196307613E+03   -0.26245E-01   -0.34235E-02  5115   0.156E-01    0.702E-01
RMM:   5    -0.413167564554E+03    0.28743E-01   -0.13328E-02  4754   0.117E-01    0.495E-02
RMM:   6    -0.413167759940E+03   -0.19539E-03   -0.23929E-03  5691   0.482E-02    0.349E-02
RMM:   7    -0.413167752242E+03    0.76983E-05   -0.41992E-04  5587   0.195E-02    0.227E-02
RMM:   8    -0.413167745077E+03    0.71653E-05   -0.56403E-05  5153   0.870E-03    0.986E-03
RMM:   9    -0.413167742372E+03    0.27046E-05   -0.11021E-05  3649   0.379E-03    0.656E-03
RMM:  10    -0.413167741989E+03    0.38337E-06   -0.19359E-06  2547   0.227E-03
   14 T=    61. E= -.41286683E+03 F= -.41316774E+03 E0= -.41314547E+03  EK= 0.30091E+00 SP= 0.00E+00 SK= 0.00E+00
       N       E                     dE             d eps       ncg     rms          rms(c)
RMM:   1    -0.413174172369E+03   -0.64300E-02   -0.71067E+00  4304   0.584E-01    0.903E-01
RMM:   2    -0.413174162657E+03    0.97128E-05   -0.89900E-02  4325   0.766E-02    0.664E-01
RMM:   3    -0.413177793506E+03   -0.36308E-02   -0.43517E-02  5133   0.106E-01    0.437E-01
RMM:   4    -0.413184046927E+03   -0.62534E-02   -0.34294E-02  5052   0.161E-01    0.540E-01
RMM:   5    -0.413167792246E+03    0.16255E-01   -0.67601E-03  4589   0.911E-02    0.509E-02
RMM:   6    -0.413167820318E+03   -0.28072E-04   -0.12675E-03  5361   0.347E-02    0.307E-02
RMM:   7    -0.413167823084E+03   -0.27663E-05   -0.24730E-04  5601   0.152E-02    0.178E-02
RMM:   8    -0.413167822007E+03    0.10770E-05   -0.37068E-05  4859   0.784E-03    0.643E-03
RMM:   9    -0.413167821264E+03    0.74314E-06   -0.50608E-06  2872   0.293E-03
   15 T=    61. E= -.41286656E+03 F= -.41316782E+03 E0= -.41314559E+03  EK= 0.30126E+00 SP= 0.00E+00 SK= 0.00E+00
       N       E                     dE             d eps       ncg     rms          rms(c)
RMM:   1    -0.413176570500E+03   -0.87485E-02   -0.70823E+00  4298   0.602E-01    0.917E-01
RMM:   2    -0.413175038212E+03    0.15323E-02   -0.90022E-02  4272   0.791E-02    0.661E-01
RMM:   3    -0.413174373717E+03    0.66449E-03   -0.37600E-02  5099   0.871E-02    0.326E-01
RMM:   4    -0.413191420667E+03   -0.17047E-01   -0.35532E-02  5076   0.161E-01    0.626E-01
RMM:   5    -0.413168764842E+03    0.22656E-01   -0.93847E-03  4678   0.104E-01    0.523E-02
RMM:   6    -0.413168861604E+03   -0.96762E-04   -0.18366E-03  5571   0.422E-02    0.335E-02
RMM:   7    -0.413168857023E+03    0.45810E-05   -0.33789E-04  5688   0.174E-02    0.209E-02
RMM:   8    -0.413168849482E+03    0.75413E-05   -0.47176E-05  5052   0.819E-03    0.810E-03
RMM:   9    -0.413168845538E+03    0.39436E-05   -0.73941E-06  3177   0.327E-03    0.466E-03
RMM:  10    -0.413168842430E+03    0.31076E-05   -0.17444E-06  2544   0.215E-03    0.280E-03
RMM:  11    -0.413168839662E+03    0.27678E-05   -0.90641E-07  2479   0.155E-03    0.144E-03
RMM:  12    -0.413168834964E+03    0.46987E-05   -0.92922E-07  2493   0.146E-03    0.697E-04
RMM:  13    -0.413168831255E+03    0.37083E-05   -0.46996E-07  2203   0.108E-03    0.432E-04
RMM:  14    -0.413168830098E+03    0.11573E-05   -0.20897E-07  1635   0.781E-04    0.289E-04
RMM:  15    -0.413168824287E+03    0.58110E-05   -0.32568E-07  1984   0.876E-04    0.474E-04
RMM:  16    -0.413168820295E+03    0.39918E-05   -0.17143E-07  1268   0.664E-04    0.357E-04
RMM:  17    -0.413168818771E+03    0.15243E-05   -0.79648E-08   950   0.570E-04    0.246E-04
RMM:  18    -0.413168816649E+03    0.21220E-05   -0.71842E-08  1013   0.587E-04    0.103E-04
RMM:  19    -0.413168814883E+03    0.17658E-05   -0.69617E-08  1195   0.611E-04    0.135E-04
RMM:  20    -0.413168814919E+03   -0.35656E-07   -0.19319E-08   708   0.529E-04
   16 T=    61. E= -.41286684E+03 F= -.41316881E+03 E0= -.41314662E+03  EK= 0.30198E+00 SP= 0.00E+00 SK= 0.00E+00
       N       E                     dE             d eps       ncg     rms          rms(c)
RMM:   1    -0.413175756929E+03   -0.69420E-02   -0.70373E+00  4295   0.589E-01    0.901E-01
RMM:   2    -0.413175517544E+03    0.23939E-03   -0.89725E-02  4253   0.795E-02    0.656E-01
RMM:   3    -0.413171906228E+03    0.36113E-02   -0.36255E-02  5010   0.723E-02    0.240E-01
RMM:   4    -0.413198197724E+03   -0.26291E-01   -0.35552E-02  5101   0.159E-01    0.705E-01
RMM:   5    -0.413169130749E+03    0.29067E-01   -0.13329E-02  4749   0.117E-01    0.502E-02
RMM:   6    -0.413169316410E+03   -0.18566E-03   -0.24147E-03  5680   0.483E-02    0.355E-02
RMM:   7    -0.413169301967E+03    0.14443E-04   -0.42083E-04  5571   0.195E-02    0.229E-02
RMM:   8    -0.413169292088E+03    0.98785E-05   -0.57049E-05  5173   0.879E-03    0.980E-03
RMM:   9    -0.413169288851E+03    0.32374E-05   -0.11070E-05  3675   0.382E-03    0.640E-03
RMM:  10    -0.413169287714E+03    0.11367E-05   -0.19606E-06  2553   0.228E-03    0.379E-03
RMM:  11    -0.413169286858E+03    0.85649E-06   -0.91101E-07  2485   0.158E-03
   17 T=    62. E= -.41286674E+03 F= -.41316929E+03 E0= -.41314713E+03  EK= 0.30254E+00 SP= 0.00E+00 SK= 0.00E+00
       N       E                     dE             d eps       ncg     rms          rms(c)
RMM:   1    -0.413176278372E+03   -0.69907E-02   -0.71341E+00  4297   0.597E-01    0.902E-01
RMM:   2    -0.413176216698E+03    0.61674E-04   -0.90610E-02  4254   0.808E-02    0.664E-01
RMM:   3    -0.413171988521E+03    0.42282E-02   -0.38675E-02  4964   0.686E-02    0.236E-01
RMM:   4    -0.413197552388E+03   -0.25564E-01   -0.32296E-02  5106   0.151E-01    0.692E-01
RMM:   5    -0.413169642605E+03    0.27910E-01   -0.13246E-02  4768   0.116E-01    0.481E-02
RMM:   6    -0.413169839652E+03   -0.19705E-03   -0.23699E-03  5727   0.474E-02    0.340E-02
RMM:   7    -0.413169831252E+03    0.84003E-05   -0.40469E-04  5619   0.194E-02    0.223E-02
RMM:   8    -0.413169822451E+03    0.88014E-05   -0.54107E-05  5024   0.857E-03    0.985E-03
RMM:   9    -0.413169820781E+03    0.16692E-05   -0.11100E-05  3614   0.382E-03    0.679E-03
RMM:  10    -0.413169821525E+03   -0.74339E-06   -0.19346E-06  2557   0.227E-03
   18 T=    62. E= -.41286665E+03 F= -.41316982E+03 E0= -.41314770E+03  EK= 0.30317E+00 SP= 0.00E+00 SK= 0.00E+00
       N       E                     dE             d eps       ncg     rms          rms(c)
RMM:   1    -0.413177864354E+03   -0.80436E-02   -0.71129E+00  4302   0.597E-01    0.918E-01
RMM:   2    -0.413177103434E+03    0.76092E-03   -0.90761E-02  4311   0.803E-02    0.664E-01
RMM:   3    -0.413180040487E+03   -0.29371E-02   -0.40603E-02  5135   0.101E-01    0.410E-01
RMM:   4    -0.413188012311E+03   -0.79718E-02   -0.34439E-02  5047   0.161E-01    0.547E-01
RMM:   5    -0.413170992043E+03    0.17020E-01   -0.66251E-03  4594   0.910E-02    0.518E-02
RMM:   6    -0.413171018691E+03   -0.26648E-04   -0.13413E-03  5374   0.356E-02    0.320E-02
RMM:   7    -0.413171016861E+03    0.18300E-05   -0.26023E-04  5631   0.155E-02    0.188E-02
RMM:   8    -0.413171011395E+03    0.54661E-05   -0.39485E-05  4937   0.767E-03    0.698E-03
RMM:   9    -0.413171007529E+03    0.38665E-05   -0.50303E-06  2894   0.293E-03    0.374E-03
RMM:  10    -0.413171004662E+03    0.28671E-05   -0.13773E-06  2510   0.193E-03    0.222E-03
RMM:  11    -0.413171001758E+03    0.29036E-05   -0.79461E-07  2445   0.144E-03    0.110E-03
RMM:  12    -0.413170997527E+03    0.42305E-05   -0.66297E-07  2422   0.124E-03    0.523E-04
RMM:  13    -0.413170994638E+03    0.28898E-05   -0.31660E-07  1889   0.913E-04    0.316E-04
RMM:  14    -0.413170992355E+03    0.22826E-05   -0.17531E-07  1413   0.728E-04    0.194E-04
RMM:  15    -0.413170987066E+03    0.52892E-05   -0.21697E-07  1612   0.766E-04    0.286E-04
RMM:  16    -0.413170982677E+03    0.43886E-05   -0.14107E-07  1190   0.648E-04    0.191E-04
RMM:  17    -0.413170980950E+03    0.17277E-05   -0.71223E-08   989   0.579E-04    0.108E-04
RMM:  18    -0.413170978294E+03    0.26559E-05   -0.64349E-08  1033   0.587E-04    0.386E-05
RMM:  19    -0.413170977418E+03    0.87560E-06   -0.30386E-08   805   0.547E-04
   19 T=    62. E= -.41286693E+03 F= -.41317098E+03 E0= -.41314890E+03  EK= 0.30405E+00 SP= 0.00E+00 SK= 0.00E+00
       N       E                     dE             d eps       ncg     rms          rms(c)
RMM:   1    -0.413178492300E+03   -0.75140E-02   -0.70813E+00  4294   0.616E-01    0.908E-01
RMM:   2    -0.413177366325E+03    0.11260E-02   -0.90390E-02  4263   0.788E-02    0.659E-01
RMM:   3    -0.413174040502E+03    0.33258E-02   -0.35879E-02  5036   0.697E-02    0.237E-01
RMM:   4    -0.413200681028E+03   -0.26641E-01   -0.36226E-02  5100   0.160E-01    0.709E-01
RMM:   5    -0.413171241332E+03    0.29440E-01   -0.13477E-02  4744   0.118E-01    0.508E-02
RMM:   6    -0.413171428128E+03   -0.18680E-03   -0.24537E-03  5680   0.487E-02    0.359E-02
RMM:   7    -0.413171416885E+03    0.11244E-04   -0.42798E-04  5568   0.198E-02    0.233E-02
RMM:   8    -0.413171406909E+03    0.99761E-05   -0.59694E-05  5165   0.908E-03    0.101E-02
RMM:   9    -0.413171402589E+03    0.43202E-05   -0.11633E-05  3716   0.395E-03    0.651E-03
RMM:  10    -0.413171400016E+03    0.25729E-05   -0.20660E-06  2560   0.234E-03    0.385E-03
RMM:  11    -0.413171398242E+03    0.17739E-05   -0.96853E-07  2500   0.160E-03    0.219E-03
RMM:  12    -0.413171394576E+03    0.36662E-05   -0.13841E-06  2527   0.179E-03    0.106E-03
RMM:  13    -0.413171391507E+03    0.30688E-05   -0.61782E-07  2391   0.129E-03    0.863E-04
RMM:  14    -0.413171391321E+03    0.18545E-06   -0.24426E-07  1895   0.863E-04
   20 T=    62. E= -.41286666E+03 F= -.41317139E+03 E0= -.41314936E+03  EK= 0.30473E+00 SP= 0.00E+00 SK= 0.00E+00
       N       E                     dE             d eps       ncg     rms          rms(c)
RMM:   1    -0.413178927163E+03   -0.75357E-02   -0.71576E+00  4294   0.610E-01    0.902E-01
RMM:   2    -0.413178770431E+03    0.15673E-03   -0.90829E-02  4267   0.787E-02    0.664E-01
RMM:   3    -0.413174999752E+03    0.37707E-02   -0.38680E-02  5015   0.686E-02    0.245E-01
RMM:   4    -0.413201217114E+03   -0.26217E-01   -0.34425E-02  5103   0.157E-01    0.704E-01
RMM:   5    -0.413172338427E+03    0.28879E-01   -0.13568E-02  4760   0.118E-01    0.490E-02
RMM:   6    -0.413172535551E+03   -0.19712E-03   -0.24191E-03  5719   0.479E-02    0.343E-02
RMM:   7    -0.413172535450E+03    0.10104E-06   -0.40867E-04  5578   0.196E-02    0.225E-02
RMM:   8    -0.413172529482E+03    0.59683E-05   -0.58044E-05  5082   0.903E-03    0.999E-03
RMM:   9    -0.413172527070E+03    0.24120E-05   -0.11641E-05  3687   0.395E-03    0.667E-03
RMM:  10    -0.413172527384E+03   -0.31391E-06   -0.19555E-06  2556   0.229E-03
   21 T=    62. E= -.41286686E+03 F= -.41317253E+03 E0= -.41315054E+03  EK= 0.30566E+00 SP= 0.00E+00 SK= 0.00E+00
       N       E                     dE             d eps       ncg     rms          rms(c)
RMM:   1    -0.413180379726E+03   -0.78527E-02   -0.71656E+00  4299   0.614E-01    0.917E-01
RMM:   2    -0.413179956218E+03    0.42351E-03   -0.91221E-02  4338   0.812E-02    0.667E-01
RMM:   3    -0.413182594688E+03   -0.26385E-02   -0.41311E-02  5129   0.102E-01    0.409E-01
RMM:   4    -0.413191379466E+03   -0.87848E-02   -0.34948E-02  5047   0.162E-01    0.558E-01
RMM:   5    -0.413173611345E+03    0.17768E-01   -0.70324E-03  4602   0.943E-02    0.516E-02
RMM:   6    -0.413173678820E+03   -0.67475E-04   -0.14202E-03  5399   0.367E-02    0.320E-02
RMM:   7    -0.413173695061E+03   -0.16241E-04   -0.27230E-04  5580   0.163E-02    0.191E-02
RMM:   8    -0.413173684425E+03    0.10636E-04   -0.41832E-05  4909   0.829E-03    0.710E-03
RMM:   9    -0.413173680418E+03    0.40075E-05   -0.60205E-06  2972   0.317E-03    0.389E-03
RMM:  10    -0.413173677956E+03    0.24616E-05   -0.14305E-06  2517   0.195E-03    0.234E-03
RMM:  11    -0.413173675480E+03    0.24765E-05   -0.81416E-07  2454   0.144E-03    0.117E-03
RMM:  12    -0.413173671613E+03    0.38664E-05   -0.67572E-07  2433   0.126E-03    0.541E-04
RMM:  13    -0.413173669009E+03    0.26044E-05   -0.32024E-07  1923   0.926E-04    0.331E-04
RMM:  14    -0.413173667038E+03    0.19712E-05   -0.17288E-07  1422   0.728E-04    0.211E-04
RMM:  15    -0.413173662089E+03    0.49485E-05   -0.19855E-07  1574   0.752E-04    0.283E-04
RMM:  16    -0.413173657569E+03    0.45204E-05   -0.12832E-07  1106   0.640E-04    0.190E-04
RMM:  17    -0.413173655666E+03    0.19025E-05   -0.69048E-08   974   0.585E-04    0.107E-04
RMM:  18    -0.413173652688E+03    0.29779E-05   -0.64004E-08  1034   0.595E-04    0.430E-05
RMM:  19    -0.413173651741E+03    0.94747E-06   -0.31451E-08   835   0.551E-04
   22 T=    62. E= -.41286697E+03 F= -.41317365E+03 E0= -.41315171E+03  EK= 0.30668E+00 SP= 0.00E+00 SK= 0.00E+00
       N       E                     dE             d eps       ncg     rms          rms(c)
RMM:   1    -0.413181320864E+03   -0.76682E-02   -0.71384E+00  4295   0.619E-01    0.917E-01
RMM:   2    -0.413180630700E+03    0.69016E-03   -0.91273E-02  4272   0.805E-02    0.663E-01
RMM:   3    -0.413176599473E+03    0.40312E-02   -0.35551E-02  4993   0.707E-02    0.220E-01
RMM:   4    -0.413204414567E+03   -0.27815E-01   -0.35809E-02  5101   0.160E-01    0.717E-01
RMM:   5    -0.413174211529E+03    0.30203E-01   -0.13953E-02  4760   0.120E-01    0.505E-02
RMM:   6    -0.413174403688E+03   -0.19216E-03   -0.25537E-03  5713   0.494E-02    0.364E-02
RMM:   7    -0.413174392738E+03    0.10950E-04   -0.43420E-04  5556   0.202E-02    0.236E-02
RMM:   8    -0.413174383458E+03    0.92798E-05   -0.62514E-05  5184   0.908E-03    0.106E-02
RMM:   9    -0.413174378650E+03    0.48083E-05   -0.11901E-05  3784   0.397E-03    0.697E-03
RMM:  10    -0.413174375238E+03    0.34117E-05   -0.21058E-06  2563   0.235E-03    0.411E-03
RMM:  11    -0.413174372775E+03    0.24633E-05   -0.10146E-06  2502   0.165E-03    0.235E-03
RMM:  12    -0.413174367776E+03    0.49985E-05   -0.15277E-06  2538   0.188E-03    0.112E-03
RMM:  13    -0.413174364047E+03    0.37295E-05   -0.65639E-07  2396   0.134E-03    0.912E-04
RMM:  14    -0.413174363812E+03    0.23469E-06   -0.25746E-07  1928   0.883E-04
   23 T=    63. E= -.41286669E+03 F= -.41317436E+03 E0= -.41315247E+03  EK= 0.30768E+00 SP= 0.00E+00 SK= 0.00E+00
       N       E                     dE             d eps       ncg     rms          rms(c)
RMM:   1    -0.413182672964E+03   -0.83089E-02   -0.71902E+00  4295   0.626E-01    0.904E-01
RMM:   2    -0.413182514444E+03    0.15852E-03   -0.91937E-02  4284   0.829E-02    0.665E-01
RMM:   3    -0.413177989461E+03    0.45250E-02   -0.38093E-02  4932   0.708E-02    0.225E-01
RMM:   4    -0.413204046922E+03   -0.26057E-01   -0.32139E-02  5111   0.151E-01    0.696E-01
RMM:   5    -0.413175796939E+03    0.28250E-01   -0.13424E-02  4772   0.117E-01    0.481E-02
RMM:   6    -0.413175981603E+03   -0.18466E-03   -0.24175E-03  5780   0.473E-02    0.336E-02
RMM:   7    -0.413175979803E+03    0.17998E-05   -0.38651E-04  5597   0.193E-02    0.221E-02
RMM:   8    -0.413175971777E+03    0.80265E-05   -0.61296E-05  5024   0.899E-03    0.105E-02
RMM:   9    -0.413175968546E+03    0.32311E-05   -0.12123E-05  3769   0.408E-03    0.719E-03
RMM:  10    -0.413175967630E+03    0.91538E-06   -0.20521E-06  2568   0.236E-03
   24 T=    63. E= -.41286694E+03 F= -.41317597E+03 E0= -.41315412E+03  EK= 0.30903E+00 SP= 0.00E+00 SK= 0.00E+00
       N       E                     dE             d eps       ncg     rms          rms(c)
RMM:   1    -0.413184102374E+03   -0.81338E-02   -0.72428E+00  4301   0.630E-01    0.918E-01
RMM:   2    -0.413183510890E+03    0.59148E-03   -0.92647E-02  4341   0.843E-02    0.672E-01
RMM:   3    -0.413186657715E+03   -0.31468E-02   -0.42818E-02  5114   0.108E-01    0.426E-01
RMM:   4    -0.413194410637E+03   -0.77529E-02   -0.35048E-02  5050   0.163E-01    0.555E-01
RMM:   5    -0.413176934540E+03    0.17476E-01   -0.69045E-03  4600   0.927E-02    0.507E-02
RMM:   6    -0.413176981227E+03   -0.46688E-04   -0.14078E-03  5468   0.359E-02    0.319E-02
RMM:   7    -0.413176980412E+03    0.81521E-06   -0.26747E-04  5525   0.159E-02    0.188E-02
RMM:   8    -0.413176976986E+03    0.34256E-05   -0.39890E-05  4937   0.771E-03    0.696E-03
RMM:   9    -0.413176974236E+03    0.27505E-05   -0.53421E-06  2937   0.297E-03    0.383E-03
RMM:  10    -0.413176972372E+03    0.18637E-05   -0.13177E-06  2504   0.191E-03    0.230E-03
RMM:  11    -0.413176970305E+03    0.20673E-05   -0.75517E-07  2435   0.141E-03    0.115E-03
RMM:  12    -0.413176966908E+03    0.33965E-05   -0.65756E-07  2408   0.123E-03    0.554E-04
RMM:  13    -0.413176964656E+03    0.22525E-05   -0.31200E-07  1912   0.917E-04    0.358E-04
RMM:  14    -0.413176962718E+03    0.19384E-05   -0.16718E-07  1416   0.723E-04    0.222E-04
RMM:  15    -0.413176958000E+03    0.47175E-05   -0.18375E-07  1469   0.733E-04    0.262E-04
RMM:  16    -0.413176953627E+03    0.43728E-05   -0.12143E-07  1092   0.638E-04    0.178E-04
RMM:  17    -0.413176951428E+03    0.21990E-05   -0.68059E-08   976   0.591E-04    0.101E-04
RMM:  18    -0.413176948413E+03    0.30157E-05   -0.58633E-08   996   0.595E-04    0.424E-05
RMM:  19    -0.413176947502E+03    0.91013E-06   -0.27303E-08   793   0.556E-04
   25 T=    63. E= -.41286672E+03 F= -.41317695E+03 E0= -.41315515E+03  EK= 0.31023E+00 SP= 0.00E+00 SK= 0.00E+00
       N       E                     dE             d eps       ncg     rms          rms(c)
RMM:   1    -0.413186138169E+03   -0.91898E-02   -0.72250E+00  4291   0.644E-01    0.926E-01
RMM:   2    -0.413184660080E+03    0.14781E-02   -0.93451E-02  4288   0.850E-02    0.668E-01
RMM:   3    -0.413180449375E+03    0.42107E-02   -0.35538E-02  4979   0.709E-02    0.213E-01
RMM:   4    -0.413209059319E+03   -0.28610E-01   -0.36012E-02  5109   0.160E-01    0.725E-01
RMM:   5    -0.413178179876E+03    0.30879E-01   -0.14345E-02  4764   0.121E-01    0.508E-02
RMM:   6    -0.413178367736E+03   -0.18786E-03   -0.26429E-03  5755   0.496E-02    0.365E-02
RMM:   7    -0.413178363274E+03    0.44620E-05   -0.44014E-04  5585   0.204E-02    0.239E-02
RMM:   8    -0.413178353842E+03    0.94319E-05   -0.63486E-05  5131   0.938E-03    0.110E-02
RMM:   9    -0.413178348507E+03    0.53352E-05   -0.12662E-05  3814   0.416E-03    0.725E-03
RMM:  10    -0.413178344473E+03    0.40344E-05   -0.22571E-06  2587   0.245E-03    0.425E-03
RMM:  11    -0.413178341616E+03    0.28564E-05   -0.10988E-06  2504   0.170E-03    0.244E-03
RMM:  12    -0.413178335843E+03    0.57734E-05   -0.16783E-06  2560   0.197E-03    0.116E-03
RMM:  13    -0.413178331855E+03    0.39877E-05   -0.66918E-07  2402   0.136E-03    0.918E-04
RMM:  14    -0.413178331597E+03    0.25792E-06   -0.26591E-07  1965   0.893E-04
   26 T=    63. E= -.41286672E+03 F= -.41317833E+03 E0= -.41315658E+03  EK= 0.31161E+00 SP= 0.00E+00 SK= 0.00E+00
       N       E                     dE             d eps       ncg     rms          rms(c)
RMM:   1    -0.413186890753E+03   -0.85589E-02   -0.72349E+00  4296   0.646E-01    0.909E-01
RMM:   2    -0.413186544399E+03    0.34635E-03   -0.93036E-02  4280   0.869E-02    0.667E-01
RMM:   3    -0.413181961324E+03    0.45831E-02   -0.37376E-02  4946   0.677E-02    0.212E-01
RMM:   4    -0.413208079994E+03   -0.26119E-01   -0.31511E-02  5119   0.150E-01    0.693E-01
RMM:   5    -0.413180017720E+03    0.28062E-01   -0.13341E-02  4776   0.116E-01    0.481E-02
RMM:   6    -0.413180181391E+03   -0.16367E-03   -0.24135E-03  5803   0.469E-02    0.332E-02
RMM:   7    -0.413180182807E+03   -0.14163E-05   -0.36627E-04  5618   0.191E-02    0.217E-02
RMM:   8    -0.413180174143E+03    0.86645E-05   -0.63419E-05  4986   0.905E-03    0.109E-02
RMM:   9    -0.413180169689E+03    0.44535E-05   -0.12357E-05  3845   0.416E-03    0.742E-03
RMM:  10    -0.413180167491E+03    0.21986E-05   -0.20972E-06  2572   0.239E-03    0.432E-03
RMM:  11    -0.413180165566E+03    0.19245E-05   -0.12511E-06  2506   0.181E-03    0.236E-03
RMM:  12    -0.413180162008E+03    0.35580E-05   -0.16248E-06  2534   0.194E-03    0.117E-03
RMM:  13    -0.413180159700E+03    0.23085E-05   -0.53342E-07  2345   0.128E-03    0.771E-04
RMM:  14    -0.413180159254E+03    0.44593E-06   -0.23255E-07  1845   0.843E-04
   27 T=    64. E= -.41286695E+03 F= -.41318016E+03 E0= -.41315846E+03  EK= 0.31321E+00 SP= 0.00E+00 SK= 0.00E+00
       N       E                     dE             d eps       ncg     rms          rms(c)
RMM:   1    -0.413188291527E+03   -0.81318E-02   -0.73316E+00  4294   0.648E-01    0.919E-01
RMM:   2    -0.413187732630E+03    0.55890E-03   -0.94027E-02  4281   0.878E-02    0.676E-01
RMM:   3    -0.413183038556E+03    0.46941E-02   -0.38831E-02  4955   0.671E-02    0.218E-01
RMM:   4    -0.413208677509E+03   -0.25639E-01   -0.30871E-02  5123   0.149E-01    0.687E-01
RMM:   5    -0.413181100326E+03    0.27577E-01   -0.13163E-02  4771   0.116E-01    0.479E-02
RMM:   6    -0.413181274010E+03   -0.17368E-03   -0.23865E-03  5806   0.468E-02    0.333E-02
RMM:   7    -0.413181279697E+03   -0.56867E-05   -0.37124E-04  5589   0.193E-02    0.219E-02
RMM:   8    -0.413181273530E+03    0.61669E-05   -0.61948E-05  4976   0.918E-03    0.108E-02
RMM:   9    -0.413181270311E+03    0.32182E-05   -0.12183E-05  3777   0.418E-03    0.733E-03
RMM:  10    -0.413181268975E+03    0.13366E-05   -0.22448E-06  2595   0.249E-03    0.424E-03
RMM:  11    -0.413181267565E+03    0.14094E-05   -0.13069E-06  2513   0.185E-03    0.225E-03
RMM:  12    -0.413181265028E+03    0.25373E-05   -0.15745E-06  2526   0.194E-03    0.112E-03
RMM:  13    -0.413181263281E+03    0.17471E-05   -0.51466E-07  2333   0.126E-03    0.726E-04
RMM:  14    -0.413181262746E+03    0.53540E-06   -0.22922E-07  1828   0.838E-04
   28 T=    64. E= -.41286660E+03 F= -.41318126E+03 E0= -.41315961E+03  EK= 0.31466E+00 SP= 0.00E+00 SK= 0.00E+00
       N       E                     dE             d eps       ncg     rms          rms(c)
RMM:   1    -0.413190907390E+03   -0.96441E-02   -0.73173E+00  4292   0.663E-01    0.935E-01
RMM:   2    -0.413189838422E+03    0.10690E-02   -0.94738E-02  4283   0.921E-02    0.675E-01
RMM:   3    -0.413184645694E+03    0.51927E-02   -0.35795E-02  4901   0.652E-02    0.178E-01
RMM:   4    -0.413209963015E+03   -0.25317E-01   -0.28929E-02  5120   0.144E-01    0.677E-01
RMM:   5    -0.413183169582E+03    0.26793E-01   -0.12825E-02  4779   0.113E-01    0.481E-02
RMM:   6    -0.413183334436E+03   -0.16485E-03   -0.23342E-03  5822   0.463E-02    0.342E-02
RMM:   7    -0.413183327698E+03    0.67385E-05   -0.35466E-04  5578   0.193E-02    0.217E-02
RMM:   8    -0.413183316810E+03    0.10888E-04   -0.62991E-05  4971   0.920E-03    0.112E-02
RMM:   9    -0.413183310708E+03    0.61027E-05   -0.12368E-05  3822   0.417E-03    0.768E-03
RMM:  10    -0.413183305760E+03    0.49473E-05   -0.22961E-06  2599   0.251E-03    0.439E-03
RMM:  11    -0.413183301544E+03    0.42163E-05   -0.13970E-06  2526   0.189E-03    0.235E-03
RMM:  12    -0.413183294695E+03    0.68493E-05   -0.17067E-06  2556   0.199E-03    0.120E-03
RMM:  13    -0.413183291575E+03    0.31193E-05   -0.55652E-07  2354   0.130E-03    0.770E-04
RMM:  14    -0.413183290598E+03    0.97692E-06   -0.24708E-07  1902   0.862E-04
   29 T=    64. E= -.41286682E+03 F= -.41318329E+03 E0= -.41316169E+03  EK= 0.31647E+00 SP= 0.00E+00 SK= 0.00E+00
       N       E                     dE             d eps       ncg     rms          rms(c)
RMM:   1    -0.413191912328E+03   -0.86208E-02   -0.73039E+00  4296   0.660E-01    0.918E-01
RMM:   2    -0.413191877978E+03    0.34350E-04   -0.94453E-02  4275   0.944E-02    0.671E-01
RMM:   3    -0.413186492105E+03    0.53859E-02   -0.36941E-02  4842   0.683E-02    0.187E-01
RMM:   4    -0.413209440347E+03   -0.22948E-01   -0.26126E-02  5124   0.137E-01    0.648E-01
RMM:   5    -0.413184974187E+03    0.24466E-01   -0.11838E-02  4785   0.108E-01    0.465E-02
RMM:   6    -0.413185129313E+03   -0.15513E-03   -0.21185E-03  5839   0.439E-02    0.323E-02
RMM:   7    -0.413185135926E+03   -0.66126E-05   -0.30463E-04  5607   0.178E-02    0.199E-02
RMM:   8    -0.413185130393E+03    0.55327E-05   -0.57885E-05  4958   0.850E-03    0.108E-02
RMM:   9    -0.413185125524E+03    0.48686E-05   -0.11255E-05  3752   0.401E-03    0.736E-03
RMM:  10    -0.413185122513E+03    0.30114E-05   -0.20842E-06  2571   0.241E-03    0.418E-03
RMM:  11    -0.413185119404E+03    0.31091E-05   -0.14292E-06  2527   0.190E-03    0.216E-03
RMM:  12    -0.413185114794E+03    0.46098E-05   -0.14523E-06  2518   0.187E-03    0.116E-03
RMM:  13    -0.413185112689E+03    0.21046E-05   -0.48626E-07  2325   0.123E-03    0.703E-04
RMM:  14    -0.413185111712E+03    0.97696E-06   -0.22005E-07  1804   0.824E-04
   30 T=    65. E= -.41286682E+03 F= -.41318511E+03 E0= -.41316356E+03  EK= 0.31829E+00 SP= 0.00E+00 SK= 0.00E+00
       N       E                     dE             d eps       ncg     rms          rms(c)
RMM:   1    -0.413193718399E+03   -0.86057E-02   -0.74276E+00  4295   0.671E-01    0.923E-01
RMM:   2    -0.413193911458E+03   -0.19306E-03   -0.96129E-02  4272   0.986E-02    0.681E-01
RMM:   3    -0.413188129303E+03    0.57822E-02   -0.39712E-02  4760   0.725E-02    0.201E-01
RMM:   4    -0.413208033091E+03   -0.19904E-01   -0.22716E-02  5128   0.129E-01    0.608E-01
RMM:   5    -0.413186611421E+03    0.21422E-01   -0.10403E-02  4788   0.101E-01    0.449E-02
RMM:   6    -0.413186745230E+03   -0.13381E-03   -0.18575E-03  5849   0.407E-02    0.301E-02
RMM:   7    -0.413186752604E+03   -0.73744E-05   -0.23595E-04  5584   0.161E-02    0.170E-02
RMM:   8    -0.413186750422E+03    0.21823E-05   -0.48017E-05  4913   0.755E-03    0.100E-02
RMM:   9    -0.413186746492E+03    0.39295E-05   -0.99962E-06  3675   0.375E-03    0.691E-03
RMM:  10    -0.413186745605E+03    0.88760E-06   -0.18344E-06  2537   0.232E-03
   31 T=    65. E= -.41286664E+03 F= -.41318675E+03 E0= -.41316525E+03  EK= 0.32011E+00 SP= 0.00E+00 SK= 0.00E+00
       N       E                     dE             d eps       ncg     rms          rms(c)
RMM:   1    -0.413197088165E+03   -0.10342E-01   -0.74213E+00  4296   0.686E-01    0.942E-01
RMM:   2    -0.413196310566E+03    0.77760E-03   -0.96816E-02  4295   0.103E-01    0.682E-01
RMM:   3    -0.413193636615E+03    0.26740E-02   -0.38653E-02  5003   0.938E-02    0.288E-01
RMM:   4    -0.413218007398E+03   -0.24371E-01   -0.38756E-02  5074   0.168E-01    0.701E-01
RMM:   5    -0.413189208247E+03    0.28799E-01   -0.12552E-02  4717   0.116E-01    0.525E-02
RMM:   6    -0.413189371383E+03   -0.16314E-03   -0.24836E-03  5732   0.476E-02    0.362E-02
RMM:   7    -0.413189374925E+03   -0.35423E-05   -0.41907E-04  5564   0.197E-02    0.237E-02
RMM:   8    -0.413189369649E+03    0.52765E-05   -0.61552E-05  5139   0.937E-03    0.102E-02
RMM:   9    -0.413189364110E+03    0.55388E-05   -0.11099E-05  3614   0.406E-03    0.597E-03
RMM:  10    -0.413189359101E+03    0.50085E-05   -0.22510E-06  2594   0.243E-03    0.361E-03
RMM:  11    -0.413189355055E+03    0.40462E-05   -0.10083E-06  2495   0.166E-03    0.201E-03
RMM:  12    -0.413189347318E+03    0.77370E-05   -0.12421E-06  2505   0.173E-03    0.916E-04
RMM:  13    -0.413189343030E+03    0.42881E-05   -0.56872E-07  2364   0.124E-03    0.655E-04
RMM:  14    -0.413189341225E+03    0.18046E-05   -0.26121E-07  1896   0.869E-04    0.440E-04
RMM:  15    -0.413189337714E+03    0.35111E-05   -0.14842E-07  1467   0.722E-04    0.196E-04
RMM:  16    -0.413189330799E+03    0.69153E-05   -0.15739E-07  1642   0.733E-04    0.363E-04
RMM:  17    -0.413189326936E+03    0.38627E-05   -0.76246E-08  1068   0.594E-04    0.296E-04
RMM:  18    -0.413189321679E+03    0.52577E-05   -0.74585E-08  1103   0.595E-04    0.159E-04
RMM:  19    -0.413189319735E+03    0.19433E-05   -0.47390E-08   979   0.571E-04    0.598E-05
RMM:  20    -0.413189318577E+03    0.11585E-05   -0.26535E-08   851   0.552E-04    0.857E-05
RMM:  21    -0.413189318484E+03    0.92776E-07   -0.12205E-08   682   0.522E-04
   32 T=    66. E= -.41286705E+03 F= -.41318932E+03 E0= -.41316787E+03  EK= 0.32227E+00 SP= 0.00E+00 SK= 0.00E+00
       N       E                     dE             d eps       ncg     rms          rms(c)
RMM:   1    -0.413199661513E+03   -0.10343E-01   -0.74133E+00  4301   0.712E-01    0.930E-01
RMM:   2    -0.413197959737E+03    0.17018E-02   -0.97279E-02  4276   0.105E-01    0.677E-01
RMM:   3    -0.413192241017E+03    0.57187E-02   -0.36922E-02  4681   0.758E-02    0.166E-01
RMM:   4    -0.413210723889E+03   -0.18483E-01   -0.20217E-02  5127   0.121E-01    0.582E-01
RMM:   5    -0.413191092283E+03    0.19632E-01   -0.96722E-03  4801   0.964E-02    0.448E-02
RMM:   6    -0.413191217684E+03   -0.12540E-03   -0.17120E-03  5825   0.391E-02    0.300E-02
RMM:   7    -0.413191225818E+03   -0.81347E-05   -0.19213E-04  5473   0.151E-02    0.149E-02
RMM:   8    -0.413191219717E+03    0.61011E-05   -0.28761E-05  4486   0.572E-03    0.838E-03
RMM:   9    -0.413191218995E+03    0.72255E-06   -0.89061E-06  3555   0.339E-03
   33 T=    66. E= -.41286694E+03 F= -.41319122E+03 E0= -.41316982E+03  EK= 0.32428E+00 SP= 0.00E+00 SK= 0.00E+00
       N       E                     dE             d eps       ncg     rms          rms(c)
RMM:   1    -0.413200972564E+03   -0.97528E-02   -0.75233E+00  4302   0.710E-01    0.929E-01
RMM:   2    -0.413200469520E+03    0.50304E-03   -0.98982E-02  4296   0.109E-01    0.686E-01
RMM:   3    -0.413202482944E+03   -0.20134E-02   -0.44734E-02  5055   0.119E-01    0.410E-01
RMM:   4    -0.413214530929E+03   -0.12048E-01   -0.37221E-02  5024   0.168E-01    0.607E-01
RMM:   5    -0.413193518869E+03    0.21012E-01   -0.86293E-03  4627   0.100E-01    0.506E-02
RMM:   6    -0.413193605955E+03   -0.87086E-04   -0.17254E-03  5636   0.394E-02    0.331E-02
RMM:   7    -0.413193608531E+03   -0.25763E-05   -0.31924E-04  5453   0.174E-02    0.209E-02
RMM:   8    -0.413193606599E+03    0.19318E-05   -0.50009E-05  5015   0.872E-03    0.810E-03
RMM:   9    -0.413193603240E+03    0.33590E-05   -0.79912E-06  3164   0.354E-03    0.433E-03
RMM:  10    -0.413193601173E+03    0.20677E-05   -0.16001E-06  2538   0.211E-03    0.264E-03
RMM:  11    -0.413193598609E+03    0.25640E-05   -0.91634E-07  2472   0.155E-03    0.136E-03
RMM:  12    -0.413193594363E+03    0.42457E-05   -0.82476E-07  2458   0.138E-03    0.594E-04
RMM:  13    -0.413193591870E+03    0.24934E-05   -0.37217E-07  2093   0.100E-03    0.426E-04
RMM:  14    -0.413193589887E+03    0.19824E-05   -0.18761E-07  1551   0.756E-04    0.281E-04
RMM:  15    -0.413193583691E+03    0.61961E-05   -0.20897E-07  1649   0.772E-04    0.338E-04
RMM:  16    -0.413193579130E+03    0.45614E-05   -0.10788E-07  1066   0.628E-04    0.216E-04
RMM:  17    -0.413193575470E+03    0.36597E-05   -0.82499E-08  1082   0.616E-04    0.144E-04
RMM:  18    -0.413193572647E+03    0.28234E-05   -0.57773E-08  1042   0.592E-04    0.411E-05
RMM:  19    -0.413193570826E+03    0.18210E-05   -0.35248E-08   934   0.566E-04    0.590E-05
RMM:  20    -0.413193570545E+03    0.28055E-06   -0.15288E-08   700   0.529E-04
   34 T=    66. E= -.41286697E+03 F= -.41319357E+03 E0= -.41317222E+03  EK= 0.32660E+00 SP= 0.00E+00 SK= 0.00E+00
       N       E                     dE             d eps       ncg     rms          rms(c)
RMM:   1    -0.413204337089E+03   -0.10766E-01   -0.75461E+00  4302   0.734E-01    0.947E-01
RMM:   2    -0.413202767118E+03    0.15700E-02   -0.10104E-01  4264   0.119E-01    0.689E-01
RMM:   3    -0.413196981273E+03    0.57858E-02   -0.37728E-02  4464   0.831E-02    0.148E-01
RMM:   4    -0.413203622588E+03   -0.66413E-02   -0.76601E-03  5129   0.767E-02    0.362E-01
RMM:   5    -0.413196229305E+03    0.73933E-02   -0.36859E-03  4814   0.594E-02    0.409E-02
RMM:   6    -0.413196302006E+03   -0.72701E-04   -0.89108E-04  5729   0.279E-02    0.309E-02
RMM:   7    -0.413196296524E+03    0.54816E-05   -0.24853E-04  5255   0.167E-02    0.194E-02
RMM:   8    -0.413196283272E+03    0.13252E-04   -0.24947E-05  4493   0.626E-03    0.793E-03
RMM:   9    -0.413196281468E+03    0.18047E-05   -0.39882E-06  2785   0.260E-03    0.496E-03
RMM:  10    -0.413196278512E+03    0.29552E-05   -0.15471E-06  2516   0.205E-03    0.252E-03
RMM:  11    -0.413196275377E+03    0.31354E-05   -0.95017E-07  2463   0.161E-03    0.123E-03
RMM:  12    -0.413196272176E+03    0.32009E-05   -0.51673E-07  2284   0.120E-03    0.623E-04
RMM:  13    -0.413196270085E+03    0.20908E-05   -0.25801E-07  1871   0.866E-04    0.318E-04
RMM:  14    -0.413196267022E+03    0.30632E-05   -0.14114E-07  1350   0.706E-04    0.212E-04
RMM:  15    -0.413196262778E+03    0.42436E-05   -0.93281E-08  1121   0.651E-04    0.119E-04
RMM:  16    -0.413196259533E+03    0.32459E-05   -0.61480E-08   993   0.616E-04    0.855E-05
RMM:  17    -0.413196255238E+03    0.42945E-05   -0.60485E-08  1124   0.618E-04    0.635E-05
RMM:  18    -0.413196252344E+03    0.28943E-05   -0.39555E-08   984   0.577E-04    0.412E-05
RMM:  19    -0.413196251328E+03    0.10157E-05   -0.18868E-08   760   0.538E-04    0.222E-05
RMM:  20    -0.413196250574E+03    0.75434E-06   -0.11979E-08   688   0.530E-04
   35 T=    67. E= -.41286706E+03 F= -.41319625E+03 E0= -.41317494E+03  EK= 0.32919E+00 SP= 0.00E+00 SK= 0.00E+00
       N       E                     dE             d eps       ncg     rms          rms(c)
RMM:   1    -0.413208630522E+03   -0.12379E-01   -0.75621E+00  4306   0.782E-01    0.946E-01
RMM:   2    -0.413204755473E+03    0.38750E-02   -0.10282E-01  4267   0.125E-01    0.686E-01
RMM:   3    -0.413198889992E+03    0.58655E-02   -0.36776E-02  4336   0.849E-02    0.129E-01
RMM:   4    -0.413199626024E+03   -0.73603E-03   -0.16990E-03  5085   0.378E-02    0.155E-01
RMM:   5    -0.413198348913E+03    0.12771E-02   -0.69435E-04  4776   0.260E-02    0.403E-02
RMM:   6    -0.413198411718E+03   -0.62805E-04   -0.50951E-04  5380   0.221E-02    0.338E-02
RMM:   7    -0.413198374726E+03    0.36992E-04   -0.19119E-04  4881   0.157E-02    0.189E-02
RMM:   8    -0.413198367272E+03    0.74548E-05   -0.34833E-05  4760   0.591E-03    0.593E-03
RMM:   9    -0.413198365797E+03    0.14746E-05   -0.40772E-06  2586   0.235E-03    0.266E-03
RMM:  10    -0.413198361488E+03    0.43090E-05   -0.96428E-07  2446   0.166E-03    0.119E-03
RMM:  11    -0.413198357599E+03    0.38886E-05   -0.39863E-07  2157   0.105E-03    0.637E-04
RMM:  12    -0.413198354013E+03    0.35861E-05   -0.19808E-07  1548   0.779E-04    0.337E-04
RMM:  13    -0.413198349874E+03    0.41396E-05   -0.13361E-07  1219   0.696E-04    0.187E-04
RMM:  14    -0.413198345839E+03    0.40345E-05   -0.80179E-08  1044   0.640E-04    0.113E-04
RMM:  15    -0.413198339566E+03    0.62728E-05   -0.78853E-08  1107   0.635E-04    0.965E-05
RMM:  16    -0.413198334214E+03    0.53526E-05   -0.61501E-08  1103   0.612E-04    0.809E-05
RMM:  17    -0.413198332322E+03    0.18920E-05   -0.25786E-08   793   0.546E-04    0.589E-05
RMM:  18    -0.413198330869E+03    0.14531E-05   -0.19755E-08   783   0.540E-04    0.309E-05
RMM:  19    -0.413198330307E+03    0.56188E-06   -0.97807E-09   634   0.518E-04
   36 T=    68. E= -.41286664E+03 F= -.41319833E+03 E0= -.41317707E+03  EK= 0.33170E+00 SP= 0.00E+00 SK= 0.00E+00
       N       E                     dE             d eps       ncg     rms          rms(c)
RMM:   1    -0.413211093056E+03   -0.12762E-01   -0.76569E+00  4311   0.783E-01    0.937E-01
RMM:   2    -0.413208206919E+03    0.28861E-02   -0.10381E-01  4264   0.124E-01    0.691E-01
RMM:   3    -0.413202121987E+03    0.60849E-02   -0.39916E-02  4357   0.875E-02    0.162E-01
RMM:   4    -0.413203307886E+03   -0.11859E-02   -0.27500E-03  5116   0.462E-02    0.190E-01
RMM:   5    -0.413201372535E+03    0.19354E-02   -0.99032E-04  4784   0.318E-02    0.398E-02
RMM:   6    -0.413201426299E+03   -0.53764E-04   -0.52122E-04  5434   0.225E-02    0.327E-02
RMM:   7    -0.413201413495E+03    0.12804E-04   -0.20564E-04  4961   0.159E-02    0.195E-02
RMM:   8    -0.413201406083E+03    0.74120E-05   -0.31211E-05  4809   0.600E-03    0.702E-03
RMM:   9    -0.413201405810E+03    0.27307E-06   -0.48992E-06  2615   0.241E-03
   37 T=    68. E= -.41286686E+03 F= -.41320141E+03 E0= -.41318019E+03  EK= 0.33455E+00 SP= 0.00E+00 SK= 0.00E+00
       N       E                     dE             d eps       ncg     rms          rms(c)
RMM:   1    -0.413212831388E+03   -0.11425E-01   -0.77096E+00  4311   0.800E-01    0.955E-01
RMM:   2    -0.413211160348E+03    0.16710E-02   -0.10500E-01  4262   0.120E-01    0.698E-01
RMM:   3    -0.413204855052E+03    0.63053E-02   -0.39251E-02  4571   0.820E-02    0.159E-01
RMM:   4    -0.413215048036E+03   -0.10193E-01   -0.11661E-02  5146   0.932E-02    0.443E-01
RMM:   5    -0.413203984631E+03    0.11063E-01   -0.55117E-03  4812   0.733E-02    0.436E-02
RMM:   6    -0.413204017053E+03   -0.32421E-04   -0.11392E-03  5688   0.333E-02    0.333E-02
RMM:   7    -0.413204024207E+03   -0.71541E-05   -0.31096E-04  5335   0.180E-02    0.207E-02
RMM:   8    -0.413204011544E+03    0.12663E-04   -0.41673E-05  5139   0.752E-03    0.933E-03
RMM:   9    -0.413204009554E+03    0.19903E-05   -0.66860E-06  2994   0.307E-03    0.489E-03
RMM:  10    -0.413204005907E+03    0.36472E-05   -0.17241E-06  2542   0.214E-03    0.255E-03
RMM:  11    -0.413204001394E+03    0.45131E-05   -0.10398E-06  2496   0.162E-03    0.126E-03
RMM:  12    -0.413203997002E+03    0.43918E-05   -0.59970E-07  2355   0.124E-03    0.677E-04
RMM:  13    -0.413203993736E+03    0.32656E-05   -0.29235E-07  1936   0.895E-04    0.364E-04
RMM:  14    -0.413203990179E+03    0.35571E-05   -0.16112E-07  1372   0.723E-04    0.231E-04
RMM:  15    -0.413203983471E+03    0.67081E-05   -0.13751E-07  1274   0.701E-04    0.166E-04
RMM:  16    -0.413203978519E+03    0.49526E-05   -0.95163E-08  1223   0.655E-04    0.132E-04
RMM:  17    -0.413203974463E+03    0.40558E-05   -0.62894E-08  1110   0.606E-04    0.848E-05
RMM:  18    -0.413203969788E+03    0.46751E-05   -0.53487E-08  1137   0.600E-04    0.422E-05
RMM:  19    -0.413203969087E+03    0.70017E-06   -0.22134E-08   755   0.524E-04
   38 T=    69. E= -.41286669E+03 F= -.41320397E+03 E0= -.41318279E+03  EK= 0.33728E+00 SP= 0.00E+00 SK= 0.00E+00
       N       E                     dE             d eps       ncg     rms          rms(c)
RMM:   1    -0.413220447923E+03   -0.16478E-01   -0.77524E+00  4310   0.879E-01    0.963E-01
RMM:   2    -0.413213867005E+03    0.65809E-02   -0.10956E-01  4260   0.119E-01    0.696E-01
RMM:   3    -0.413207675108E+03    0.61919E-02   -0.36569E-02  4741   0.765E-02    0.151E-01
RMM:   4    -0.413231541600E+03   -0.23866E-01   -0.25969E-02  5126   0.136E-01    0.656E-01
RMM:   5    -0.413206618949E+03    0.24923E-01   -0.12223E-02  4797   0.109E-01    0.487E-02
RMM:   6    -0.413206679433E+03   -0.60483E-04   -0.21497E-03  5796   0.442E-02    0.335E-02
RMM:   7    -0.413206701904E+03   -0.22472E-04   -0.33897E-04  5569   0.182E-02    0.209E-02
RMM:   8    -0.413206689521E+03    0.12384E-04   -0.58617E-05  5072   0.835E-03    0.110E-02
RMM:   9    -0.413206687742E+03    0.17790E-05   -0.13158E-05  3995   0.435E-03    0.704E-03
RMM:  10    -0.413206683403E+03    0.43381E-05   -0.23695E-06  2630   0.251E-03    0.379E-03
RMM:  11    -0.413206680364E+03    0.30394E-05   -0.10575E-06  2489   0.172E-03    0.221E-03
RMM:  12    -0.413206673851E+03    0.65133E-05   -0.14269E-06  2512   0.189E-03    0.125E-03
RMM:  13    -0.413206670277E+03    0.35735E-05   -0.51405E-07  2354   0.126E-03    0.748E-04
RMM:  14    -0.413206669296E+03    0.98119E-06   -0.22817E-07  1898   0.845E-04
   39 T=    69. E= -.41286664E+03 F= -.41320667E+03 E0= -.41318553E+03  EK= 0.34003E+00 SP= 0.00E+00 SK= 0.00E+00
       N       E                     dE             d eps       ncg     rms          rms(c)
RMM:   1    -0.413219265792E+03   -0.12596E-01   -0.77665E+00  4312   0.874E-01    0.947E-01
RMM:   2    -0.413217352889E+03    0.19129E-02   -0.10843E-01  4260   0.119E-01    0.697E-01
RMM:   3    -0.413211338323E+03    0.60146E-02   -0.39461E-02  4788   0.816E-02    0.187E-01
RMM:   4    -0.413238092661E+03   -0.26754E-01   -0.30257E-02  5120   0.147E-01    0.698E-01
RMM:   5    -0.413209816110E+03    0.28277E-01   -0.13667E-02  4791   0.116E-01    0.495E-02
RMM:   6    -0.413209885401E+03   -0.69290E-04   -0.23925E-03  5792   0.463E-02    0.328E-02
RMM:   7    -0.413209908436E+03   -0.23035E-04   -0.35642E-04  5619   0.181E-02    0.204E-02
RMM:   8    -0.413209897478E+03    0.10957E-04   -0.65087E-05  5108   0.854E-03    0.111E-02
RMM:   9    -0.413209896144E+03    0.13345E-05   -0.14617E-05  4121   0.455E-03    0.681E-03
RMM:  10    -0.413209893009E+03    0.31345E-05   -0.25995E-06  2653   0.253E-03    0.378E-03
RMM:  11    -0.413209890782E+03    0.22273E-05   -0.10931E-06  2491   0.173E-03    0.221E-03
RMM:  12    -0.413209885538E+03    0.52437E-05   -0.15310E-06  2531   0.189E-03    0.124E-03
RMM:  13    -0.413209882136E+03    0.34023E-05   -0.55190E-07  2351   0.128E-03    0.775E-04
RMM:  14    -0.413209881191E+03    0.94538E-06   -0.23499E-07  1889   0.855E-04
   40 T=    70. E= -.41286693E+03 F= -.41320988E+03 E0= -.41318878E+03  EK= 0.34295E+00 SP= 0.00E+00 SK= 0.00E+00
       N       E                     dE             d eps       ncg     rms          rms(c)
RMM:   1    -0.413222844518E+03   -0.12962E-01   -0.78821E+00  4316   0.905E-01    0.960E-01
RMM:   2    -0.413219871671E+03    0.29728E-02   -0.11108E-01  4262   0.122E-01    0.707E-01
RMM:   3    -0.413213978791E+03    0.58929E-02   -0.40396E-02  4857   0.832E-02    0.201E-01
RMM:   4    -0.413244617958E+03   -0.30639E-01   -0.35678E-02  5125   0.160E-01    0.746E-01
RMM:   5    -0.413212131134E+03    0.32487E-01   -0.15587E-02  4793   0.124E-01    0.517E-02
RMM:   6    -0.413212214411E+03   -0.83277E-04   -0.26780E-03  5803   0.487E-02    0.329E-02
RMM:   7    -0.413212241868E+03   -0.27457E-04   -0.35971E-04  5672   0.180E-02    0.197E-02
RMM:   8    -0.413212235952E+03    0.59159E-05   -0.65085E-05  5073   0.841E-03    0.109E-02
RMM:   9    -0.413212235839E+03    0.11302E-06   -0.18437E-05  4412   0.487E-03    0.694E-03
RMM:  10    -0.413212232443E+03    0.33957E-05   -0.26862E-06  2641   0.264E-03    0.390E-03
RMM:  11    -0.413212230366E+03    0.20770E-05   -0.11956E-06  2501   0.179E-03    0.234E-03
RMM:  12    -0.413212225006E+03    0.53607E-05   -0.16035E-06  2526   0.197E-03    0.128E-03
RMM:  13    -0.413212221388E+03    0.36180E-05   -0.61774E-07  2386   0.134E-03    0.849E-04
RMM:  14    -0.413212220432E+03    0.95544E-06   -0.24956E-07  1930   0.879E-04
   41 T=    70. E= -.41286675E+03 F= -.41321222E+03 E0= -.41319115E+03  EK= 0.34547E+00 SP= 0.00E+00 SK= 0.00E+00
       N       E                     dE             d eps       ncg     rms          rms(c)
RMM:   1    -0.413230992616E+03   -0.18771E-01   -0.79152E+00  4316   0.101E+00    0.977E-01
RMM:   2    -0.413222383411E+03    0.86092E-02   -0.11422E-01  4296   0.127E-01    0.706E-01
RMM:   3    -0.413216967922E+03    0.54155E-02   -0.37411E-02  4943   0.806E-02    0.197E-01
RMM:   4    -0.413252397360E+03   -0.35429E-01   -0.42571E-02  5119   0.174E-01    0.798E-01
RMM:   5    -0.413214875344E+03    0.37522E-01   -0.17633E-02  4781   0.132E-01    0.545E-02
RMM:   6    -0.413214981062E+03   -0.10572E-03   -0.30703E-03  5792   0.520E-02    0.346E-02
RMM:   7    -0.413215000766E+03   -0.19704E-04   -0.36935E-04  5675   0.182E-02    0.192E-02
RMM:   8    -0.413214995918E+03    0.48479E-05   -0.43303E-05  4713   0.684E-03    0.898E-03
RMM:   9    -0.413214992740E+03    0.31776E-05   -0.11355E-05  3611   0.375E-03    0.565E-03
RMM:  10    -0.413214988686E+03    0.40542E-05   -0.25382E-06  2636   0.234E-03    0.364E-03
RMM:  11    -0.413214984133E+03    0.45525E-05   -0.12357E-06  2491   0.185E-03    0.213E-03
RMM:  12    -0.413214974992E+03    0.91412E-05   -0.13050E-06  2499   0.182E-03    0.102E-03
RMM:  13    -0.413214971969E+03    0.30230E-05   -0.43967E-07  2344   0.120E-03    0.689E-04
RMM:  14    -0.413214971004E+03    0.96515E-06   -0.19749E-07  1792   0.807E-04
   42 T=    71. E= -.41286701E+03 F= -.41321497E+03 E0= -.41319393E+03  EK= 0.34796E+00 SP= 0.00E+00 SK= 0.00E+00
       N       E                     dE             d eps       ncg     rms          rms(c)
RMM:   1    -0.413237300427E+03   -0.22328E-01   -0.79584E+00  4316   0.108E+00    0.953E-01
RMM:   2    -0.413224907348E+03    0.12393E-01   -0.13019E-01  4343   0.132E-01    0.706E-01
RMM:   3    -0.413219864725E+03    0.50426E-02   -0.34752E-02  4997   0.846E-02    0.222E-01
RMM:   4    -0.413261035679E+03   -0.41171E-01   -0.52076E-02  5114   0.192E-01    0.860E-01
RMM:   5    -0.413217065145E+03    0.43971E-01   -0.20170E-02  4776   0.143E-01    0.579E-02
RMM:   6    -0.413217194413E+03   -0.12927E-03   -0.35347E-03  5783   0.558E-02    0.352E-02
RMM:   7    -0.413217218695E+03   -0.24282E-04   -0.44530E-04  5746   0.197E-02    0.218E-02
RMM:   8    -0.413217222140E+03   -0.34454E-05   -0.10246E-04  5200   0.102E-02    0.137E-02
RMM:   9    -0.413217211947E+03    0.10193E-04   -0.21233E-05  4510   0.549E-03    0.678E-03
RMM:  10    -0.413217208468E+03    0.34783E-05   -0.41797E-06  2833   0.291E-03    0.405E-03
RMM:  11    -0.413217205635E+03    0.28330E-05   -0.13595E-06  2503   0.194E-03    0.238E-03
RMM:  12    -0.413217199290E+03    0.63453E-05   -0.13704E-06  2508   0.189E-03    0.110E-03
RMM:  13    -0.413217194495E+03    0.47953E-05   -0.61576E-07  2400   0.133E-03    0.669E-04
RMM:  14    -0.413217193177E+03    0.13174E-05   -0.26819E-07  1970   0.900E-04    0.407E-04
RMM:  15    -0.413217189961E+03    0.32166E-05   -0.14336E-07  1424   0.720E-04    0.201E-04
RMM:  16    -0.413217184097E+03    0.58640E-05   -0.12543E-07  1496   0.714E-04    0.279E-04
RMM:  17    -0.413217181147E+03    0.29496E-05   -0.61521E-08  1017   0.602E-04    0.204E-04
RMM:  18    -0.413217175637E+03    0.55103E-05   -0.74981E-08  1366   0.642E-04    0.130E-04
RMM:  19    -0.413217173741E+03    0.18958E-05   -0.35360E-08   943   0.552E-04    0.428E-05
RMM:  20    -0.413217172513E+03    0.12281E-05   -0.25875E-08   864   0.543E-04    0.560E-05
RMM:  21    -0.413217172276E+03    0.23684E-06   -0.13363E-08   707   0.518E-04
   43 T=    71. E= -.41286713E+03 F= -.41321717E+03 E0= -.41319616E+03  EK= 0.35005E+00 SP= 0.00E+00 SK= 0.00E+00
       N       E                     dE             d eps       ncg     rms          rms(c)
RMM:   1    -0.413230884502E+03   -0.13712E-01   -0.79901E+00  4316   0.106E+00    0.962E-01
RMM:   2    -0.413226373245E+03    0.45113E-02   -0.11919E-01  4357   0.135E-01    0.714E-01
RMM:   3    -0.413222423650E+03    0.39496E-02   -0.41114E-02  5001   0.952E-02    0.278E-01
RMM:   4    -0.413256735542E+03   -0.34312E-01   -0.48914E-02  5100   0.188E-01    0.808E-01
RMM:   5    -0.413218281957E+03    0.38454E-01   -0.17111E-02  4755   0.134E-01    0.559E-02
RMM:   6    -0.413218373598E+03   -0.91641E-04   -0.30588E-03  5772   0.518E-02    0.331E-02
RMM:   7    -0.413218395466E+03   -0.21868E-04   -0.37242E-04  5708   0.185E-02    0.200E-02
RMM:   8    -0.413218403377E+03   -0.79105E-05   -0.93970E-05  5170   0.986E-03    0.126E-02
RMM:   9    -0.413218395118E+03    0.82588E-05   -0.20027E-05  4472   0.535E-03    0.610E-03
RMM:  10    -0.413218394077E+03    0.10409E-05   -0.36073E-06  2748   0.279E-03    0.368E-03
RMM:  11    -0.413218392751E+03    0.13259E-05   -0.13109E-06  2506   0.189E-03    0.211E-03
RMM:  12    -0.413218389269E+03    0.34819E-05   -0.12422E-06  2508   0.176E-03    0.998E-04
RMM:  13    -0.413218386255E+03    0.30144E-05   -0.55842E-07  2347   0.123E-03    0.560E-04
RMM:  14    -0.413218385093E+03    0.11622E-05   -0.24524E-07  1811   0.843E-04    0.334E-04
RMM:  15    -0.413218382208E+03    0.28849E-05   -0.14769E-07  1334   0.714E-04    0.153E-04
RMM:  16    -0.413218378691E+03    0.35170E-05   -0.11420E-07  1281   0.679E-04    0.169E-04
RMM:  17    -0.413218376117E+03    0.25743E-05   -0.72998E-08  1083   0.622E-04    0.118E-04
RMM:  18    -0.413218372793E+03    0.33235E-05   -0.63933E-08  1160   0.621E-04    0.894E-05
RMM:  19    -0.413218370409E+03    0.23843E-05   -0.45149E-08  1031   0.582E-04    0.375E-05
RMM:  20    -0.413218369593E+03    0.81617E-06   -0.24316E-08   820   0.542E-04
   44 T=    72. E= -.41286692E+03 F= -.41321837E+03 E0= -.41319739E+03  EK= 0.35145E+00 SP= 0.00E+00 SK= 0.00E+00
       N       E                     dE             d eps       ncg     rms          rms(c)
RMM:   1    -0.413242443086E+03   -0.24073E-01   -0.80366E+00  4314   0.120E+00    0.978E-01
RMM:   2    -0.413227603449E+03    0.14840E-01   -0.13271E-01  4362   0.146E-01    0.715E-01
RMM:   3    -0.413224922934E+03    0.26805E-02   -0.36276E-02  5045   0.994E-02    0.305E-01
RMM:   4    -0.413257437369E+03   -0.32514E-01   -0.52212E-02  5085   0.195E-01    0.798E-01
RMM:   5    -0.413219634772E+03    0.37803E-01   -0.15875E-02  4724   0.131E-01    0.587E-02
RMM:   6    -0.413219703464E+03   -0.68692E-04   -0.29458E-03  5743   0.514E-02    0.344E-02
RMM:   7    -0.413219719623E+03   -0.16160E-04   -0.42148E-04  5699   0.195E-02    0.229E-02
RMM:   8    -0.413219719290E+03    0.33326E-06   -0.11436E-04  5186   0.111E-02    0.131E-02
RMM:   9    -0.413219709337E+03    0.99534E-05   -0.17420E-05  4274   0.546E-03    0.550E-03
RMM:  10    -0.413219705630E+03    0.37069E-05   -0.39806E-06  2813   0.269E-03    0.338E-03
RMM:  11    -0.413219702284E+03    0.33459E-05   -0.11949E-06  2493   0.182E-03    0.184E-03
RMM:  12    -0.413219695941E+03    0.63429E-05   -0.93013E-07  2465   0.160E-03    0.868E-04
RMM:  13    -0.413219691479E+03    0.44623E-05   -0.43515E-07  2234   0.114E-03    0.420E-04
RMM:  14    -0.413219689394E+03    0.20850E-05   -0.21758E-07  1706   0.816E-04    0.254E-04
RMM:  15    -0.413219683536E+03    0.58581E-05   -0.14838E-07  1392   0.735E-04    0.180E-04
RMM:  16    -0.413219680519E+03    0.30170E-05   -0.91930E-08  1191   0.660E-04    0.138E-04
RMM:  17    -0.413219677295E+03    0.32234E-05   -0.69840E-08  1145   0.632E-04    0.949E-05
RMM:  18    -0.413219673459E+03    0.38362E-05   -0.61680E-08  1243   0.624E-04    0.498E-05
RMM:  19    -0.413219670818E+03    0.26407E-05   -0.40684E-08  1057   0.582E-04    0.388E-05
RMM:  20    -0.413219670262E+03    0.55673E-06   -0.20769E-08   779   0.534E-04
   45 T=    72. E= -.41286722E+03 F= -.41321967E+03 E0= -.41319871E+03  EK= 0.35245E+00 SP= 0.00E+00 SK= 0.00E+00
       N       E                     dE             d eps       ncg     rms          rms(c)
RMM:   1    -0.413238819493E+03   -0.19149E-01   -0.79367E+00  4314   0.126E+00    0.964E-01
RMM:   2    -0.413227104932E+03    0.11715E-01   -0.12716E-01  4380   0.154E-01    0.708E-01
RMM:   3    -0.413226587877E+03    0.51706E-03   -0.39078E-02  5059   0.112E-01    0.359E-01
RMM:   4    -0.413250534870E+03   -0.23947E-01   -0.48425E-02  5071   0.190E-01    0.728E-01
RMM:   5    -0.413219305025E+03    0.31230E-01   -0.12395E-02  4702   0.120E-01    0.568E-02
RMM:   6    -0.413219334968E+03   -0.29943E-04   -0.23805E-03  5703   0.465E-02    0.323E-02
RMM:   7    -0.413219351219E+03   -0.16250E-04   -0.35808E-04  5662   0.185E-02    0.218E-02
RMM:   8    -0.413219351561E+03   -0.34230E-06   -0.10861E-04  5121   0.111E-02    0.119E-02
RMM:   9    -0.413219342493E+03    0.90677E-05   -0.14279E-05  4123   0.516E-03    0.492E-03
RMM:  10    -0.413219339091E+03    0.34018E-05   -0.33993E-06  2767   0.251E-03    0.297E-03
RMM:  11    -0.413219335731E+03    0.33604E-05   -0.11164E-06  2494   0.174E-03    0.156E-03
RMM:  12    -0.413219329964E+03    0.57669E-05   -0.80806E-07  2445   0.146E-03    0.762E-04
RMM:  13    -0.413219326010E+03    0.39542E-05   -0.36663E-07  2087   0.103E-03    0.343E-04
RMM:  14    -0.413219323470E+03    0.25396E-05   -0.19053E-07  1550   0.771E-04    0.196E-04
RMM:  15    -0.413219317507E+03    0.59636E-05   -0.14151E-07  1319   0.723E-04    0.151E-04
RMM:  16    -0.413219314911E+03    0.25955E-05   -0.87871E-08  1170   0.654E-04    0.104E-04
RMM:  17    -0.413219311092E+03    0.38190E-05   -0.74095E-08  1233   0.646E-04    0.628E-05
RMM:  18    -0.413219307561E+03    0.35308E-05   -0.56957E-08  1198   0.611E-04    0.387E-05
RMM:  19    -0.413219305687E+03    0.18743E-05   -0.34934E-08   962   0.559E-04    0.325E-05
RMM:  20    -0.413219305309E+03    0.37826E-06   -0.19703E-08   780   0.526E-04
   46 T=    72. E= -.41286701E+03 F= -.41321931E+03 E0= -.41319836E+03  EK= 0.35230E+00 SP= 0.00E+00 SK= 0.00E+00
       N       E                     dE             d eps       ncg     rms          rms(c)
RMM:   1    -0.413239723417E+03   -0.20418E-01   -0.80041E+00  4314   0.137E+00    0.957E-01
RMM:   2    -0.413226173351E+03    0.13550E-01   -0.12558E-01  4392   0.167E-01    0.713E-01
RMM:   3    -0.413228488898E+03   -0.23155E-02   -0.44379E-02  5066   0.127E-01    0.428E-01
RMM:   4    -0.413244398702E+03   -0.15910E-01   -0.46799E-02  5043   0.189E-01    0.671E-01
RMM:   5    -0.413218134872E+03    0.26264E-01   -0.99214E-03  4660   0.112E-01    0.553E-02
RMM:   6    -0.413218128728E+03    0.61438E-05   -0.19606E-03  5620   0.423E-02    0.298E-02
RMM:   7    -0.413218143228E+03   -0.14501E-04   -0.30572E-04  5623   0.173E-02    0.204E-02
RMM:   8    -0.413218144054E+03   -0.82571E-06   -0.10521E-04  5090   0.109E-02    0.106E-02
RMM:   9    -0.413218136656E+03    0.73986E-05   -0.12551E-05  3987   0.495E-03    0.451E-03
RMM:  10    -0.413218134587E+03    0.20685E-05   -0.27906E-06  2711   0.239E-03    0.268E-03
RMM:  11    -0.413218132145E+03    0.24421E-05   -0.11747E-06  2492   0.172E-03    0.134E-03
RMM:  12    -0.413218128300E+03    0.38454E-05   -0.78640E-07  2423   0.139E-03    0.683E-04
RMM:  13    -0.413218125368E+03    0.29318E-05   -0.36295E-07  1909   0.978E-04    0.300E-04
RMM:  14    -0.413218122809E+03    0.25583E-05   -0.20377E-07  1456   0.768E-04    0.165E-04
RMM:  15    -0.413218118325E+03    0.44841E-05   -0.17090E-07  1368   0.740E-04    0.123E-04
RMM:  16    -0.413218115738E+03    0.25875E-05   -0.11142E-07  1251   0.669E-04    0.884E-05
RMM:  17    -0.413218111271E+03    0.44667E-05   -0.10763E-07  1406   0.672E-04    0.554E-05
RMM:  18    -0.413218108748E+03    0.25231E-05   -0.61361E-08  1081   0.583E-04    0.315E-05
RMM:  19    -0.413218107982E+03    0.76617E-06   -0.33932E-08   856   0.535E-04
   47 T=    71. E= -.41286694E+03 F= -.41321811E+03 E0= -.41319718E+03  EK= 0.35117E+00 SP= 0.00E+00 SK= 0.00E+00
       N       E                     dE             d eps       ncg     rms          rms(c)
RMM:   1    -0.413236212985E+03   -0.18104E-01   -0.78862E+00  4312   0.140E+00    0.970E-01
RMM:   2    -0.413223637254E+03    0.12576E-01   -0.12686E-01  4441   0.173E-01    0.712E-01
RMM:   3    -0.413230790951E+03   -0.71537E-02   -0.44547E-02  5091   0.140E-01    0.510E-01
RMM:   4    -0.413235128541E+03   -0.43376E-02   -0.44205E-02  5016   0.187E-01    0.574E-01
RMM:   5    -0.413215899519E+03    0.19229E-01   -0.64684E-03  4603   0.980E-02    0.550E-02
RMM:   6    -0.413215853123E+03    0.46395E-04   -0.13131E-03  5341   0.361E-02    0.288E-02
RMM:   7    -0.413215876217E+03   -0.23094E-04   -0.22519E-04  5548   0.154E-02    0.186E-02
RMM:   8    -0.413215877141E+03   -0.92404E-06   -0.10564E-04  5130   0.109E-02    0.105E-02
RMM:   9    -0.413215866577E+03    0.10564E-04   -0.11607E-05  3897   0.496E-03    0.423E-03
RMM:  10    -0.413215863483E+03    0.30939E-05   -0.28200E-06  2709   0.235E-03    0.239E-03
RMM:  11    -0.413215858812E+03    0.46711E-05   -0.11672E-06  2486   0.176E-03    0.122E-03
RMM:  12    -0.413215854324E+03    0.44880E-05   -0.57396E-07  2324   0.128E-03    0.669E-04
RMM:  13    -0.413215850283E+03    0.40407E-05   -0.28649E-07  1806   0.917E-04    0.307E-04
RMM:  14    -0.413215846035E+03    0.42488E-05   -0.16988E-07  1417   0.749E-04    0.161E-04
RMM:  15    -0.413215841472E+03    0.45625E-05   -0.12391E-07  1331   0.701E-04    0.116E-04
RMM:  16    -0.413215838044E+03    0.34275E-05   -0.86552E-08  1228   0.646E-04    0.808E-05
RMM:  17    -0.413215832033E+03    0.60118E-05   -0.90055E-08  1429   0.660E-04    0.640E-05
RMM:  18    -0.413215830789E+03    0.12432E-05   -0.35675E-08   870   0.536E-04    0.441E-05
RMM:  19    -0.413215829081E+03    0.17081E-05   -0.28973E-08   870   0.539E-04    0.198E-05
RMM:  20    -0.413215828466E+03    0.61567E-06   -0.17605E-08   722   0.513E-04
   48 T=    71. E= -.41286707E+03 F= -.41321583E+03 E0= -.41319491E+03  EK= 0.34876E+00 SP= 0.00E+00 SK= 0.00E+00
       N       E                     dE             d eps       ncg     rms          rms(c)
RMM:   1    -0.413233264636E+03   -0.17436E-01   -0.77404E+00  4310   0.150E+00    0.959E-01
RMM:   2    -0.413218924847E+03    0.14340E-01   -0.12659E-01  4489   0.186E-01    0.701E-01
RMM:   3    -0.413233082649E+03   -0.14158E-01   -0.47757E-02  5106   0.159E-01    0.616E-01
RMM:   4    -0.413224334723E+03    0.87479E-02   -0.42776E-02  4982   0.187E-01    0.474E-01
RMM:   5    -0.413211302408E+03    0.13032E-01   -0.42903E-03  4563   0.874E-02    0.553E-02
RMM:   6    -0.413211204874E+03    0.97534E-04   -0.70333E-04  4894   0.297E-02    0.282E-02
RMM:   7    -0.413211217290E+03   -0.12416E-04   -0.15303E-04  5666   0.134E-02    0.119E-02
RMM:   8    -0.413211216322E+03    0.96843E-06   -0.38637E-05  5158   0.696E-03    0.719E-03
RMM:   9    -0.413211210583E+03    0.57388E-05   -0.92924E-06  3704   0.368E-03    0.394E-03
RMM:  10    -0.413211208565E+03    0.20181E-05   -0.17194E-06  2548   0.218E-03    0.236E-03
RMM:  11    -0.413211202770E+03    0.57946E-05   -0.10558E-06  2455   0.175E-03    0.140E-03
RMM:  12    -0.413211199436E+03    0.33345E-05   -0.42379E-07  2333   0.114E-03    0.788E-04
RMM:  13    -0.413211194397E+03    0.50385E-05   -0.28280E-07  1981   0.915E-04    0.439E-04
RMM:  14    -0.413211189443E+03    0.49548E-05   -0.15183E-07  1333   0.703E-04    0.274E-04
RMM:  15    -0.413211184953E+03    0.44894E-05   -0.98908E-08  1072   0.629E-04    0.125E-04
RMM:  16    -0.413211181269E+03    0.36846E-05   -0.76002E-08  1140   0.617E-04    0.999E-05
RMM:  17    -0.413211176536E+03    0.47329E-05   -0.70418E-08  1264   0.620E-04    0.103E-04
RMM:  18    -0.413211174760E+03    0.17760E-05   -0.34778E-08   890   0.527E-04    0.671E-05
RMM:  19    -0.413211171926E+03    0.28338E-05   -0.32355E-08   884   0.532E-04    0.321E-05
RMM:  20    -0.413211171170E+03    0.75612E-06   -0.15542E-08   670   0.491E-04
   49 T=    70. E= -.41286672E+03 F= -.41321117E+03 E0= -.41319026E+03  EK= 0.34445E+00 SP= 0.00E+00 SK= 0.00E+00
       N       E                     dE             d eps       ncg     rms          rms(c)
RMM:   1    -0.413234459496E+03   -0.23288E-01   -0.77251E+00  4310   0.168E+00    0.932E-01
RMM:   2    -0.413213466441E+03    0.20993E-01   -0.13327E-01  4566   0.200E-01    0.699E-01
RMM:   3    -0.413235556195E+03   -0.22090E-01   -0.53154E-02  5132   0.180E-01    0.718E-01
RMM:   4    -0.413216110607E+03    0.19446E-01   -0.45907E-02  4955   0.197E-01    0.426E-01
RMM:   5    -0.413205723389E+03    0.10387E-01   -0.40941E-03  4614   0.886E-02    0.592E-02
RMM:   6    -0.413205579407E+03    0.14398E-03   -0.49742E-04  4729   0.286E-02    0.285E-02
RMM:   7    -0.413205609067E+03   -0.29660E-04   -0.23240E-04  5738   0.169E-02    0.183E-02
RMM:   8    -0.413205594066E+03    0.15000E-04   -0.65223E-05  5089   0.919E-03    0.944E-03
RMM:   9    -0.413205591637E+03    0.24290E-05   -0.15684E-05  4543   0.511E-03    0.426E-03
RMM:  10    -0.413205588829E+03    0.28086E-05   -0.21564E-06  2657   0.232E-03    0.244E-03
RMM:  11    -0.413205584772E+03    0.40563E-05   -0.10696E-06  2497   0.174E-03    0.169E-03
RMM:  12    -0.413205581756E+03    0.30166E-05   -0.43201E-07  2292   0.112E-03    0.865E-04
RMM:  13    -0.413205578019E+03    0.37370E-05   -0.36757E-07  2191   0.959E-04    0.436E-04
RMM:  14    -0.413205574551E+03    0.34679E-05   -0.20048E-07  1449   0.743E-04    0.298E-04
RMM:  15    -0.413205569985E+03    0.45661E-05   -0.17185E-07  1342   0.708E-04    0.140E-04
RMM:  16    -0.413205567233E+03    0.27514E-05   -0.99273E-08  1151   0.623E-04    0.830E-05
RMM:  17    -0.413205562912E+03    0.43218E-05   -0.10930E-07  1381   0.649E-04    0.888E-05
RMM:  18    -0.413205560994E+03    0.19175E-05   -0.57647E-08  1036   0.550E-04    0.665E-05
RMM:  19    -0.413205559800E+03    0.11943E-05   -0.34792E-08   863   0.516E-04    0.342E-05
RMM:  20    -0.413205558693E+03    0.11070E-05   -0.27695E-08   843   0.513E-04    0.252E-05
RMM:  21    -0.413205558528E+03    0.16466E-06   -0.13473E-08   686   0.483E-04
[...]
RMM:  16    -0.413517001404E+03   -0.11386E-05   -0.14460E-06  2420   0.145E-03    0.446E-04
RMM:  17    -0.413517000579E+03    0.82506E-06   -0.11631E-06  2249   0.125E-03
  139 T=   133. E= -.41286209E+03 F= -.41351700E+03 E0= -.41349668E+03  EK= 0.65492E+00 SP= 0.00E+00 SK= 0.00E+00
       N       E                     dE             d eps       ncg     rms          rms(c)
RMM:   1    -0.413477263838E+03    0.39738E-01   -0.11034E+01  4293   0.642E+00    0.688E-01
RMM:   2    -0.413463620231E+03    0.13644E-01   -0.27834E-01  5428   0.629E-01    0.692E-01
RMM:   3    -0.413472832038E+03   -0.92118E-02   -0.55274E-02  5769   0.242E-01    0.741E-01
RMM:   4    -0.413457416715E+03    0.15415E-01   -0.16709E-02  5262   0.150E-01    0.429E-01
RMM:   5    -0.413455938132E+03    0.14786E-02   -0.14386E-02  4433   0.156E-01    0.185E-01
RMM:   6    -0.413455847678E+03    0.90453E-04   -0.78995E-03  5280   0.106E-01    0.104E-01
RMM:   7    -0.413455443079E+03    0.40460E-03   -0.15818E-03  5503   0.496E-02    0.746E-02
RMM:   8    -0.413455324905E+03    0.11817E-03   -0.49256E-04  4719   0.277E-02    0.400E-02
RMM:   9    -0.413455343811E+03   -0.18906E-04   -0.50896E-04  4841   0.254E-02    0.187E-02
RMM:  10    -0.413455343156E+03    0.65512E-06   -0.56344E-05  5472   0.937E-03    0.126E-02
RMM:  11    -0.413455343491E+03   -0.33552E-06   -0.24609E-05  4333   0.617E-03    0.470E-03
RMM:  12    -0.413455350595E+03   -0.71039E-05   -0.56207E-06  3103   0.338E-03    0.228E-03
RMM:  13    -0.413455354841E+03   -0.42459E-05   -0.17689E-06  2633   0.199E-03    0.159E-03
RMM:  14    -0.413455358280E+03   -0.34395E-05   -0.16532E-06  2594   0.180E-03    0.751E-04
RMM:  15    -0.413455360279E+03   -0.19983E-05   -0.10493E-06  2300   0.136E-03    0.492E-04
RMM:  16    -0.413455361259E+03   -0.97997E-06   -0.72855E-07  2134   0.113E-03
  140 T=   120. E= -.41286390E+03 F= -.41345536E+03 E0= -.41343519E+03  EK= 0.59146E+00 SP= 0.00E+00 SK= 0.00E+00
       N       E                     dE             d eps       ncg     rms          rms(c)
RMM:   1    -0.413504626966E+03   -0.49267E-01   -0.11081E+01  4279   0.639E+00    0.884E-01
RMM:   2    -0.413484576393E+03    0.20051E-01   -0.29156E-01  5405   0.660E-01    0.812E-01
RMM:   3    -0.413484307466E+03    0.26893E-03   -0.44681E-02  5484   0.240E-01    0.567E-01
RMM:   4    -0.413551099290E+03   -0.66792E-01   -0.76272E-02  5258   0.261E-01    0.111E+00
RMM:   5    -0.413482475283E+03    0.68624E-01   -0.44154E-02  4854   0.242E-01    0.181E-01
RMM:   6    -0.413481593142E+03    0.88214E-03   -0.78652E-03  5558   0.106E-01    0.722E-02
RMM:   7    -0.413481568232E+03    0.24910E-04   -0.16180E-03  5790   0.420E-02    0.500E-02
RMM:   8    -0.413481557918E+03    0.10314E-04   -0.51826E-04  5310   0.250E-02    0.299E-02
RMM:   9    -0.413481535499E+03    0.22419E-04   -0.20845E-04  5125   0.177E-02    0.154E-02
RMM:  10    -0.413481538356E+03   -0.28567E-05   -0.49233E-05  5699   0.832E-03    0.102E-02
RMM:  11    -0.413481539402E+03   -0.10459E-05   -0.12987E-05  4025   0.453E-03    0.526E-03
RMM:  12    -0.413481543589E+03   -0.41873E-05   -0.46618E-06  3023   0.314E-03    0.259E-03
RMM:  13    -0.413481547712E+03   -0.41228E-05   -0.13802E-06  2572   0.197E-03    0.132E-03
RMM:  14    -0.413481552627E+03   -0.49153E-05   -0.11521E-06  2544   0.163E-03    0.663E-04
RMM:  15    -0.413481556060E+03   -0.34334E-05   -0.69660E-07  2259   0.117E-03    0.419E-04
RMM:  16    -0.413481559763E+03   -0.37025E-05   -0.67862E-07  2173   0.110E-03    0.221E-04
RMM:  17    -0.413481562462E+03   -0.26988E-05   -0.49954E-07  1893   0.925E-04    0.139E-04
RMM:  18    -0.413481564724E+03   -0.22622E-05   -0.39526E-07  1718   0.832E-04    0.104E-04
RMM:  19    -0.413481566422E+03   -0.16978E-05   -0.25055E-07  1419   0.711E-04    0.621E-05
RMM:  20    -0.413481567241E+03   -0.81903E-06   -0.12190E-07  1101   0.608E-04
  141 T=   124. E= -.41287134E+03 F= -.41348157E+03 E0= -.41346164E+03  EK= 0.61023E+00 SP= 0.00E+00 SK= 0.00E+00
       N       E                     dE             d eps       ncg     rms          rms(c)
RMM:   1    -0.413532790766E+03   -0.51224E-01   -0.12154E+01  4281   0.668E+00    0.127E+00
RMM:   2    -0.413515406647E+03    0.17384E-01   -0.33951E-01  5362   0.717E-01    0.112E+00
RMM:   3    -0.413562153994E+03   -0.46747E-01   -0.10694E-01  5578   0.340E-01    0.122E+00
RMM:   4    -0.413517090232E+03    0.45064E-01   -0.69229E-02  5174   0.293E-01    0.600E-01
RMM:   5    -0.413510878224E+03    0.62120E-02   -0.37280E-02  4794   0.254E-01    0.217E-01
RMM:   6    -0.413509160954E+03    0.17173E-02   -0.65464E-03  5088   0.108E-01    0.104E-01
RMM:   7    -0.413508700754E+03    0.46020E-03   -0.10897E-03  4745   0.467E-02    0.565E-02
RMM:   8    -0.413508638731E+03    0.62023E-04   -0.59530E-04  5442   0.304E-02    0.342E-02
RMM:   9    -0.413508626637E+03    0.12094E-04   -0.27225E-04  5382   0.200E-02    0.233E-02
RMM:  10    -0.413508617498E+03    0.91384E-05   -0.61402E-05  5571   0.991E-03    0.108E-02
RMM:  11    -0.413508620609E+03   -0.31103E-05   -0.28712E-05  5120   0.618E-03    0.685E-03
RMM:  12    -0.413508625911E+03   -0.53027E-05   -0.47847E-06  3009   0.347E-03    0.312E-03
RMM:  13    -0.413508633008E+03   -0.70961E-05   -0.23606E-06  2689   0.246E-03    0.179E-03
RMM:  14    -0.413508640989E+03   -0.79810E-05   -0.13603E-06  2591   0.185E-03    0.717E-04
RMM:  15    -0.413508647002E+03   -0.60131E-05   -0.85698E-07  2399   0.129E-03    0.577E-04
RMM:  16    -0.413508657055E+03   -0.10054E-04   -0.16069E-06  2629   0.156E-03    0.356E-04
RMM:  17    -0.413508663206E+03   -0.61507E-05   -0.99199E-07  2003   0.112E-03    0.257E-04
RMM:  18    -0.413508668021E+03   -0.48146E-05   -0.68070E-07  2005   0.101E-03    0.182E-04
RMM:  19    -0.413508671920E+03   -0.38993E-05   -0.47522E-07  1809   0.862E-04    0.135E-04
RMM:  20    -0.413508673931E+03   -0.20111E-05   -0.21743E-07  1271   0.663E-04    0.758E-05
RMM:  21    -0.413508675621E+03   -0.16894E-05   -0.13891E-07  1177   0.613E-04    0.540E-05
RMM:  22    -0.413508676564E+03   -0.94365E-06   -0.77944E-08  1038   0.570E-04
  142 T=   129. E= -.41287269E+03 F= -.41350868E+03 E0= -.41348905E+03  EK= 0.63599E+00 SP= 0.00E+00 SK= 0.00E+00
       N       E                     dE             d eps       ncg     rms          rms(c)
RMM:   1    -0.413601128678E+03   -0.92453E-01   -0.12590E+01  4285   0.678E+00    0.106E+00
RMM:   2    -0.413566989502E+03    0.34139E-01   -0.30348E-01  5278   0.706E-01    0.932E-01
RMM:   3    -0.413598516573E+03   -0.31527E-01   -0.83130E-02  5621   0.304E-01    0.105E+00
RMM:   4    -0.413562955433E+03    0.35561E-01   -0.43354E-02  5087   0.244E-01    0.468E-01
RMM:   5    -0.413562121467E+03    0.83397E-03   -0.29569E-02  4889   0.221E-01    0.188E-01
RMM:   6    -0.413560432385E+03    0.16891E-02   -0.70022E-03  5105   0.105E-01    0.104E-01
RMM:   7    -0.413559956993E+03    0.47539E-03   -0.10446E-03  4794   0.461E-02    0.550E-02
RMM:   8    -0.413559883535E+03    0.73458E-04   -0.52148E-04  5435   0.282E-02    0.307E-02
RMM:   9    -0.413559862362E+03    0.21173E-04   -0.24111E-04  5217   0.188E-02    0.182E-02
RMM:  10    -0.413559858153E+03    0.42088E-05   -0.56036E-05  5765   0.904E-03    0.101E-02
RMM:  11    -0.413559860451E+03   -0.22972E-05   -0.16520E-05  4528   0.513E-03    0.598E-03
RMM:  12    -0.413559867772E+03   -0.73214E-05   -0.55885E-06  3159   0.375E-03    0.283E-03
RMM:  13    -0.413559876760E+03   -0.89875E-05   -0.24233E-06  2699   0.248E-03    0.185E-03
RMM:  14    -0.413559885477E+03   -0.87175E-05   -0.13259E-06  2592   0.177E-03    0.837E-04
RMM:  15    -0.413559893754E+03   -0.82767E-05   -0.11316E-06  2555   0.143E-03    0.710E-04
RMM:  16    -0.413559906719E+03   -0.12965E-04   -0.23428E-06  2707   0.178E-03    0.442E-04
RMM:  17    -0.413559912584E+03   -0.58648E-05   -0.10654E-06  1950   0.110E-03    0.282E-04
RMM:  18    -0.413559918653E+03   -0.60697E-05   -0.89676E-07  2264   0.112E-03    0.215E-04
RMM:  19    -0.413559922848E+03   -0.41944E-05   -0.53905E-07  1668   0.846E-04    0.131E-04
RMM:  20    -0.413559925369E+03   -0.25208E-05   -0.25084E-07  1312   0.678E-04    0.784E-05
RMM:  21    -0.413559927329E+03   -0.19600E-05   -0.14984E-07  1187   0.621E-04    0.567E-05
RMM:  22    -0.413559928385E+03   -0.10560E-05   -0.81330E-08  1053   0.575E-04    0.407E-05
RMM:  23    -0.413559929320E+03   -0.93517E-06   -0.56770E-08  1043   0.560E-04
  143 T=   142. E= -.41286145E+03 F= -.41355993E+03 E0= -.41354059E+03  EK= 0.69848E+00 SP= 0.00E+00 SK= 0.00E+00
       N       E                     dE             d eps       ncg     rms          rms(c)
RMM:   1    -0.413885240986E+03   -0.32531E+00   -0.16525E+01  4267   0.744E+00    0.106E+00
RMM:   2    -0.413771946209E+03    0.11329E+00   -0.40693E-01  5215   0.840E-01    0.945E-01
RMM:   3    -0.413789363919E+03   -0.17418E-01   -0.64435E-02  5679   0.290E-01    0.835E-01
RMM:   4    -0.413787498804E+03    0.18651E-02   -0.48513E-02  5173   0.227E-01    0.702E-01
RMM:   5    -0.413773239831E+03    0.14259E-01   -0.35397E-02  4817   0.243E-01    0.222E-01
RMM:   6    -0.413770511611E+03    0.27282E-02   -0.85595E-03  4858   0.121E-01    0.101E-01
RMM:   7    -0.413770044472E+03    0.46714E-03   -0.15309E-03  5239   0.526E-02    0.563E-02
RMM:   8    -0.413769954024E+03    0.90448E-04   -0.46188E-04  5016   0.274E-02    0.292E-02
RMM:   9    -0.413769924324E+03    0.29700E-04   -0.24062E-04  4939   0.189E-02    0.132E-02
RMM:  10    -0.413769925626E+03   -0.13024E-05   -0.63198E-05  5831   0.881E-03    0.105E-02
RMM:  11    -0.413769925899E+03   -0.27246E-06   -0.11829E-05  4066   0.460E-03    0.572E-03
RMM:  12    -0.413769932024E+03   -0.61254E-05   -0.60799E-06  3278   0.388E-03    0.267E-03
RMM:  13    -0.413769939652E+03   -0.76279E-05   -0.20369E-06  2644   0.241E-03    0.147E-03
RMM:  14    -0.413769946617E+03   -0.69647E-05   -0.11007E-06  2562   0.159E-03    0.883E-04
RMM:  15    -0.413769954709E+03   -0.80924E-05   -0.11919E-06  2586   0.152E-03    0.708E-04
RMM:  16    -0.413769964823E+03   -0.10114E-04   -0.18883E-06  2639   0.166E-03    0.460E-04
RMM:  17    -0.413769969574E+03   -0.47518E-05   -0.90324E-07  1866   0.104E-03    0.279E-04
RMM:  18    -0.413769974163E+03   -0.45886E-05   -0.67787E-07  2121   0.101E-03    0.238E-04
RMM:  19    -0.413769978478E+03   -0.43151E-05   -0.55815E-07  1764   0.872E-04    0.152E-04
RMM:  20    -0.413769980403E+03   -0.19244E-05   -0.22669E-07  1240   0.647E-04    0.915E-05
RMM:  21    -0.413769982164E+03   -0.17615E-05   -0.14736E-07  1179   0.608E-04    0.527E-05
RMM:  22    -0.413769983175E+03   -0.10106E-05   -0.79806E-08  1035   0.563E-04    0.407E-05
RMM:  23    -0.413769984078E+03   -0.90361E-06   -0.53736E-08   999   0.546E-04
  144 T=   180. E= -.41288437E+03 F= -.41376998E+03 E0= -.41375083E+03  EK= 0.88562E+00 SP= 0.00E+00 SK= 0.00E+00
       N       E                     dE             d eps       ncg     rms          rms(c)
RMM:   1    -0.414048687636E+03   -0.27870E+00   -0.23420E+01  4287   0.875E+00    0.208E+00
RMM:   2    -0.413873601233E+03    0.17509E+00   -0.71063E-01  5318   0.108E+00    0.179E+00
RMM:   3    -0.413894521282E+03   -0.20920E-01   -0.14725E-01  5395   0.470E-01    0.114E+00
RMM:   4    -0.414158424356E+03   -0.26390E+00   -0.38447E-01  5215   0.577E-01    0.210E+00
RMM:   5    -0.413869823701E+03    0.28860E+00   -0.17695E-01  4916   0.485E-01    0.298E-01
RMM:   6    -0.413868636298E+03    0.11874E-02   -0.38761E-02  5722   0.215E-01    0.139E-01
RMM:   7    -0.413868152165E+03    0.48413E-03   -0.68828E-03  5595   0.870E-02    0.759E-02
RMM:   8    -0.413868093188E+03    0.58977E-04   -0.14171E-03  5720   0.416E-02    0.462E-02
RMM:   9    -0.413868037279E+03    0.55909E-04   -0.35435E-04  4939   0.239E-02    0.220E-02
RMM:  10    -0.413868037431E+03   -0.15201E-06   -0.12978E-04  5823   0.130E-02    0.129E-02
RMM:  11    -0.413868037492E+03   -0.60434E-07   -0.31844E-05  5098   0.637E-03    0.846E-03
RMM:  12    -0.413868040347E+03   -0.28559E-05   -0.84955E-06  3631   0.421E-03    0.401E-03
RMM:  13    -0.413868044519E+03   -0.41714E-05   -0.28589E-06  2746   0.284E-03    0.207E-03
RMM:  14    -0.413868048878E+03   -0.43592E-05   -0.14945E-06  2611   0.191E-03    0.922E-04
RMM:  15    -0.413868052591E+03   -0.37131E-05   -0.97870E-07  2534   0.145E-03    0.583E-04
RMM:  16    -0.413868056783E+03   -0.41918E-05   -0.10573E-06  2452   0.135E-03    0.364E-04
RMM:  17    -0.413868059439E+03   -0.26565E-05   -0.70197E-07  2025   0.107E-03    0.224E-04
RMM:  18    -0.413868061708E+03   -0.22685E-05   -0.61040E-07  2034   0.997E-04    0.164E-04
RMM:  19    -0.413868063586E+03   -0.18778E-05   -0.48098E-07  1711   0.865E-04    0.878E-05
RMM:  20    -0.413868064553E+03   -0.96711E-06   -0.21210E-07  1247   0.672E-04
  145 T=   198. E= -.41289608E+03 F= -.41386806E+03 E0= -.41384894E+03  EK= 0.97198E+00 SP= 0.00E+00 SK= 0.00E+00
       N       E                     dE             d eps       ncg     rms          rms(c)
RMM:   1    -0.413891525972E+03   -0.23462E-01   -0.22047E+01  4283   0.848E+00    0.169E+00
RMM:   2    -0.413768526590E+03    0.12300E+00   -0.72835E-01  5396   0.100E+00    0.150E+00
RMM:   3    -0.413844541356E+03   -0.76015E-01   -0.17696E-01  5571   0.465E-01    0.157E+00
RMM:   4    -0.413784949510E+03    0.59592E-01   -0.12213E-01  5228   0.377E-01    0.945E-01
RMM:   5    -0.413762094248E+03    0.22855E-01   -0.55657E-02  4551   0.327E-01    0.214E-01
RMM:   6    -0.413760194035E+03    0.19002E-02   -0.58510E-03  4857   0.114E-01    0.893E-02
RMM:   7    -0.413760041000E+03    0.15304E-03   -0.12180E-03  5157   0.448E-02    0.494E-02
RMM:   8    -0.413760033251E+03    0.77494E-05   -0.69542E-04  5461   0.314E-02    0.363E-02
RMM:   9    -0.413760018470E+03    0.14781E-04   -0.26738E-04  5547   0.193E-02    0.249E-02
RMM:  10    -0.413760001366E+03    0.17104E-04   -0.77003E-05  5478   0.111E-02    0.112E-02
RMM:  11    -0.413760003150E+03   -0.17840E-05   -0.36504E-05  5374   0.658E-03    0.744E-03
RMM:  12    -0.413760003447E+03   -0.29703E-06   -0.54705E-06  3143   0.366E-03
  146 T=   184. E= -.41285484E+03 F= -.41376000E+03 E0= -.41374069E+03  EK= 0.90517E+00 SP= 0.00E+00 SK= 0.00E+00
       N       E                     dE             d eps       ncg     rms          rms(c)
RMM:   1    -0.414032505594E+03   -0.27250E+00   -0.21729E+01  4284   0.839E+00    0.161E+00
RMM:   2    -0.413912344103E+03    0.12016E+00   -0.71364E-01  5395   0.103E+00    0.153E+00
RMM:   3    -0.413952210665E+03   -0.39867E-01   -0.19074E-01  5547   0.480E-01    0.159E+00
RMM:   4    -0.413881155887E+03    0.71055E-01   -0.10757E-01  5180   0.387E-01    0.770E-01
RMM:   5    -0.413874181980E+03    0.69739E-02   -0.40674E-02  4448   0.291E-01    0.227E-01
RMM:   6    -0.413873522888E+03    0.65909E-03   -0.15610E-02  5242   0.152E-01    0.157E-01
RMM:   7    -0.413872240985E+03    0.12819E-02   -0.33096E-03  4915   0.756E-02    0.756E-02
RMM:   8    -0.413872192807E+03    0.48178E-04   -0.84018E-04  5492   0.362E-02    0.434E-02
RMM:   9    -0.413872176480E+03    0.16327E-04   -0.31638E-04  4779   0.232E-02    0.190E-02
RMM:  10    -0.413872175903E+03    0.57762E-06   -0.80185E-05  5710   0.109E-02    0.116E-02
RMM:  11    -0.413872177171E+03   -0.12681E-05   -0.27444E-05  4985   0.626E-03    0.652E-03
RMM:  12    -0.413872179089E+03   -0.19184E-05   -0.63746E-06  3231   0.367E-03    0.382E-03
RMM:  13    -0.413872179520E+03   -0.43123E-06   -0.23829E-06  2719   0.240E-03
  147 T=   201. E= -.41288253E+03 F= -.41387218E+03 E0= -.41385243E+03  EK= 0.98965E+00 SP= 0.00E+00 SK= 0.00E+00
       N       E                     dE             d eps       ncg     rms          rms(c)
RMM:   1    -0.414211064789E+03   -0.33889E+00   -0.26011E+01  4293   0.902E+00    0.218E+00
RMM:   2    -0.413977467012E+03    0.23360E+00   -0.86379E-01  5363   0.116E+00    0.205E+00
RMM:   3    -0.414047855083E+03   -0.70388E-01   -0.28345E-01  5518   0.580E-01    0.212E+00
RMM:   4    -0.413937309166E+03    0.11055E+00   -0.18841E-01  5200   0.499E-01    0.102E+00
RMM:   5    -0.413923091774E+03    0.14217E-01   -0.74640E-02  4535   0.381E-01    0.287E-01
RMM:   6    -0.413921435310E+03    0.16565E-02   -0.24870E-02  5236   0.193E-01    0.194E-01
RMM:   7    -0.413919351442E+03    0.20839E-02   -0.46472E-03  4792   0.926E-02    0.884E-02
RMM:   8    -0.413919262899E+03    0.88543E-04   -0.13742E-03  5568   0.459E-02    0.526E-02
RMM:   9    -0.413919247312E+03    0.15588E-04   -0.50901E-04  5027   0.287E-02    0.270E-02
RMM:  10    -0.413919239233E+03    0.80785E-05   -0.11131E-04  5685   0.134E-02    0.144E-02
RMM:  11    -0.413919241575E+03   -0.23419E-05   -0.54984E-05  5442   0.867E-03    0.874E-03
RMM:  12    -0.413919243165E+03   -0.15898E-05   -0.94563E-06  3662   0.421E-03    0.491E-03
RMM:  13    -0.413919243862E+03   -0.69747E-06   -0.47578E-06  3071   0.306E-03
  148 T=   210. E= -.41288585E+03 F= -.41391924E+03 E0= -.41389897E+03  EK= 0.10334E+01 SP= 0.00E+00 SK= 0.00E+00
       N       E                     dE             d eps       ncg     rms          rms(c)
RMM:   1    -0.414022479424E+03   -0.10324E+00   -0.22938E+01  4293   0.853E+00    0.142E+00
RMM:   2    -0.413814544140E+03    0.20794E+00   -0.66795E-01  5384   0.984E-01    0.143E+00
RMM:   3    -0.413820883103E+03   -0.63390E-02   -0.14658E-01  5646   0.423E-01    0.138E+00
RMM:   4    -0.413783289646E+03    0.37593E-01   -0.62198E-02  5175   0.301E-01    0.763E-01
RMM:   5    -0.413781807520E+03    0.14821E-02   -0.46160E-02  4562   0.289E-01    0.312E-01
RMM:   6    -0.413779793419E+03    0.20141E-02   -0.20727E-02  4975   0.177E-01    0.174E-01
RMM:   7    -0.413778045765E+03    0.17477E-02   -0.37489E-03  4829   0.854E-02    0.781E-02
RMM:   8    -0.413777998157E+03    0.47609E-04   -0.11449E-03  5702   0.401E-02    0.495E-02
RMM:   9    -0.413777959184E+03    0.38972E-04   -0.40210E-04  4665   0.258E-02    0.197E-02
RMM:  10    -0.413777962442E+03   -0.32576E-05   -0.10253E-04  5754   0.124E-02    0.123E-02
RMM:  11    -0.413777964841E+03   -0.23986E-05   -0.30747E-05  5028   0.701E-03    0.745E-03
RMM:  12    -0.413777966849E+03   -0.20080E-05   -0.67595E-06  3230   0.359E-03    0.381E-03
RMM:  13    -0.413777967906E+03   -0.10574E-05   -0.31079E-06  2822   0.256E-03    0.168E-03
RMM:  14    -0.413777967977E+03   -0.70693E-07   -0.12808E-06  2530   0.184E-03
  149 T=   185. E= -.41286691E+03 F= -.41377797E+03 E0= -.41375727E+03  EK= 0.91106E+00 SP= 0.00E+00 SK= 0.00E+00
       N       E                     dE             d eps       ncg     rms          rms(c)
RMM:   1    -0.413808652596E+03   -0.30685E-01   -0.17886E+01  4296   0.766E+00    0.105E+00
RMM:   2    -0.413687845453E+03    0.12081E+00   -0.50171E-01  5394   0.828E-01    0.111E+00
RMM:   3    -0.413668925950E+03    0.18920E-01   -0.10254E-01  5568   0.359E-01    0.943E-01
RMM:   4    -0.413651005733E+03    0.17920E-01   -0.42880E-02  5272   0.249E-01    0.501E-01
RMM:   5    -0.413650409366E+03    0.59637E-03   -0.26190E-02  4794   0.210E-01    0.272E-01
RMM:   6    -0.413649628526E+03    0.78084E-03   -0.16219E-02  5007   0.156E-01    0.160E-01
RMM:   7    -0.413648309490E+03    0.13190E-02   -0.27360E-03  4710   0.755E-02    0.625E-02
RMM:   8    -0.413648321285E+03   -0.11795E-04   -0.10229E-03  5906   0.359E-02    0.421E-02
RMM:   9    -0.413648292011E+03    0.29275E-04   -0.25854E-04  4720   0.203E-02    0.204E-02
RMM:  10    -0.413648290658E+03    0.13529E-05   -0.77807E-05  5666   0.108E-02    0.107E-02
RMM:  11    -0.413648292770E+03   -0.21122E-05   -0.27729E-05  5120   0.633E-03    0.684E-03
RMM:  12    -0.413648294303E+03   -0.15331E-05   -0.52252E-06  3046   0.334E-03    0.336E-03
RMM:  13    -0.413648295014E+03   -0.71087E-06   -0.23489E-06  2692   0.228E-03
  150 T=   159. E= -.41286589E+03 F= -.41364830E+03 E0= -.41362726E+03  EK= 0.78241E+00 SP= 0.00E+00 SK= 0.00E+00
