       N       E                     dE             d eps       ncg     rms          rms(c)
RMM:   1     0.220122568127E+04    0.22012E+04   -0.52442E+04  2132   0.654E+02
RMM:   2     0.705645929266E+03   -0.14956E+04   -0.16259E+04  2132   0.177E+02
RMM:   3     0.137581578475E+03   -0.56806E+03   -0.65774E+03  2132   0.117E+02
RMM:   4    -0.159151356051E+03   -0.29673E+03   -0.27853E+03  2132   0.936E+01
RMM:   5    -0.287555762899E+03   -0.12840E+03   -0.11439E+03  2132   0.595E+01
RMM:   6    -0.349779580537E+03   -0.62224E+02   -0.55143E+02  2132   0.423E+01
RMM:   7    -0.382691136722E+03   -0.32912E+02   -0.30426E+02  2132   0.293E+01
RMM:   8    -0.404172795451E+03   -0.21482E+02   -0.18431E+02  2132   0.233E+01
RMM:   9    -0.436040000871E+03   -0.31867E+02   -0.30783E+02  6109   0.173E+01
RMM:  10    -0.441284744340E+03   -0.52447E+01   -0.62887E+01  6395   0.539E+00
RMM:  11    -0.442513011726E+03   -0.12283E+01   -0.11143E+01  6227   0.173E+00
RMM:  12    -0.442894716725E+03   -0.38170E+00   -0.28533E+00  6370   0.603E-01    0.134E+02
RMM:  13    -0.425589402217E+03    0.17305E+02   -0.80840E+01  4668   0.119E+01    0.712E+01
RMM:  14    -0.498952423795E+03   -0.73363E+02   -0.53746E+02  5419   0.232E+01    0.306E+01
RMM:  15    -0.415693989062E+03    0.83258E+02   -0.19854E+02  5078   0.163E+01    0.684E+00
RMM:  16    -0.414040666141E+03    0.16533E+01   -0.39532E+01  6084   0.609E+00    0.429E+00
RMM:  17    -0.413219819289E+03    0.82085E+00   -0.24925E+00  5387   0.187E+00    0.245E+00
RMM:  18    -0.413172582125E+03    0.47237E-01   -0.80202E-01  5968   0.927E-01    0.165E+00
RMM:  19    -0.413168510304E+03    0.40718E-02   -0.27992E-01  5728   0.565E-01    0.871E-01
RMM:  20    -0.413184947024E+03   -0.16437E-01   -0.23540E-01  5514   0.514E-01    0.568E-01
RMM:  21    -0.413167423882E+03    0.17523E-01   -0.32383E-02  5012   0.228E-01    0.264E-01
RMM:  22    -0.413165223448E+03    0.22004E-02   -0.16558E-02  5996   0.116E-01    0.137E-01
RMM:  23    -0.413164153182E+03    0.10703E-02   -0.52812E-03  5979   0.658E-02    0.832E-02
RMM:  24    -0.413162973021E+03    0.11802E-02   -0.15409E-03  5326   0.395E-02    0.451E-02
RMM:  25    -0.413162634732E+03    0.33829E-03   -0.83477E-04  5421   0.266E-02    0.346E-02
RMM:  26    -0.413162828678E+03   -0.19395E-03   -0.90150E-04  5829   0.304E-02    0.354E-02
RMM:  27    -0.413163232644E+03   -0.40397E-03   -0.19150E-04  4570   0.195E-02    0.197E-02
RMM:  28    -0.413163698388E+03   -0.46574E-03   -0.19593E-04  5293   0.192E-02    0.855E-03
RMM:  29    -0.413164088224E+03   -0.38984E-03   -0.10853E-04  4452   0.151E-02    0.465E-03
RMM:  30    -0.413164312028E+03   -0.22380E-03   -0.77162E-05  4132   0.994E-03    0.346E-03
RMM:  31    -0.413164439606E+03   -0.12758E-03   -0.51622E-05  3184   0.671E-03    0.305E-03
RMM:  32    -0.413164465574E+03   -0.25967E-04   -0.20416E-05  2961   0.296E-03    0.167E-03
RMM:  33    -0.413164479096E+03   -0.13522E-04   -0.88366E-06  2792   0.226E-03    0.553E-04
RMM:  34    -0.413164482873E+03   -0.37768E-05   -0.49436E-06  2672   0.171E-03    0.843E-04
RMM:  35    -0.413164483034E+03   -0.16144E-06   -0.24122E-06  2294   0.119E-03
    1 T=    61. E= -.41286663E+03 F= -.41316448E+03 E0= -.41314199E+03  EK= 0.29786E+00 SP= 0.00E+00 SK= 0.00E+00
       N       E                     dE             d eps       ncg     rms          rms(c)
RMM:   1    -0.413154527073E+03    0.99558E-02   -0.11154E+01  3997   0.699E-01    0.886E-01
RMM:   2    -0.413165575707E+03   -0.11049E-01   -0.13754E-01  3880   0.976E-02    0.641E-01
RMM:   3    -0.413164028386E+03    0.15473E-02   -0.63289E-03  4539   0.352E-02    0.149E-01
RMM:   4    -0.413173034550E+03   -0.90062E-02   -0.96917E-03  5220   0.828E-02    0.400E-01
RMM:   5    -0.413163855747E+03    0.91788E-02   -0.46134E-03  4872   0.666E-02    0.227E-02
RMM:   6    -0.413163898797E+03   -0.43050E-04   -0.73734E-04  5830   0.260E-02    0.141E-02
RMM:   7    -0.413163910485E+03   -0.11687E-04   -0.99068E-05  5392   0.882E-03    0.923E-03
RMM:   8    -0.413163918532E+03   -0.80476E-05   -0.11572E-05  3319   0.357E-03    0.444E-03
RMM:   9    -0.413163925465E+03   -0.69330E-05   -0.27685E-06  2637   0.212E-03    0.282E-03
RMM:  10    -0.413163931964E+03   -0.64989E-05   -0.12218E-06  2518   0.154E-03    0.169E-03
RMM:  11    -0.413163939302E+03   -0.73378E-05   -0.10395E-06  2442   0.133E-03    0.516E-04
RMM:  12    -0.413163941994E+03   -0.26915E-05   -0.52521E-07  1993   0.965E-04    0.245E-04
RMM:  13    -0.413163943625E+03   -0.16312E-05   -0.34485E-07  1466   0.777E-04    0.167E-04
RMM:  14    -0.413163946153E+03   -0.25279E-05   -0.31407E-07  1395   0.745E-04    0.960E-05
RMM:  15    -0.413163947112E+03   -0.95976E-06   -0.22384E-07  1247   0.671E-04
    2 T=    61. E= -.41286616E+03 F= -.41316395E+03 E0= -.41314145E+03  EK= 0.29779E+00 SP= 0.00E+00 SK= 0.00E+00
       N       E                     dE             d eps       ncg     rms          rms(c)
RMM:   1    -0.413155717701E+03    0.82285E-02   -0.11189E+01  4198   0.705E-01    0.912E-01
RMM:   2    -0.413165501143E+03   -0.97834E-02   -0.13482E-01  4014   0.989E-02    0.633E-01
RMM:   3    -0.413164939132E+03    0.56201E-03   -0.69395E-03  4914   0.398E-02    0.170E-01
RMM:   4    -0.413195851519E+03   -0.30912E-01   -0.31538E-02  5178   0.148E-01    0.732E-01
RMM:   5    -0.413164487913E+03    0.31364E-01   -0.15205E-02  4829   0.123E-01    0.383E-02
RMM:   6    -0.413164667920E+03   -0.18001E-03   -0.24802E-03  5792   0.478E-02    0.193E-02
RMM:   7    -0.413164681177E+03   -0.13256E-04   -0.29708E-04  5901   0.142E-02    0.142E-02
RMM:   8    -0.413164681664E+03   -0.48762E-06   -0.38670E-05  4500   0.548E-03    0.868E-03
RMM:   9    -0.413164680725E+03    0.93919E-06   -0.64851E-06  3029   0.285E-03
    3 T=    61. E= -.41286667E+03 F= -.41316468E+03 E0= -.41314219E+03  EK= 0.29801E+00 SP= 0.00E+00 SK= 0.00E+00
       N       E                     dE             d eps       ncg     rms          rms(c)
RMM:   1    -0.413155255677E+03    0.94260E-02   -0.11100E+01  4230   0.705E-01    0.894E-01
RMM:   2    -0.413165483908E+03   -0.10228E-01   -0.13367E-01  4231   0.967E-02    0.627E-01
RMM:   3    -0.413168464451E+03   -0.29805E-02   -0.97565E-03  5170   0.692E-02    0.312E-01
RMM:   4    -0.413191502942E+03   -0.23038E-01   -0.39018E-02  5130   0.167E-01    0.687E-01
RMM:   5    -0.413164345124E+03    0.27158E-01   -0.11150E-02  4727   0.114E-01    0.534E-02
RMM:   6    -0.413164368232E+03   -0.23108E-04   -0.19356E-03  5554   0.435E-02    0.170E-02
RMM:   7    -0.413164389493E+03   -0.21260E-04   -0.27599E-04  6042   0.146E-02    0.120E-02
RMM:   8    -0.413164392209E+03   -0.27166E-05   -0.35981E-05  4757   0.558E-03    0.716E-03
RMM:   9    -0.413164394195E+03   -0.19855E-05   -0.75160E-06  3211   0.371E-03    0.360E-03
RMM:  10    -0.413164395710E+03   -0.15151E-05   -0.17108E-06  2552   0.211E-03    0.219E-03
RMM:  11    -0.413164397631E+03   -0.19208E-05   -0.10884E-06  2544   0.161E-03    0.109E-03
RMM:  12    -0.413164398604E+03   -0.97389E-06   -0.49818E-07  2282   0.111E-03
    4 T=    61. E= -.41286642E+03 F= -.41316440E+03 E0= -.41314191E+03  EK= 0.29798E+00 SP= 0.00E+00 SK= 0.00E+00
       N       E                     dE             d eps       ncg     rms          rms(c)
RMM:   1    -0.413155076730E+03    0.93209E-02   -0.11139E+01  4236   0.710E-01    0.884E-01
RMM:   2    -0.413165897510E+03   -0.10821E-01   -0.13783E-01  3919   0.940E-02    0.639E-01
RMM:   3    -0.413164821490E+03    0.10760E-02   -0.64547E-03  4929   0.382E-02    0.164E-01
RMM:   4    -0.413196439654E+03   -0.31618E-01   -0.32303E-02  5169   0.150E-01    0.741E-01
RMM:   5    -0.413164305490E+03    0.32134E-01   -0.15589E-02  4821   0.124E-01    0.368E-02
RMM:   6    -0.413164492941E+03   -0.18745E-03   -0.25056E-03  5803   0.480E-02    0.175E-02
RMM:   7    -0.413164512708E+03   -0.19767E-04   -0.29449E-04  5893   0.141E-02    0.135E-02
RMM:   8    -0.413164517764E+03   -0.50556E-05   -0.38153E-05  4496   0.541E-03    0.839E-03
RMM:   9    -0.413164522019E+03   -0.42550E-05   -0.63463E-06  3012   0.283E-03    0.565E-03
RMM:  10    -0.413164528451E+03   -0.64324E-05   -0.21734E-06  2570   0.211E-03    0.290E-03
RMM:  11    -0.413164533986E+03   -0.55350E-05   -0.15243E-06  2551   0.180E-03    0.147E-03
RMM:  12    -0.413164537457E+03   -0.34712E-05   -0.80108E-07  2451   0.137E-03    0.516E-04
RMM:  13    -0.413164538669E+03   -0.12116E-05   -0.34783E-07  2038   0.953E-04    0.315E-04
RMM:  14    -0.413164539869E+03   -0.12002E-05   -0.22340E-07  1567   0.783E-04    0.183E-04
RMM:  15    -0.413164541675E+03   -0.18061E-05   -0.26685E-07  1613   0.784E-04    0.158E-04
RMM:  16    -0.413164541846E+03   -0.17015E-06   -0.97794E-08  1093   0.628E-04
    5 T=    61. E= -.41286637E+03 F= -.41316454E+03 E0= -.41314206E+03  EK= 0.29817E+00 SP= 0.00E+00 SK= 0.00E+00
       N       E                     dE             d eps       ncg     rms          rms(c)
RMM:   1    -0.413156014128E+03    0.85275E-02   -0.11197E+01  4249   0.715E-01    0.907E-01
RMM:   2    -0.413166187181E+03   -0.10173E-01   -0.13482E-01  4065   0.995E-02    0.635E-01
RMM:   3    -0.413165417635E+03    0.76955E-03   -0.67113E-03  4796   0.401E-02    0.166E-01
RMM:   4    -0.413192492189E+03   -0.27075E-01   -0.27243E-02  5164   0.138E-01    0.687E-01
RMM:   5    -0.413164987505E+03    0.27505E-01   -0.13487E-02  4823   0.114E-01    0.351E-02
RMM:   6    -0.413165146821E+03   -0.15932E-03   -0.21212E-03  5797   0.443E-02    0.186E-02
RMM:   7    -0.413165157354E+03   -0.10533E-04   -0.25384E-04  5846   0.132E-02    0.135E-02
RMM:   8    -0.413165157884E+03   -0.53006E-06   -0.32284E-05  4373   0.515E-03    0.818E-03
RMM:   9    -0.413165157349E+03    0.53496E-06   -0.57362E-06  2947   0.277E-03
    6 T=    61. E= -.41286663E+03 F= -.41316516E+03 E0= -.41314269E+03  EK= 0.29853E+00 SP= 0.00E+00 SK= 0.00E+00
       N       E                     dE             d eps       ncg     rms          rms(c)
RMM:   1    -0.413155696414E+03    0.94615E-02   -0.11140E+01  4270   0.723E-01    0.902E-01
RMM:   2    -0.413165570171E+03   -0.98738E-02   -0.13410E-01  4268   0.100E-01    0.628E-01
RMM:   3    -0.413168321202E+03   -0.27510E-02   -0.95391E-03  5149   0.660E-02    0.299E-01
RMM:   4    -0.413193461259E+03   -0.25140E-01   -0.39763E-02  5117   0.168E-01    0.707E-01
RMM:   5    -0.413164596130E+03    0.28865E-01   -0.12110E-02  4734   0.117E-01    0.533E-02
RMM:   6    -0.413164638906E+03   -0.42776E-04   -0.20609E-03  5572   0.448E-02    0.171E-02
RMM:   7    -0.413164660760E+03   -0.21853E-04   -0.29256E-04  6036   0.148E-02    0.122E-02
RMM:   8    -0.413164661906E+03   -0.11464E-05   -0.37247E-05  4738   0.565E-03    0.727E-03
RMM:   9    -0.413164660174E+03    0.17319E-05   -0.71185E-06  3066   0.358E-03    0.353E-03
RMM:  10    -0.413164660106E+03    0.68227E-07   -0.17970E-06  2552   0.211E-03
    7 T=    61. E= -.41286610E+03 F= -.41316466E+03 E0= -.41314221E+03  EK= 0.29856E+00 SP= 0.00E+00 SK= 0.00E+00
       N       E                     dE             d eps       ncg     rms          rms(c)
RMM:   1    -0.413155828695E+03    0.88315E-02   -0.11137E+01  4273   0.727E-01    0.883E-01
RMM:   2    -0.413166708027E+03   -0.10879E-01   -0.13703E-01  4082   0.962E-02    0.637E-01
RMM:   3    -0.413165911817E+03    0.79621E-03   -0.65767E-03  4986   0.410E-02    0.174E-01
RMM:   4    -0.413204230666E+03   -0.38319E-01   -0.39785E-02  5150   0.166E-01    0.814E-01
RMM:   5    -0.413165196423E+03    0.39034E-01   -0.18965E-02  4809   0.136E-01    0.416E-02
RMM:   6    -0.413165395324E+03   -0.19890E-03   -0.29294E-03  5763   0.527E-02    0.174E-02
RMM:   7    -0.413165419687E+03   -0.24363E-04   -0.35872E-04  5924   0.153E-02    0.137E-02
RMM:   8    -0.413165423952E+03   -0.42648E-05   -0.42596E-05  4465   0.558E-03    0.829E-03
RMM:   9    -0.413165427102E+03   -0.31508E-05   -0.70830E-06  3010   0.287E-03    0.548E-03
RMM:  10    -0.413165431902E+03   -0.47999E-05   -0.24408E-06  2569   0.221E-03    0.273E-03
RMM:  11    -0.413165435957E+03   -0.40549E-05   -0.14834E-06  2537   0.178E-03    0.129E-03
RMM:  12    -0.413165438306E+03   -0.23493E-05   -0.80762E-07  2444   0.136E-03    0.421E-04
RMM:  13    -0.413165439351E+03   -0.10446E-05   -0.38666E-07  2015   0.960E-04    0.281E-04
RMM:  14    -0.413165440354E+03   -0.10034E-05   -0.29611E-07  1649   0.822E-04    0.185E-04
RMM:  15    -0.413165440997E+03   -0.64239E-06   -0.22030E-07  1410   0.738E-04
    8 T=    61. E= -.41286653E+03 F= -.41316544E+03 E0= -.41314301E+03  EK= 0.29891E+00 SP= 0.00E+00 SK= 0.00E+00
       N       E                     dE             d eps       ncg     rms          rms(c)
RMM:   1    -0.413156248083E+03    0.91923E-02   -0.11205E+01  4283   0.729E-01    0.901E-01
RMM:   2    -0.413166616081E+03   -0.10368E-01   -0.13635E-01  4168   0.101E-01    0.639E-01
RMM:   3    -0.413165742904E+03    0.87318E-03   -0.66607E-03  4847   0.396E-02    0.166E-01
RMM:   4    -0.413195448243E+03   -0.29705E-01   -0.30227E-02  5155   0.145E-01    0.719E-01
RMM:   5    -0.413165237643E+03    0.30211E-01   -0.14745E-02  4815   0.120E-01    0.359E-02
RMM:   6    -0.413165414299E+03   -0.17666E-03   -0.23326E-03  5791   0.464E-02    0.182E-02
RMM:   7    -0.413165427150E+03   -0.12851E-04   -0.27461E-04  5862   0.138E-02    0.136E-02
RMM:   8    -0.413165427947E+03   -0.79735E-06   -0.34811E-05  4429   0.532E-03    0.845E-03
RMM:   9    -0.413165427592E+03    0.35545E-06   -0.59611E-06  2960   0.282E-03
    9 T=    61. E= -.41286637E+03 F= -.41316543E+03 E0= -.41314302E+03  EK= 0.29905E+00 SP= 0.00E+00 SK= 0.00E+00
       N       E                     dE             d eps       ncg     rms          rms(c)
RMM:   1    -0.413156677574E+03    0.87504E-02   -0.11187E+01  4291   0.733E-01    0.910E-01
RMM:   2    -0.413166325207E+03   -0.96476E-02   -0.13434E-01  4297   0.100E-01    0.630E-01
RMM:   3    -0.413169727029E+03   -0.34018E-02   -0.10085E-02  5152   0.687E-02    0.314E-01
RMM:   4    -0.413191996262E+03   -0.22269E-01   -0.38199E-02  5106   0.165E-01    0.678E-01
RMM:   5    -0.413165615987E+03    0.26380E-01   -0.10894E-02  4716   0.112E-01    0.527E-02
RMM:   6    -0.413165646130E+03   -0.30144E-04   -0.18752E-03  5537   0.424E-02    0.178E-02
RMM:   7    -0.413165662641E+03   -0.16510E-04   -0.26727E-04  6016   0.143E-02    0.123E-02
RMM:   8    -0.413165662374E+03    0.26725E-06   -0.34967E-05  4733   0.552E-03    0.727E-03
RMM:   9    -0.413165657724E+03    0.46497E-05   -0.71530E-06  3101   0.360E-03    0.358E-03
RMM:  10    -0.413165656383E+03    0.13405E-05   -0.16677E-06  2541   0.207E-03    0.210E-03
RMM:  11    -0.413165654879E+03    0.15045E-05   -0.10085E-06  2529   0.156E-03    0.105E-03
RMM:  12    -0.413165653808E+03    0.10712E-05   -0.46360E-07  2214   0.107E-03    0.479E-04
RMM:  13    -0.413165652459E+03    0.13482E-05   -0.35215E-07  1741   0.878E-04    0.228E-04
RMM:  14    -0.413165651656E+03    0.80331E-06   -0.19905E-07  1420   0.733E-04
   10 T=    61. E= -.41286638E+03 F= -.41316565E+03 E0= -.41314327E+03  EK= 0.29927E+00 SP= 0.00E+00 SK= 0.00E+00
       N       E                     dE             d eps       ncg     rms          rms(c)
RMM:   1    -0.413157560733E+03    0.80917E-02   -0.11142E+01  4290   0.743E-01    0.885E-01
RMM:   2    -0.413167818159E+03   -0.10257E-01   -0.13547E-01  4205   0.970E-02    0.634E-01
RMM:   3    -0.413166788401E+03    0.10298E-02   -0.63897E-03  4898   0.394E-02    0.168E-01
RMM:   4    -0.413199477946E+03   -0.32690E-01   -0.33571E-02  5148   0.152E-01    0.753E-01
RMM:   5    -0.413166185899E+03    0.33292E-01   -0.16348E-02  4809   0.125E-01    0.373E-02
RMM:   6    -0.413166369619E+03   -0.18372E-03   -0.25076E-03  5788   0.483E-02    0.181E-02
RMM:   7    -0.413166384377E+03   -0.14758E-04   -0.29750E-04  5878   0.141E-02    0.136E-02
RMM:   8    -0.413166386123E+03   -0.17461E-05   -0.37617E-05  4444   0.541E-03    0.843E-03
RMM:   9    -0.413166386499E+03   -0.37628E-06   -0.65169E-06  3008   0.284E-03
   11 T=    61. E= -.41286669E+03 F= -.41316639E+03 E0= -.41314403E+03  EK= 0.29970E+00 SP= 0.00E+00 SK= 0.00E+00
       N       E                     dE             d eps       ncg     rms          rms(c)
RMM:   1    -0.413156906990E+03    0.94791E-02   -0.11215E+01  4294   0.743E-01    0.895E-01
RMM:   2    -0.413167427840E+03   -0.10521E-01   -0.13766E-01  4275   0.977E-02    0.641E-01
RMM:   3    -0.413170063302E+03   -0.26355E-02   -0.95224E-03  5148   0.670E-02    0.305E-01
RMM:   4    -0.413197935965E+03   -0.27873E-01   -0.43947E-02  5109   0.176E-01    0.740E-01
RMM:   5    -0.413166086742E+03    0.31849E-01   -0.13437E-02  4722   0.123E-01    0.541E-02
RMM:   6    -0.413166148969E+03   -0.62228E-04   -0.22807E-03  5589   0.467E-02    0.158E-02
RMM:   7    -0.413166175672E+03   -0.26703E-04   -0.31359E-04  6033   0.151E-02    0.120E-02
RMM:   8    -0.413166178747E+03   -0.30748E-05   -0.40029E-05  4801   0.573E-03    0.725E-03
RMM:   9    -0.413166180608E+03   -0.18604E-05   -0.74804E-06  3113   0.364E-03    0.375E-03
RMM:  10    -0.413166182220E+03   -0.16119E-05   -0.19848E-06  2550   0.215E-03    0.223E-03
RMM:  11    -0.413166183758E+03   -0.15387E-05   -0.11641E-06  2545   0.161E-03    0.109E-03
RMM:  12    -0.413166184363E+03   -0.60463E-06   -0.51833E-07  2265   0.110E-03
   12 T=    61. E= -.41286626E+03 F= -.41316618E+03 E0= -.41314385E+03  EK= 0.29993E+00 SP= 0.00E+00 SK= 0.00E+00
       N       E                     dE             d eps       ncg     rms          rms(c)
RMM:   1    -0.413157951670E+03    0.82321E-02   -0.11241E+01  4298   0.746E-01    0.915E-01
RMM:   2    -0.413167658444E+03   -0.97068E-02   -0.13447E-01  4210   0.939E-02    0.632E-01
RMM:   3    -0.413167236921E+03    0.42152E-03   -0.69703E-03  4976   0.385E-02    0.176E-01
RMM:   4    -0.413201978903E+03   -0.34742E-01   -0.35696E-02  5148   0.157E-01    0.775E-01
RMM:   5    -0.413166707939E+03    0.35271E-01   -0.17349E-02  4803   0.129E-01    0.398E-02
RMM:   6    -0.413166898623E+03   -0.19068E-03   -0.26427E-03  5803   0.500E-02    0.201E-02
RMM:   7    -0.413166909720E+03   -0.11097E-04   -0.31683E-04  5879   0.148E-02    0.147E-02
RMM:   8    -0.413166907658E+03    0.20623E-05   -0.42223E-05  4606   0.575E-03    0.929E-03
RMM:   9    -0.413166902899E+03    0.47589E-05   -0.70100E-06  3051   0.296E-03    0.617E-03
RMM:  10    -0.413166898652E+03    0.42467E-05   -0.22220E-06  2554   0.218E-03    0.312E-03
RMM:  11    -0.413166895193E+03    0.34589E-05   -0.16204E-06  2540   0.190E-03    0.145E-03
RMM:  12    -0.413166892577E+03    0.26158E-05   -0.79499E-07  2441   0.142E-03    0.483E-04
RMM:  13    -0.413166891737E+03    0.84090E-06   -0.34140E-07  2103   0.973E-04
   13 T=    61. E= -.41286639E+03 F= -.41316689E+03 E0= -.41314459E+03  EK= 0.30050E+00 SP= 0.00E+00 SK= 0.00E+00
       N       E                     dE             d eps       ncg     rms          rms(c)
RMM:   1    -0.413157959885E+03    0.89327E-02   -0.11158E+01  4297   0.747E-01    0.889E-01
RMM:   2    -0.413168505638E+03   -0.10546E-01   -0.13645E-01  4226   0.957E-02    0.632E-01
RMM:   3    -0.413167701988E+03    0.80365E-03   -0.64312E-03  4876   0.373E-02    0.167E-01
RMM:   4    -0.413196120089E+03   -0.28418E-01   -0.29021E-02  5135   0.142E-01    0.704E-01
RMM:   5    -0.413167168335E+03    0.28952E-01   -0.14252E-02  4809   0.117E-01    0.345E-02
RMM:   6    -0.413167328693E+03   -0.16036E-03   -0.21451E-03  5798   0.450E-02    0.177E-02
RMM:   7    -0.413167338281E+03   -0.95883E-05   -0.25412E-04  5833   0.134E-02    0.131E-02
RMM:   8    -0.413167338101E+03    0.18018E-06   -0.34459E-05  4432   0.527E-03    0.826E-03
RMM:   9    -0.413167335983E+03    0.21177E-05   -0.57885E-06  2943   0.279E-03    0.556E-03
RMM:  10    -0.413167335039E+03    0.94451E-06   -0.19281E-06  2547   0.202E-03
   14 T=    61. E= -.41286635E+03 F= -.41316734E+03 E0= -.41314507E+03  EK= 0.30098E+00 SP= 0.00E+00 SK= 0.00E+00
       N       E                     dE             d eps       ncg     rms          rms(c)
RMM:   1    -0.413157928343E+03    0.94076E-02   -0.11247E+01  4305   0.755E-01    0.892E-01
RMM:   2    -0.413169271720E+03   -0.11343E-01   -0.13895E-01  4288   0.997E-02    0.643E-01
RMM:   3    -0.413170658416E+03   -0.13867E-02   -0.87146E-03  5102   0.636E-02    0.278E-01
RMM:   4    -0.413204865434E+03   -0.34207E-01   -0.47473E-02  5114   0.182E-01    0.798E-01
RMM:   5    -0.413167495134E+03    0.37370E-01   -0.16422E-02  4757   0.132E-01    0.509E-02
RMM:   6    -0.413167608176E+03   -0.11304E-03   -0.26279E-03  5654   0.501E-02    0.149E-02
RMM:   7    -0.413167634684E+03   -0.26507E-04   -0.33501E-04  6023   0.151E-02    0.120E-02
RMM:   8    -0.413167637655E+03   -0.29710E-05   -0.41881E-05  4727   0.570E-03    0.709E-03
RMM:   9    -0.413167638668E+03   -0.10138E-05   -0.65144E-06  2917   0.311E-03    0.340E-03
RMM:  10    -0.413167640163E+03   -0.14950E-05   -0.22802E-06  2556   0.207E-03    0.197E-03
RMM:  11    -0.413167641222E+03   -0.10586E-05   -0.10380E-06  2531   0.146E-03    0.904E-04
RMM:  12    -0.413167641696E+03   -0.47399E-06   -0.53797E-07  1978   0.106E-03
   15 T=    61. E= -.41286630E+03 F= -.41316764E+03 E0= -.41314541E+03  EK= 0.30134E+00 SP= 0.00E+00 SK= 0.00E+00
       N       E                     dE             d eps       ncg     rms          rms(c)
RMM:   1    -0.413159641217E+03    0.80000E-02   -0.11292E+01  4302   0.764E-01    0.916E-01
RMM:   2    -0.413169503662E+03   -0.98624E-02   -0.13583E-01  4247   0.100E-01    0.635E-01
RMM:   3    -0.413168974769E+03    0.52889E-03   -0.69401E-03  4927   0.408E-02    0.175E-01
RMM:   4    -0.413202611895E+03   -0.33637E-01   -0.34542E-02  5142   0.154E-01    0.764E-01
RMM:   5    -0.413168344096E+03    0.34268E-01   -0.16855E-02  4807   0.127E-01    0.388E-02
RMM:   6    -0.413168526320E+03   -0.18222E-03   -0.25696E-03  5802   0.492E-02    0.199E-02
RMM:   7    -0.413168534932E+03   -0.86122E-05   -0.30447E-04  5879   0.146E-02    0.145E-02
RMM:   8    -0.413168531619E+03    0.33128E-05   -0.40393E-05  4589   0.568E-03    0.922E-03
RMM:   9    -0.413168525820E+03    0.57995E-05   -0.68020E-06  3037   0.295E-03    0.617E-03
RMM:  10    -0.413168520643E+03    0.51768E-05   -0.21191E-06  2548   0.215E-03    0.315E-03
RMM:  11    -0.413168516289E+03    0.43541E-05   -0.16157E-06  2536   0.191E-03    0.147E-03
RMM:  12    -0.413168513177E+03    0.31119E-05   -0.76120E-07  2444   0.142E-03    0.499E-04
RMM:  13    -0.413168512159E+03    0.10182E-05   -0.32800E-07  2096   0.963E-04    0.325E-04
RMM:  14    -0.413168510814E+03    0.13449E-05   -0.19015E-07  1582   0.767E-04    0.183E-04
RMM:  15    -0.413168508141E+03    0.26731E-05   -0.21134E-07  1599   0.767E-04    0.164E-04
RMM:  16    -0.413168507523E+03    0.61793E-06   -0.79319E-08  1054   0.615E-04
   16 T=    61. E= -.41286652E+03 F= -.41316851E+03 E0= -.41314631E+03  EK= 0.30198E+00 SP= 0.00E+00 SK= 0.00E+00
       N       E                     dE             d eps       ncg     rms          rms(c)
RMM:   1    -0.413159649095E+03    0.88590E-02   -0.11205E+01  4295   0.760E-01    0.896E-01
RMM:   2    -0.413170108297E+03   -0.10459E-01   -0.13657E-01  4261   0.101E-01    0.631E-01
RMM:   3    -0.413169315077E+03    0.79322E-03   -0.66144E-03  4891   0.436E-02    0.176E-01
RMM:   4    -0.413204892903E+03   -0.35578E-01   -0.36636E-02  5143   0.159E-01    0.784E-01
RMM:   5    -0.413168715050E+03    0.36178E-01   -0.17785E-02  4798   0.131E-01    0.394E-02
RMM:   6    -0.413168915783E+03   -0.20073E-03   -0.27699E-03  5792   0.504E-02    0.193E-02
RMM:   7    -0.413168928107E+03   -0.12324E-04   -0.32400E-04  5864   0.149E-02    0.144E-02
RMM:   8    -0.413168926344E+03    0.17625E-05   -0.41379E-05  4554   0.566E-03    0.906E-03
RMM:   9    -0.413168922355E+03    0.39898E-05   -0.70766E-06  3046   0.291E-03    0.611E-03
RMM:  10    -0.413168919071E+03    0.32832E-05   -0.21464E-06  2544   0.216E-03    0.309E-03
RMM:  11    -0.413168916461E+03    0.26109E-05   -0.15718E-06  2531   0.188E-03    0.147E-03
RMM:  12    -0.413168914528E+03    0.19326E-05   -0.74540E-07  2440   0.140E-03    0.499E-04
RMM:  13    -0.413168913880E+03    0.64844E-06   -0.32716E-07  2103   0.961E-04
   17 T=    62. E= -.41286642E+03 F= -.41316891E+03 E0= -.41314675E+03  EK= 0.30249E+00 SP= 0.00E+00 SK= 0.00E+00
       N       E                     dE             d eps       ncg     rms          rms(c)
RMM:   1    -0.413159874486E+03    0.90400E-02   -0.11282E+01  4299   0.769E-01    0.890E-01
RMM:   2    -0.413171197360E+03   -0.11323E-01   -0.13926E-01  4268   0.100E-01    0.644E-01
RMM:   3    -0.413169900766E+03    0.12966E-02   -0.64357E-03  4931   0.386E-02    0.171E-01
RMM:   4    -0.413204535783E+03   -0.34635E-01   -0.35761E-02  5145   0.157E-01    0.774E-01
RMM:   5    -0.413169274131E+03    0.35262E-01   -0.17338E-02  4798   0.129E-01    0.382E-02
RMM:   6    -0.413169476266E+03   -0.20214E-03   -0.27413E-03  5794   0.498E-02    0.182E-02
RMM:   7    -0.413169491683E+03   -0.15417E-04   -0.31775E-04  5867   0.147E-02    0.139E-02
RMM:   8    -0.413169492408E+03   -0.72466E-06   -0.40930E-05  4550   0.561E-03    0.886E-03
RMM:   9    -0.413169491218E+03    0.11899E-05   -0.70704E-06  3037   0.294E-03    0.600E-03
RMM:  10    -0.413169491537E+03   -0.31891E-06   -0.22726E-06  2561   0.219E-03
   18 T=    62. E= -.41286638E+03 F= -.41316949E+03 E0= -.41314737E+03  EK= 0.30312E+00 SP= 0.00E+00 SK= 0.00E+00
       N       E                     dE             d eps       ncg     rms          rms(c)
RMM:   1    -0.413161583802E+03    0.79074E-02   -0.11342E+01  4300   0.771E-01    0.915E-01
RMM:   2    -0.413171492235E+03   -0.99084E-02   -0.13789E-01  4300   0.968E-02    0.639E-01
RMM:   3    -0.413174429149E+03   -0.29369E-02   -0.97489E-03  5119   0.679E-02    0.308E-01
RMM:   4    -0.413200012095E+03   -0.25583E-01   -0.41431E-02  5091   0.171E-01    0.715E-01
RMM:   5    -0.413170457495E+03    0.29555E-01   -0.12433E-02  4714   0.118E-01    0.500E-02
RMM:   6    -0.413170525448E+03   -0.67953E-04   -0.21015E-03  5605   0.442E-02    0.167E-02
RMM:   7    -0.413170540170E+03   -0.14722E-04   -0.26424E-04  6003   0.140E-02    0.119E-02
RMM:   8    -0.413170538039E+03    0.21310E-05   -0.34173E-05  4616   0.541E-03    0.690E-03
RMM:   9    -0.413170530600E+03    0.74388E-05   -0.59712E-06  2851   0.322E-03    0.320E-03
RMM:  10    -0.413170527116E+03    0.34842E-05   -0.17763E-06  2535   0.197E-03    0.184E-03
RMM:  11    -0.413170523293E+03    0.38231E-05   -0.87909E-07  2513   0.144E-03    0.928E-04
RMM:  12    -0.413170520947E+03    0.23455E-05   -0.44114E-07  1990   0.103E-03    0.476E-04
RMM:  13    -0.413170518133E+03    0.28146E-05   -0.32502E-07  1850   0.903E-04    0.231E-04
RMM:  14    -0.413170516645E+03    0.14875E-05   -0.18015E-07  1398   0.725E-04    0.142E-04
RMM:  15    -0.413170513665E+03    0.29806E-05   -0.21020E-07  1622   0.754E-04    0.115E-04
RMM:  16    -0.413170512090E+03    0.15750E-05   -0.11768E-07  1239   0.636E-04    0.994E-05
RMM:  17    -0.413170510074E+03    0.20161E-05   -0.10122E-07  1223   0.623E-04    0.455E-05
RMM:  18    -0.413170508443E+03    0.16308E-05   -0.68847E-08  1038   0.574E-04    0.278E-05
RMM:  19    -0.413170507978E+03    0.46478E-06   -0.34890E-08   832   0.530E-04
   19 T=    62. E= -.41286646E+03 F= -.41317051E+03 E0= -.41314843E+03  EK= 0.30405E+00 SP= 0.00E+00 SK= 0.00E+00
       N       E                     dE             d eps       ncg     rms          rms(c)
RMM:   1    -0.413161862876E+03    0.86456E-02   -0.11298E+01  4299   0.783E-01    0.905E-01
RMM:   2    -0.413172101013E+03   -0.10238E-01   -0.13681E-01  4269   0.101E-01    0.633E-01
RMM:   3    -0.413171655522E+03    0.44549E-03   -0.67893E-03  4959   0.425E-02    0.185E-01
RMM:   4    -0.413211370178E+03   -0.39715E-01   -0.41548E-02  5142   0.169E-01    0.827E-01
RMM:   5    -0.413170907620E+03    0.40463E-01   -0.19722E-02  4796   0.138E-01    0.429E-02
RMM:   6    -0.413171124716E+03   -0.21710E-03   -0.31673E-03  5794   0.533E-02    0.202E-02
RMM:   7    -0.413171136333E+03   -0.11617E-04   -0.36095E-04  5866   0.157E-02    0.152E-02
RMM:   8    -0.413171133200E+03    0.31325E-05   -0.46533E-05  4681   0.593E-03    0.958E-03
RMM:   9    -0.413171127175E+03    0.60250E-05   -0.77565E-06  3109   0.302E-03    0.636E-03
RMM:  10    -0.413171121589E+03    0.55863E-05   -0.23032E-06  2543   0.224E-03    0.317E-03
RMM:  11    -0.413171117434E+03    0.41552E-05   -0.15153E-06  2521   0.188E-03    0.155E-03
RMM:  12    -0.413171114260E+03    0.31740E-05   -0.75924E-07  2453   0.144E-03    0.504E-04
RMM:  13    -0.413171113130E+03    0.11295E-05   -0.34202E-07  2151   0.994E-04    0.324E-04
RMM:  14    -0.413171111913E+03    0.12171E-05   -0.18540E-07  1628   0.770E-04    0.185E-04
RMM:  15    -0.413171109383E+03    0.25299E-05   -0.17259E-07  1528   0.743E-04    0.137E-04
RMM:  16    -0.413171108849E+03    0.53483E-06   -0.71265E-08  1044   0.613E-04
   20 T=    62. E= -.41286624E+03 F= -.41317111E+03 E0= -.41314908E+03  EK= 0.30487E+00 SP= 0.00E+00 SK= 0.00E+00
       N       E                     dE             d eps       ncg     rms          rms(c)
RMM:   1    -0.413162336517E+03    0.87729E-02   -0.11339E+01  4299   0.781E-01    0.891E-01
RMM:   2    -0.413173538188E+03   -0.11202E-01   -0.14096E-01  4257   0.102E-01    0.644E-01
RMM:   3    -0.413172459637E+03    0.10786E-02   -0.65002E-03  4943   0.402E-02    0.175E-01
RMM:   4    -0.413209450993E+03   -0.36991E-01   -0.38457E-02  5138   0.163E-01    0.799E-01
RMM:   5    -0.413171723685E+03    0.37727E-01   -0.18499E-02  4795   0.134E-01    0.395E-02
RMM:   6    -0.413171938235E+03   -0.21455E-03   -0.29620E-03  5791   0.515E-02    0.186E-02
RMM:   7    -0.413171952926E+03   -0.14691E-04   -0.33324E-04  5870   0.152E-02    0.142E-02
RMM:   8    -0.413171952625E+03    0.30094E-06   -0.44066E-05  4649   0.581E-03    0.924E-03
RMM:   9    -0.413171949805E+03    0.28201E-05   -0.73202E-06  3083   0.300E-03    0.625E-03
RMM:  10    -0.413171948379E+03    0.14261E-05   -0.23140E-06  2555   0.225E-03    0.317E-03
RMM:  11    -0.413171947527E+03    0.85173E-06   -0.16829E-06  2540   0.194E-03
   21 T=    62. E= -.41286624E+03 F= -.41317195E+03 E0= -.41314996E+03  EK= 0.30571E+00 SP= 0.00E+00 SK= 0.00E+00
       N       E                     dE             d eps       ncg     rms          rms(c)
RMM:   1    -0.413163550651E+03    0.83977E-02   -0.11414E+01  4301   0.784E-01    0.912E-01
RMM:   2    -0.413174236929E+03   -0.10686E-01   -0.13985E-01  4299   0.100E-01    0.644E-01
RMM:   3    -0.413174317372E+03   -0.80443E-04   -0.73259E-03  5036   0.492E-02    0.212E-01
RMM:   4    -0.413219681009E+03   -0.45364E-01   -0.50809E-02  5132   0.187E-01    0.888E-01
RMM:   5    -0.413172906508E+03    0.46775E-01   -0.22325E-02  4787   0.148E-01    0.470E-02
RMM:   6    -0.413173128176E+03   -0.22167E-03   -0.34936E-03  5776   0.571E-02    0.193E-02
RMM:   7    -0.413173147034E+03   -0.18858E-04   -0.41279E-04  5943   0.168E-02    0.153E-02
RMM:   8    -0.413173144927E+03    0.21076E-05   -0.52812E-05  4829   0.624E-03    0.964E-03
RMM:   9    -0.413173139266E+03    0.56610E-05   -0.81518E-06  3108   0.310E-03    0.597E-03
RMM:  10    -0.413173134032E+03    0.52341E-05   -0.27063E-06  2569   0.237E-03    0.286E-03
RMM:  11    -0.413173130054E+03    0.39777E-05   -0.14464E-06  2523   0.184E-03    0.136E-03
RMM:  12    -0.413173126838E+03    0.32162E-05   -0.75247E-07  2452   0.140E-03    0.452E-04
RMM:  13    -0.413173125194E+03    0.16433E-05   -0.33988E-07  2101   0.976E-04    0.302E-04
RMM:  14    -0.413173122830E+03    0.23642E-05   -0.22130E-07  1653   0.802E-04    0.190E-04
RMM:  15    -0.413173120520E+03    0.23103E-05   -0.15379E-07  1423   0.717E-04    0.110E-04
RMM:  16    -0.413173119642E+03    0.87759E-06   -0.83444E-08  1126   0.629E-04
   22 T=    62. E= -.41286653E+03 F= -.41317312E+03 E0= -.41315118E+03  EK= 0.30659E+00 SP= 0.00E+00 SK= 0.00E+00
       N       E                     dE             d eps       ncg     rms          rms(c)
RMM:   1    -0.413164616029E+03    0.85045E-02   -0.11408E+01  4297   0.790E-01    0.915E-01
RMM:   2    -0.413174755958E+03   -0.10140E-01   -0.13836E-01  4274   0.106E-01    0.636E-01
RMM:   3    -0.413174195594E+03    0.56036E-03   -0.69088E-03  4863   0.451E-02    0.183E-01
RMM:   4    -0.413211345145E+03   -0.37150E-01   -0.38318E-02  5139   0.163E-01    0.800E-01
RMM:   5    -0.413173545557E+03    0.37800E-01   -0.18503E-02  4799   0.134E-01    0.407E-02
RMM:   6    -0.413173755230E+03   -0.20967E-03   -0.29458E-03  5799   0.517E-02    0.208E-02
RMM:   7    -0.413173763254E+03   -0.80241E-05   -0.32605E-04  5871   0.153E-02    0.152E-02
RMM:   8    -0.413173758526E+03    0.47281E-05   -0.43902E-05  4686   0.591E-03    0.978E-03
RMM:   9    -0.413173750582E+03    0.79441E-05   -0.75729E-06  3107   0.306E-03    0.653E-03
RMM:  10    -0.413173742852E+03    0.77297E-05   -0.22320E-06  2544   0.226E-03    0.331E-03
RMM:  11    -0.413173736366E+03    0.64865E-05   -0.16428E-06  2527   0.198E-03    0.162E-03
RMM:  12    -0.413173731848E+03    0.45171E-05   -0.76528E-07  2455   0.147E-03    0.548E-04
RMM:  13    -0.413173730325E+03    0.15237E-05   -0.33847E-07  2138   0.997E-04    0.347E-04
RMM:  14    -0.413173728484E+03    0.18409E-05   -0.18236E-07  1632   0.776E-04    0.191E-04
RMM:  15    -0.413173724623E+03    0.38609E-05   -0.17305E-07  1636   0.759E-04    0.172E-04
RMM:  16    -0.413173723868E+03    0.75489E-06   -0.68612E-08  1033   0.610E-04
   23 T=    63. E= -.41286634E+03 F= -.41317372E+03 E0= -.41315183E+03  EK= 0.30738E+00 SP= 0.00E+00 SK= 0.00E+00
       N       E                     dE             d eps       ncg     rms          rms(c)
RMM:   1    -0.413165453622E+03    0.82710E-02   -0.11395E+01  4295   0.794E-01    0.893E-01
RMM:   2    -0.413176916255E+03   -0.11463E-01   -0.14168E-01  4277   0.106E-01    0.643E-01
RMM:   3    -0.413175656139E+03    0.12601E-02   -0.63799E-03  4805   0.414E-02    0.171E-01
RMM:   4    -0.413205687548E+03   -0.30031E-01   -0.30656E-02  5146   0.145E-01    0.721E-01
RMM:   5    -0.413175166577E+03    0.30521E-01   -0.15103E-02  4800   0.120E-01    0.351E-02
RMM:   6    -0.413175345768E+03   -0.17919E-03   -0.24059E-03  5817   0.459E-02    0.183E-02
RMM:   7    -0.413175356057E+03   -0.10289E-04   -0.25700E-04  5803   0.136E-02    0.131E-02
RMM:   8    -0.413175354811E+03    0.12457E-05   -0.36757E-05  4551   0.543E-03    0.883E-03
RMM:   9    -0.413175350430E+03    0.43815E-05   -0.67511E-06  3085   0.298E-03    0.597E-03
RMM:  10    -0.413175347515E+03    0.29146E-05   -0.19578E-06  2547   0.212E-03    0.315E-03
RMM:  11    -0.413175345060E+03    0.24554E-05   -0.15496E-06  2523   0.190E-03    0.159E-03
RMM:  12    -0.413175343144E+03    0.19159E-05   -0.71758E-07  2432   0.140E-03    0.549E-04
RMM:  13    -0.413175342497E+03    0.64712E-06   -0.30029E-07  2067   0.939E-04
   24 T=    63. E= -.41286677E+03 F= -.41317534E+03 E0= -.41315349E+03  EK= 0.30857E+00 SP= 0.00E+00 SK= 0.00E+00
       N       E                     dE             d eps       ncg     rms          rms(c)
RMM:   1    -0.413166746922E+03    0.85962E-02   -0.11508E+01  4296   0.803E-01    0.909E-01
RMM:   2    -0.413177952177E+03   -0.11205E-01   -0.14144E-01  4276   0.108E-01    0.648E-01
RMM:   3    -0.413176744163E+03    0.12080E-02   -0.65551E-03  4824   0.432E-02    0.174E-01
RMM:   4    -0.413208823486E+03   -0.32079E-01   -0.32753E-02  5143   0.150E-01    0.745E-01
RMM:   5    -0.413176184929E+03    0.32639E-01   -0.16059E-02  4799   0.124E-01    0.366E-02
RMM:   6    -0.413176370669E+03   -0.18574E-03   -0.25918E-03  5810   0.478E-02    0.190E-02
RMM:   7    -0.413176380334E+03   -0.96657E-05   -0.27679E-04  5847   0.141E-02    0.136E-02
RMM:   8    -0.413176377725E+03    0.26091E-05   -0.39324E-05  4621   0.558E-03    0.923E-03
RMM:   9    -0.413176371915E+03    0.58101E-05   -0.71503E-06  3121   0.304E-03    0.625E-03
RMM:  10    -0.413176367229E+03    0.46860E-05   -0.20460E-06  2550   0.219E-03    0.328E-03
RMM:  11    -0.413176363224E+03    0.40051E-05   -0.16126E-06  2525   0.195E-03    0.164E-03
RMM:  12    -0.413176360219E+03    0.30050E-05   -0.73925E-07  2446   0.143E-03    0.550E-04
RMM:  13    -0.413176359173E+03    0.10456E-05   -0.31674E-07  2119   0.961E-04    0.336E-04
RMM:  14    -0.413176357841E+03    0.13324E-05   -0.16874E-07  1565   0.753E-04    0.188E-04
RMM:  15    -0.413176355054E+03    0.27871E-05   -0.16390E-07  1672   0.755E-04    0.189E-04
RMM:  16    -0.413176354450E+03    0.60402E-06   -0.61630E-08  1006   0.596E-04
   25 T=    63. E= -.41286667E+03 F= -.41317635E+03 E0= -.41315456E+03  EK= 0.30968E+00 SP= 0.00E+00 SK= 0.00E+00
       N       E                     dE             d eps       ncg     rms          rms(c)
RMM:   1    -0.413168280915E+03    0.80741E-02   -0.11539E+01  4293   0.812E-01    0.925E-01
RMM:   2    -0.413178331075E+03   -0.10050E-01   -0.14034E-01  4269   0.108E-01    0.640E-01
RMM:   3    -0.413177792950E+03    0.53812E-03   -0.68411E-03  4830   0.406E-02    0.176E-01
RMM:   4    -0.413206203490E+03   -0.28411E-01   -0.28823E-02  5149   0.142E-01    0.702E-01
RMM:   5    -0.413177372627E+03    0.28831E-01   -0.14349E-02  4801   0.117E-01    0.359E-02
RMM:   6    -0.413177527510E+03   -0.15488E-03   -0.22600E-03  5815   0.447E-02    0.193E-02
RMM:   7    -0.413177532138E+03   -0.46283E-05   -0.23805E-04  5790   0.132E-02    0.131E-02
RMM:   8    -0.413177526934E+03    0.52044E-05   -0.36053E-05  4568   0.539E-03    0.900E-03
RMM:   9    -0.413177518479E+03    0.84553E-05   -0.69946E-06  3149   0.305E-03    0.602E-03
RMM:  10    -0.413177510520E+03    0.79585E-05   -0.17988E-06  2537   0.212E-03    0.318E-03
RMM:  11    -0.413177502822E+03    0.76986E-05   -0.15114E-06  2520   0.191E-03    0.158E-03
RMM:  12    -0.413177497155E+03    0.56666E-05   -0.69652E-07  2433   0.141E-03    0.522E-04
RMM:  13    -0.413177495549E+03    0.16055E-05   -0.28439E-07  2079   0.930E-04    0.339E-04
RMM:  14    -0.413177493715E+03    0.18341E-05   -0.14226E-07  1482   0.722E-04    0.196E-04
RMM:  15    -0.413177489023E+03    0.46925E-05   -0.15162E-07  1700   0.751E-04    0.224E-04
RMM:  16    -0.413177488122E+03    0.90131E-06   -0.51651E-08   936   0.582E-04
   26 T=    63. E= -.41286648E+03 F= -.41317749E+03 E0= -.41315574E+03  EK= 0.31101E+00 SP= 0.00E+00 SK= 0.00E+00
       N       E                     dE             d eps       ncg     rms          rms(c)
RMM:   1    -0.413169543377E+03    0.79456E-02   -0.11509E+01  4298   0.813E-01    0.900E-01
RMM:   2    -0.413180624895E+03   -0.11082E-01   -0.14216E-01  4286   0.104E-01    0.643E-01
RMM:   3    -0.413179785257E+03    0.83964E-03   -0.65044E-03  4810   0.431E-02    0.176E-01
RMM:   4    -0.413210707544E+03   -0.30922E-01   -0.31299E-02  5150   0.147E-01    0.731E-01
RMM:   5    -0.413179351838E+03    0.31356E-01   -0.15698E-02  4806   0.122E-01    0.353E-02
RMM:   6    -0.413179514599E+03   -0.16276E-03   -0.23645E-03  5817   0.467E-02    0.186E-02
RMM:   7    -0.413179522520E+03   -0.79211E-05   -0.26161E-04  5830   0.137E-02    0.133E-02
RMM:   8    -0.413179519728E+03    0.27915E-05   -0.37593E-05  4591   0.551E-03    0.892E-03
RMM:   9    -0.413179513694E+03    0.60349E-05   -0.68636E-06  3096   0.303E-03    0.596E-03
RMM:  10    -0.413179508731E+03    0.49622E-05   -0.19744E-06  2548   0.216E-03    0.311E-03
RMM:  11    -0.413179504562E+03    0.41691E-05   -0.15312E-06  2523   0.190E-03    0.153E-03
RMM:  12    -0.413179501436E+03    0.31262E-05   -0.70898E-07  2432   0.140E-03    0.519E-04
RMM:  13    -0.413179500418E+03    0.10182E-05   -0.29270E-07  2057   0.935E-04    0.328E-04
RMM:  14    -0.413179499142E+03    0.12763E-05   -0.15403E-07  1519   0.737E-04    0.184E-04
RMM:  15    -0.413179496436E+03    0.27052E-05   -0.14266E-07  1566   0.731E-04    0.172E-04
RMM:  16    -0.413179495813E+03    0.62311E-06   -0.55446E-08   955   0.591E-04
   27 T=    64. E= -.41286675E+03 F= -.41317950E+03 E0= -.41315780E+03  EK= 0.31275E+00 SP= 0.00E+00 SK= 0.00E+00
       N       E                     dE             d eps       ncg     rms          rms(c)
RMM:   1    -0.413170866099E+03    0.86303E-02   -0.11648E+01  4294   0.833E-01    0.908E-01
RMM:   2    -0.413181729022E+03   -0.10863E-01   -0.14596E-01  4269   0.110E-01    0.655E-01
RMM:   3    -0.413180687294E+03    0.10417E-02   -0.65965E-03  4730   0.434E-02    0.171E-01
RMM:   4    -0.413205834149E+03   -0.25147E-01   -0.25488E-02  5146   0.134E-01    0.663E-01
RMM:   5    -0.413180211827E+03    0.25622E-01   -0.12770E-02  4803   0.110E-01    0.318E-02
RMM:   6    -0.413180341700E+03   -0.12987E-03   -0.19689E-03  5818   0.421E-02    0.172E-02
RMM:   7    -0.413180347138E+03   -0.54372E-05   -0.19991E-04  5703   0.121E-02    0.115E-02
RMM:   8    -0.413180345248E+03    0.18894E-05   -0.30798E-05  4417   0.504E-03    0.822E-03
RMM:   9    -0.413180339955E+03    0.52932E-05   -0.66304E-06  3144   0.304E-03    0.552E-03
RMM:  10    -0.413180336221E+03    0.37337E-05   -0.17345E-06  2534   0.210E-03    0.298E-03
RMM:  11    -0.413180332521E+03    0.37004E-05   -0.14695E-06  2516   0.187E-03    0.151E-03
RMM:  12    -0.413180329712E+03    0.28085E-05   -0.62868E-07  2412   0.134E-03    0.518E-04
RMM:  13    -0.413180328830E+03    0.88204E-06   -0.25736E-07  1975   0.891E-04
   28 T=    64. E= -.41286606E+03 F= -.41318033E+03 E0= -.41315868E+03  EK= 0.31427E+00 SP= 0.00E+00 SK= 0.00E+00
       N       E                     dE             d eps       ncg     rms          rms(c)
RMM:   1    -0.413173242284E+03    0.70874E-02   -0.11728E+01  4295   0.839E-01    0.933E-01
RMM:   2    -0.413183511269E+03   -0.10269E-01   -0.14383E-01  4270   0.111E-01    0.647E-01
RMM:   3    -0.413182786563E+03    0.72471E-03   -0.69454E-03  4582   0.435E-02    0.174E-01
RMM:   4    -0.413199655044E+03   -0.16868E-01   -0.16841E-02  5155   0.109E-01    0.543E-01
RMM:   5    -0.413182664987E+03    0.16990E-01   -0.84981E-03  4821   0.891E-02    0.289E-02
RMM:   6    -0.413182736741E+03   -0.71755E-04   -0.13030E-03  5852   0.337E-02    0.168E-02
RMM:   7    -0.413182735910E+03    0.83173E-06   -0.12802E-04  5490   0.101E-02    0.103E-02
RMM:   8    -0.413182727430E+03    0.84801E-05   -0.20178E-05  4071   0.442E-03    0.678E-03
RMM:   9    -0.413182721337E+03    0.60925E-05   -0.55742E-06  3022   0.296E-03    0.465E-03
RMM:  10    -0.413182714163E+03    0.71736E-05   -0.11976E-06  2510   0.190E-03    0.261E-03
RMM:  11    -0.413182706049E+03    0.81149E-05   -0.11291E-06  2509   0.167E-03    0.131E-03
RMM:  12    -0.413182699612E+03    0.64366E-05   -0.50717E-07  2378   0.123E-03    0.431E-04
RMM:  13    -0.413182698126E+03    0.14865E-05   -0.19396E-07  1757   0.807E-04    0.278E-04
RMM:  14    -0.413182695648E+03    0.24774E-05   -0.10690E-07  1342   0.680E-04    0.152E-04
RMM:  15    -0.413182690948E+03    0.47003E-05   -0.10713E-07  1478   0.696E-04    0.174E-04
RMM:  16    -0.413182689869E+03    0.10793E-05   -0.39790E-08   900   0.570E-04    0.115E-04
RMM:  17    -0.413182685571E+03    0.42976E-05   -0.70037E-08  1284   0.634E-04    0.881E-05
RMM:  18    -0.413182683685E+03    0.18856E-05   -0.34941E-08   930   0.551E-04    0.331E-05
RMM:  19    -0.413182683251E+03    0.43403E-06   -0.15893E-08   731   0.517E-04
   29 T=    64. E= -.41286646E+03 F= -.41318268E+03 E0= -.41316108E+03  EK= 0.31623E+00 SP= 0.00E+00 SK= 0.00E+00
       N       E                     dE             d eps       ncg     rms          rms(c)
RMM:   1    -0.413174573341E+03    0.81103E-02   -0.11688E+01  4290   0.845E-01    0.911E-01
RMM:   2    -0.413185533664E+03   -0.10960E-01   -0.14622E-01  4270   0.112E-01    0.646E-01
RMM:   3    -0.413184426975E+03    0.11067E-02   -0.65927E-03  4477   0.451E-02    0.171E-01
RMM:   4    -0.413195023006E+03   -0.10596E-01   -0.10905E-02  5147   0.909E-02    0.433E-01
RMM:   5    -0.413184311186E+03    0.10712E-01   -0.52374E-03  4814   0.706E-02    0.241E-02
RMM:   6    -0.413184349066E+03   -0.37881E-04   -0.84484E-04  5856   0.267E-02    0.152E-02
RMM:   7    -0.413184348796E+03    0.27013E-06   -0.94115E-05  5447   0.908E-03    0.101E-02
RMM:   8    -0.413184340886E+03    0.79102E-05   -0.13665E-05  3774   0.409E-03    0.524E-03
RMM:   9    -0.413184336035E+03    0.48508E-05   -0.29685E-06  2688   0.246E-03    0.337E-03
RMM:  10    -0.413184331527E+03    0.45079E-05   -0.83831E-07  2491   0.154E-03    0.196E-03
RMM:  11    -0.413184326428E+03    0.50992E-05   -0.66900E-07  2460   0.131E-03    0.922E-04
RMM:  12    -0.413184322578E+03    0.38505E-05   -0.35381E-07  2125   0.983E-04    0.343E-04
RMM:  13    -0.413184321287E+03    0.12908E-05   -0.14874E-07  1376   0.714E-04    0.191E-04
RMM:  14    -0.413184319143E+03    0.21442E-05   -0.10079E-07  1171   0.664E-04    0.113E-04
RMM:  15    -0.413184316058E+03    0.30843E-05   -0.90479E-08  1265   0.666E-04    0.963E-05
RMM:  16    -0.413184315499E+03    0.55980E-06   -0.41534E-08   873   0.579E-04
   30 T=    65. E= -.41286648E+03 F= -.41318432E+03 E0= -.41316277E+03  EK= 0.31783E+00 SP= 0.00E+00 SK= 0.00E+00
       N       E                     dE             d eps       ncg     rms          rms(c)
RMM:   1    -0.413176576988E+03    0.77391E-02   -0.11815E+01  4291   0.881E-01    0.911E-01
RMM:   2    -0.413188157863E+03   -0.11581E-01   -0.15108E-01  4279   0.124E-01    0.660E-01
RMM:   3    -0.413186141691E+03    0.20162E-02   -0.64180E-03  4269   0.430E-02    0.166E-01
RMM:   4    -0.413187315653E+03   -0.11740E-02   -0.20991E-03  5091   0.380E-02    0.147E-01
RMM:   5    -0.413186102262E+03    0.12134E-02   -0.58574E-04  4780   0.243E-02    0.176E-02
RMM:   6    -0.413186096614E+03    0.56482E-05   -0.12315E-04  5536   0.114E-02    0.132E-02
RMM:   7    -0.413186091545E+03    0.50690E-05   -0.28345E-05  4431   0.588E-03    0.464E-03
RMM:   8    -0.413186087682E+03    0.38629E-05   -0.43166E-06  2835   0.285E-03    0.260E-03
RMM:   9    -0.413186086530E+03    0.11523E-05   -0.64615E-07  2462   0.154E-03    0.160E-03
RMM:  10    -0.413186083516E+03    0.30132E-05   -0.51898E-07  2235   0.108E-03    0.807E-04
RMM:  11    -0.413186081110E+03    0.24064E-05   -0.27699E-07  1618   0.827E-04    0.317E-04
RMM:  12    -0.413186079220E+03    0.18899E-05   -0.17186E-07  1496   0.734E-04    0.182E-04
RMM:  13    -0.413186076858E+03    0.23617E-05   -0.12981E-07  1272   0.677E-04    0.938E-05
RMM:  14    -0.413186075290E+03    0.15683E-05   -0.80637E-08  1089   0.610E-04    0.706E-05
RMM:  15    -0.413186073627E+03    0.16635E-05   -0.56426E-08   961   0.577E-04    0.383E-05
RMM:  16    -0.413186071874E+03    0.17527E-05   -0.49623E-08   978   0.574E-04    0.315E-05
RMM:  17    -0.413186071483E+03    0.39089E-06   -0.19933E-08   687   0.520E-04
   31 T=    65. E= -.41286663E+03 F= -.41318607E+03 E0= -.41316457E+03  EK= 0.31945E+00 SP= 0.00E+00 SK= 0.00E+00
       N       E                     dE             d eps       ncg     rms          rms(c)
RMM:   1    -0.413184463909E+03    0.16080E-02   -0.11967E+01  4282   0.928E-01    0.938E-01
RMM:   2    -0.413189825900E+03   -0.53620E-02   -0.15200E-01  4261   0.121E-01    0.655E-01
RMM:   3    -0.413188676769E+03    0.11491E-02   -0.69199E-03  4210   0.465E-02    0.175E-01
RMM:   4    -0.413189050332E+03   -0.37356E-03   -0.12414E-03  4856   0.339E-02    0.706E-02
RMM:   5    -0.413188795246E+03    0.25509E-03   -0.13480E-04  4680   0.128E-02    0.211E-02
RMM:   6    -0.413188781390E+03    0.13856E-04   -0.66049E-05  5242   0.889E-03    0.151E-02
RMM:   7    -0.413188765898E+03    0.15492E-04   -0.23901E-05  4012   0.584E-03    0.455E-03
RMM:   8    -0.413188758877E+03    0.70212E-05   -0.33493E-06  2699   0.280E-03    0.252E-03
RMM:   9    -0.413188755911E+03    0.29661E-05   -0.52236E-07  2289   0.145E-03    0.141E-03
RMM:  10    -0.413188749136E+03    0.67748E-05   -0.35421E-07  1870   0.959E-04    0.552E-04
RMM:  11    -0.413188743817E+03    0.53190E-05   -0.16863E-07  1459   0.737E-04    0.222E-04
RMM:  12    -0.413188740021E+03    0.37956E-05   -0.89296E-08  1207   0.642E-04    0.152E-04
RMM:  13    -0.413188734889E+03    0.51322E-05   -0.80470E-08  1107   0.621E-04    0.802E-05
RMM:  14    -0.413188731215E+03    0.36745E-05   -0.48981E-08   954   0.573E-04    0.742E-05
RMM:  15    -0.413188727986E+03    0.32282E-05   -0.41395E-08   934   0.555E-04    0.556E-05
RMM:  16    -0.413188726040E+03    0.19464E-05   -0.23705E-08   714   0.509E-04    0.345E-05
RMM:  17    -0.413188725652E+03    0.38790E-06   -0.86714E-09   500   0.470E-04
   32 T=    65. E= -.41286719E+03 F= -.41318873E+03 E0= -.41316728E+03  EK= 0.32153E+00 SP= 0.00E+00 SK= 0.00E+00
       N       E                     dE             d eps       ncg     rms          rms(c)
RMM:   1    -0.413192510780E+03   -0.37847E-02   -0.12001E+01  4284   0.947E-01    0.925E-01
RMM:   2    -0.413191970044E+03    0.54074E-03   -0.15670E-01  4269   0.130E-01    0.651E-01
RMM:   3    -0.413190667360E+03    0.13027E-02   -0.65211E-03  4353   0.410E-02    0.182E-01
RMM:   4    -0.413193983620E+03   -0.33163E-02   -0.40529E-03  5146   0.553E-02    0.245E-01
RMM:   5    -0.413190640309E+03    0.33433E-02   -0.16553E-03  4814   0.403E-02    0.217E-02
RMM:   6    -0.413190626601E+03    0.13708E-04   -0.29473E-04  5691   0.174E-02    0.151E-02
RMM:   7    -0.413190618825E+03    0.77764E-05   -0.49757E-05  4950   0.709E-03    0.681E-03
RMM:   8    -0.413190610363E+03    0.84612E-05   -0.79273E-06  3229   0.346E-03    0.330E-03
RMM:   9    -0.413190606188E+03    0.41755E-05   -0.11813E-06  2522   0.185E-03    0.182E-03
RMM:  10    -0.413190600173E+03    0.60145E-05   -0.55323E-07  2351   0.119E-03    0.101E-03
RMM:  11    -0.413190594351E+03    0.58225E-05   -0.34306E-07  2025   0.953E-04    0.408E-04
RMM:  12    -0.413190589751E+03    0.45995E-05   -0.19782E-07  1585   0.788E-04    0.181E-04
RMM:  13    -0.413190587183E+03    0.25687E-05   -0.10964E-07  1167   0.671E-04    0.115E-04
RMM:  14    -0.413190583844E+03    0.33383E-05   -0.86208E-08  1190   0.651E-04    0.662E-05
RMM:  15    -0.413190578579E+03    0.52659E-05   -0.97214E-08  1415   0.673E-04    0.687E-05
RMM:  16    -0.413190577799E+03    0.78002E-06   -0.36963E-08   815   0.548E-04
   33 T=    66. E= -.41286699E+03 F= -.41319058E+03 E0= -.41316918E+03  EK= 0.32359E+00 SP= 0.00E+00 SK= 0.00E+00
       N       E                     dE             d eps       ncg     rms          rms(c)
RMM:   1    -0.413185682131E+03    0.48964E-02   -0.12032E+01  4292   0.925E-01    0.915E-01
RMM:   2    -0.413194692373E+03   -0.90102E-02   -0.15669E-01  4258   0.128E-01    0.664E-01
RMM:   3    -0.413193392161E+03    0.13002E-02   -0.64489E-03  4451   0.485E-02    0.176E-01
RMM:   4    -0.413203074834E+03   -0.96827E-02   -0.99881E-03  5162   0.868E-02    0.414E-01
RMM:   5    -0.413193361457E+03    0.97134E-02   -0.47925E-03  4813   0.680E-02    0.241E-02
RMM:   6    -0.413193346680E+03    0.14777E-04   -0.73155E-04  5827   0.270E-02    0.149E-02
RMM:   7    -0.413193348419E+03   -0.17392E-05   -0.95635E-05  5421   0.925E-03    0.946E-03
RMM:   8    -0.413193342544E+03    0.58753E-05   -0.13480E-05  3757   0.412E-03    0.479E-03
RMM:   9    -0.413193339376E+03    0.31676E-05   -0.27926E-06  2675   0.240E-03    0.272E-03
RMM:  10    -0.413193336068E+03    0.33082E-05   -0.82713E-07  2482   0.148E-03    0.155E-03
RMM:  11    -0.413193332244E+03    0.38240E-05   -0.60037E-07  2413   0.121E-03    0.736E-04
RMM:  12    -0.413193329210E+03    0.30336E-05   -0.33371E-07  1936   0.930E-04    0.286E-04
RMM:  13    -0.413193327984E+03    0.12267E-05   -0.15147E-07  1283   0.713E-04    0.171E-04
RMM:  14    -0.413193326086E+03    0.18974E-05   -0.11132E-07  1173   0.673E-04    0.975E-05
RMM:  15    -0.413193323864E+03    0.22218E-05   -0.88855E-08  1152   0.655E-04    0.659E-05
RMM:  16    -0.413193323331E+03    0.53379E-06   -0.48542E-08   904   0.596E-04
   34 T=    66. E= -.41286716E+03 F= -.41319332E+03 E0= -.41317197E+03  EK= 0.32616E+00 SP= 0.00E+00 SK= 0.00E+00
       N       E                     dE             d eps       ncg     rms          rms(c)
RMM:   1    -0.413186509738E+03    0.68141E-02   -0.12145E+01  4301   0.935E-01    0.941E-01
RMM:   2    -0.413197390553E+03   -0.10881E-01   -0.15747E-01  4265   0.134E-01    0.664E-01
RMM:   3    -0.413196061294E+03    0.13293E-02   -0.66573E-03  4404   0.424E-02    0.180E-01
RMM:   4    -0.413199626312E+03   -0.35650E-02   -0.43690E-03  5163   0.564E-02    0.257E-01
RMM:   5    -0.413195951891E+03    0.36744E-02   -0.18366E-03  4811   0.423E-02    0.220E-02
RMM:   6    -0.413195938790E+03    0.13101E-04   -0.32237E-04  5698   0.180E-02    0.151E-02
RMM:   7    -0.413195931272E+03    0.75181E-05   -0.52308E-05  4905   0.726E-03    0.653E-03
RMM:   8    -0.413195922903E+03    0.83687E-05   -0.77564E-06  3179   0.336E-03    0.328E-03
RMM:   9    -0.413195918822E+03    0.40811E-05   -0.11820E-06  2522   0.183E-03    0.188E-03
RMM:  10    -0.413195912455E+03    0.63672E-05   -0.58129E-07  2372   0.123E-03    0.106E-03
RMM:  11    -0.413195906595E+03    0.58599E-05   -0.35276E-07  2055   0.967E-04    0.430E-04
RMM:  12    -0.413195901470E+03    0.51250E-05   -0.20663E-07  1607   0.800E-04    0.174E-04
RMM:  13    -0.413195898385E+03    0.30844E-05   -0.11886E-07  1234   0.688E-04    0.111E-04
RMM:  14    -0.413195894631E+03    0.37542E-05   -0.91157E-08  1217   0.658E-04    0.661E-05
RMM:  15    -0.413195888712E+03    0.59193E-05   -0.99242E-08  1433   0.678E-04    0.734E-05
RMM:  16    -0.413195887847E+03    0.86471E-06   -0.39695E-08   869   0.557E-04
   35 T=    67. E= -.41286704E+03 F= -.41319589E+03 E0= -.41317458E+03  EK= 0.32885E+00 SP= 0.00E+00 SK= 0.00E+00
       N       E                     dE             d eps       ncg     rms          rms(c)
RMM:   1    -0.413189566434E+03    0.63223E-02   -0.12194E+01  4297   0.964E-01    0.943E-01
RMM:   2    -0.413199247970E+03   -0.96815E-02   -0.15656E-01  4255   0.123E-01    0.658E-01
RMM:   3    -0.413198410044E+03    0.83793E-03   -0.69662E-03  4794   0.456E-02    0.194E-01
RMM:   4    -0.413227872851E+03   -0.29463E-01   -0.29573E-02  5156   0.144E-01    0.716E-01
RMM:   5    -0.413198118689E+03    0.29754E-01   -0.15010E-02  4799   0.119E-01    0.368E-02
RMM:   6    -0.413198152451E+03   -0.33761E-04   -0.23425E-03  5847   0.457E-02    0.192E-02
RMM:   7    -0.413198163479E+03   -0.11028E-04   -0.24619E-04  5779   0.134E-02    0.132E-02
RMM:   8    -0.413198155983E+03    0.74956E-05   -0.34043E-05  4589   0.545E-03    0.877E-03
RMM:   9    -0.413198149699E+03    0.62844E-05   -0.90244E-06  3456   0.351E-03    0.563E-03
RMM:  10    -0.413198140451E+03    0.92475E-05   -0.20909E-06  2543   0.239E-03    0.276E-03
RMM:  11    -0.413198133146E+03    0.73058E-05   -0.14106E-06  2513   0.186E-03    0.150E-03
RMM:  12    -0.413198125252E+03    0.78935E-05   -0.70778E-07  2445   0.147E-03    0.562E-04
RMM:  13    -0.413198122735E+03    0.25171E-05   -0.29327E-07  2139   0.971E-04    0.398E-04
RMM:  14    -0.413198120815E+03    0.19198E-05   -0.13222E-07  1456   0.718E-04    0.241E-04
RMM:  15    -0.413198114489E+03    0.63259E-05   -0.12722E-07  1687   0.734E-04    0.242E-04
RMM:  16    -0.413198113581E+03    0.90862E-06   -0.44401E-08   919   0.572E-04
   36 T=    67. E= -.41286671E+03 F= -.41319811E+03 E0= -.41317685E+03  EK= 0.33140E+00 SP= 0.00E+00 SK= 0.00E+00
       N       E                     dE             d eps       ncg     rms          rms(c)
RMM:   1    -0.413191177724E+03    0.69368E-02   -0.12256E+01  4302   0.987E-01    0.924E-01
RMM:   2    -0.413202976933E+03   -0.11799E-01   -0.16316E-01  4252   0.134E-01    0.670E-01
RMM:   3    -0.413201462058E+03    0.15149E-02   -0.66941E-03  4806   0.504E-02    0.200E-01
RMM:   4    -0.413239815897E+03   -0.38354E-01   -0.38967E-02  5156   0.165E-01    0.814E-01
RMM:   5    -0.413200913437E+03    0.38902E-01   -0.19542E-02  4789   0.136E-01    0.400E-02
RMM:   6    -0.413200986276E+03   -0.72838E-04   -0.30683E-03  5853   0.520E-02    0.196E-02
RMM:   7    -0.413201004115E+03   -0.17839E-04   -0.30315E-04  5737   0.146E-02    0.133E-02
RMM:   8    -0.413200999362E+03    0.47526E-05   -0.36435E-05  4333   0.533E-03    0.872E-03
RMM:   9    -0.413200996518E+03    0.28444E-05   -0.12446E-05  3830   0.377E-03    0.611E-03
RMM:  10    -0.413200990019E+03    0.64989E-05   -0.29687E-06  2630   0.265E-03    0.293E-03
RMM:  11    -0.413200984923E+03    0.50961E-05   -0.18222E-06  2535   0.209E-03    0.166E-03
RMM:  12    -0.413200980325E+03    0.45975E-05   -0.80356E-07  2472   0.156E-03    0.652E-04
RMM:  13    -0.413200978869E+03    0.14559E-05   -0.32037E-07  2196   0.101E-03    0.464E-04
RMM:  14    -0.413200977477E+03    0.13927E-05   -0.14188E-07  1515   0.739E-04    0.254E-04
RMM:  15    -0.413200972699E+03    0.47775E-05   -0.17709E-07  1936   0.790E-04    0.373E-04
RMM:  16    -0.413200972249E+03    0.45003E-06   -0.47325E-08   942   0.567E-04
   37 T=    68. E= -.41286668E+03 F= -.41320097E+03 E0= -.41317975E+03  EK= 0.33429E+00 SP= 0.00E+00 SK= 0.00E+00
       N       E                     dE             d eps       ncg     rms          rms(c)
RMM:   1    -0.413195725427E+03    0.52473E-02   -0.12443E+01  4307   0.104E+00    0.945E-01
RMM:   2    -0.413205737820E+03   -0.10012E-01   -0.16336E-01  4249   0.128E-01    0.674E-01
RMM:   3    -0.413204130061E+03    0.16078E-02   -0.69391E-03  4771   0.492E-02    0.199E-01
RMM:   4    -0.413236966036E+03   -0.32836E-01   -0.33170E-02  5151   0.152E-01    0.755E-01
RMM:   5    -0.413203664200E+03    0.33302E-01   -0.16866E-02  4798   0.126E-01    0.380E-02
RMM:   6    -0.413203716325E+03   -0.52125E-04   -0.26506E-03  5839   0.481E-02    0.192E-02
RMM:   7    -0.413203730479E+03   -0.14154E-04   -0.27542E-04  5770   0.139E-02    0.133E-02
RMM:   8    -0.413203724217E+03    0.62619E-05   -0.36641E-05  4619   0.553E-03    0.886E-03
RMM:   9    -0.413203719769E+03    0.44479E-05   -0.10403E-05  3607   0.357E-03    0.581E-03
RMM:  10    -0.413203712128E+03    0.76416E-05   -0.22845E-06  2547   0.241E-03    0.286E-03
RMM:  11    -0.413203706244E+03    0.58835E-05   -0.14931E-06  2510   0.191E-03    0.157E-03
RMM:  12    -0.413203700249E+03    0.59950E-05   -0.72889E-07  2450   0.148E-03    0.567E-04
RMM:  13    -0.413203698120E+03    0.21293E-05   -0.30615E-07  2150   0.986E-04    0.393E-04
RMM:  14    -0.413203696405E+03    0.17154E-05   -0.13922E-07  1466   0.730E-04    0.224E-04
RMM:  15    -0.413203690790E+03    0.56147E-05   -0.14258E-07  1737   0.752E-04    0.260E-04
RMM:  16    -0.413203689997E+03    0.79272E-06   -0.47277E-08   932   0.579E-04
   38 T=    69. E= -.41286687E+03 F= -.41320369E+03 E0= -.41318251E+03  EK= 0.33682E+00 SP= 0.00E+00 SK= 0.00E+00
       N       E                     dE             d eps       ncg     rms          rms(c)
RMM:   1    -0.413201315401E+03    0.23754E-02   -0.12533E+01  4305   0.109E+00    0.960E-01
RMM:   2    -0.413207215940E+03   -0.59005E-02   -0.16655E-01  4264   0.127E-01    0.668E-01
RMM:   3    -0.413206823154E+03    0.39279E-03   -0.77041E-03  5029   0.549E-02    0.236E-01
RMM:   4    -0.413258347075E+03   -0.51524E-01   -0.55918E-02  5128   0.196E-01    0.944E-01
RMM:   5    -0.413205595643E+03    0.52751E-01   -0.25902E-02  4782   0.159E-01    0.500E-02
RMM:   6    -0.413205733320E+03   -0.13768E-03   -0.42355E-03  5819   0.607E-02    0.223E-02
RMM:   7    -0.413205755080E+03   -0.21760E-04   -0.43633E-04  5862   0.174E-02    0.156E-02
RMM:   8    -0.413205753134E+03    0.19461E-05   -0.62816E-05  4979   0.674E-03    0.115E-02
RMM:   9    -0.413205742456E+03    0.10679E-04   -0.13378E-05  3867   0.402E-03    0.673E-03
RMM:  10    -0.413205732061E+03    0.10395E-04   -0.38139E-06  2664   0.292E-03    0.318E-03
RMM:  11    -0.413205724689E+03    0.73722E-05   -0.16211E-06  2507   0.207E-03    0.182E-03
RMM:  12    -0.413205716397E+03    0.82921E-05   -0.84215E-07  2467   0.161E-03    0.657E-04
RMM:  13    -0.413205712406E+03    0.39907E-05   -0.35882E-07  2263   0.108E-03    0.417E-04
RMM:  14    -0.413205708880E+03    0.35262E-05   -0.17895E-07  1739   0.794E-04    0.270E-04
RMM:  15    -0.413205701355E+03    0.75252E-05   -0.14338E-07  1725   0.756E-04    0.227E-04
RMM:  16    -0.413205700365E+03    0.98958E-06   -0.61130E-08  1035   0.593E-04
   39 T=    69. E= -.41286652E+03 F= -.41320570E+03 E0= -.41318456E+03  EK= 0.33918E+00 SP= 0.00E+00 SK= 0.00E+00
       N       E                     dE             d eps       ncg     rms          rms(c)
RMM:   1    -0.413204630953E+03    0.10704E-02   -0.12552E+01  4312   0.114E+00    0.936E-01
RMM:   2    -0.413210857138E+03   -0.62262E-02   -0.16741E-01  4261   0.132E-01    0.673E-01
RMM:   3    -0.413210288301E+03    0.56884E-03   -0.74050E-03  5028   0.557E-02    0.240E-01
RMM:   4    -0.413264413683E+03   -0.54125E-01   -0.59435E-02  5129   0.202E-01    0.966E-01
RMM:   5    -0.413208874393E+03    0.55539E-01   -0.27206E-02  4778   0.163E-01    0.506E-02
RMM:   6    -0.413209016762E+03   -0.14237E-03   -0.43931E-03  5811   0.618E-02    0.219E-02
RMM:   7    -0.413209040839E+03   -0.24077E-04   -0.45716E-04  5897   0.177E-02    0.158E-02
RMM:   8    -0.413209040679E+03    0.16021E-06   -0.66644E-05  5012   0.691E-03    0.116E-02
RMM:   9    -0.413209031701E+03    0.89780E-05   -0.13139E-05  3813   0.400E-03    0.658E-03
RMM:  10    -0.413209024532E+03    0.71694E-05   -0.39532E-06  2675   0.288E-03    0.310E-03
RMM:  11    -0.413209019661E+03    0.48709E-05   -0.16690E-06  2516   0.206E-03    0.176E-03
RMM:  12    -0.413209014291E+03    0.53696E-05   -0.83092E-07  2463   0.157E-03    0.662E-04
RMM:  13    -0.413209011550E+03    0.27416E-05   -0.36045E-07  2237   0.107E-03    0.411E-04
RMM:  14    -0.413209008811E+03    0.27387E-05   -0.18955E-07  1733   0.800E-04    0.254E-04
RMM:  15    -0.413209003867E+03    0.49440E-05   -0.14234E-07  1548   0.730E-04    0.180E-04
RMM:  16    -0.413209002995E+03    0.87154E-06   -0.64235E-08  1033   0.603E-04
   40 T=    70. E= -.41286715E+03 F= -.41320900E+03 E0= -.41318790E+03  EK= 0.34185E+00 SP= 0.00E+00 SK= 0.00E+00
       N       E                     dE             d eps       ncg     rms          rms(c)
RMM:   1    -0.413207986483E+03    0.10174E-02   -0.12733E+01  4306   0.120E+00    0.947E-01
RMM:   2    -0.413212403551E+03   -0.44171E-02   -0.17550E-01  4264   0.140E-01    0.684E-01
RMM:   3    -0.413211972899E+03    0.43065E-03   -0.76751E-03  5046   0.577E-02    0.255E-01
RMM:   4    -0.413268490649E+03   -0.56518E-01   -0.63139E-02  5128   0.208E-01    0.988E-01
RMM:   5    -0.413210323855E+03    0.58167E-01   -0.28462E-02  4772   0.167E-01    0.520E-02
RMM:   6    -0.413210472743E+03   -0.14889E-03   -0.44532E-03  5814   0.631E-02    0.220E-02
RMM:   7    -0.413210497681E+03   -0.24938E-04   -0.47361E-04  5915   0.182E-02    0.162E-02
RMM:   8    -0.413210497914E+03   -0.23291E-06   -0.70668E-05  5098   0.715E-03    0.117E-02
RMM:   9    -0.413210489124E+03    0.87905E-05   -0.12775E-05  3769   0.403E-03    0.641E-03
RMM:  10    -0.413210482330E+03    0.67939E-05   -0.41810E-06  2693   0.294E-03    0.301E-03
RMM:  11    -0.413210477707E+03    0.46225E-05   -0.16476E-06  2513   0.206E-03    0.161E-03
RMM:  12    -0.413210472765E+03    0.49428E-05   -0.81464E-07  2461   0.155E-03    0.636E-04
RMM:  13    -0.413210470177E+03    0.25876E-05   -0.35583E-07  2219   0.106E-03    0.399E-04
RMM:  14    -0.413210467304E+03    0.28734E-05   -0.19511E-07  1707   0.803E-04    0.251E-04
RMM:  15    -0.413210463102E+03    0.42020E-05   -0.13989E-07  1464   0.719E-04    0.155E-04
RMM:  16    -0.413210461999E+03    0.11031E-05   -0.71056E-08  1060   0.613E-04    0.757E-05
RMM:  17    -0.413210459929E+03    0.20698E-05   -0.57211E-08  1037   0.610E-04    0.460E-05
RMM:  18    -0.413210456646E+03    0.32828E-05   -0.61741E-08  1195   0.628E-04    0.455E-05
RMM:  19    -0.413210456144E+03    0.50156E-06   -0.25882E-08   808   0.561E-04
   41 T=    70. E= -.41286665E+03 F= -.41321046E+03 E0= -.41318938E+03  EK= 0.34380E+00 SP= 0.00E+00 SK= 0.00E+00
       N       E                     dE             d eps       ncg     rms          rms(c)
RMM:   1    -0.413217572549E+03   -0.71159E-02   -0.12873E+01  4311   0.128E+00    0.973E-01
RMM:   2    -0.413214524792E+03    0.30478E-02   -0.17894E-01  4289   0.146E-01    0.677E-01
RMM:   3    -0.413216920377E+03   -0.23956E-02   -0.10035E-02  5115   0.731E-02    0.331E-01
RMM:   4    -0.413251976014E+03   -0.35056E-01   -0.50685E-02  5091   0.189E-01    0.820E-01
RMM:   5    -0.413213187801E+03    0.38788E-01   -0.17555E-02  4735   0.137E-01    0.503E-02
RMM:   6    -0.413213232180E+03   -0.44379E-04   -0.28460E-03  5753   0.509E-02    0.201E-02
RMM:   7    -0.413213245609E+03   -0.13429E-04   -0.33722E-04  5902   0.158E-02    0.152E-02
RMM:   8    -0.413213242499E+03    0.31103E-05   -0.55062E-05  5004   0.662E-03    0.979E-03
RMM:   9    -0.413213230065E+03    0.12434E-04   -0.97355E-06  3398   0.400E-03    0.442E-03
RMM:  10    -0.413213221729E+03    0.83357E-05   -0.28500E-06  2589   0.244E-03    0.229E-03
RMM:  11    -0.413213214301E+03    0.74281E-05   -0.10449E-06  2503   0.164E-03    0.104E-03
RMM:  12    -0.413213208566E+03    0.57352E-05   -0.42551E-07  2313   0.114E-03    0.498E-04
RMM:  13    -0.413213203625E+03    0.49404E-05   -0.24076E-07  1656   0.845E-04    0.246E-04
RMM:  14    -0.413213199796E+03    0.38291E-05   -0.15236E-07  1358   0.735E-04    0.149E-04
RMM:  15    -0.413213194046E+03    0.57503E-05   -0.12958E-07  1431   0.720E-04    0.896E-05
RMM:  16    -0.413213190594E+03    0.34518E-05   -0.90436E-08  1299   0.650E-04    0.574E-05
RMM:  17    -0.413213186490E+03    0.41043E-05   -0.75018E-08  1285   0.625E-04    0.437E-05
RMM:  18    -0.413213184720E+03    0.17699E-05   -0.46663E-08  1003   0.562E-04    0.326E-05
RMM:  19    -0.413213184155E+03    0.56442E-06   -0.27757E-08   811   0.530E-04
   42 T=    70. E= -.41286718E+03 F= -.41321318E+03 E0= -.41319214E+03  EK= 0.34600E+00 SP= 0.00E+00 SK= 0.00E+00
       N       E                     dE             d eps       ncg     rms          rms(c)
RMM:   1    -0.413217184572E+03   -0.39999E-02   -0.12822E+01  4311   0.134E+00    0.949E-01
RMM:   2    -0.413216544949E+03    0.63962E-03   -0.17598E-01  4301   0.155E-01    0.677E-01
RMM:   3    -0.413220029769E+03   -0.34848E-02   -0.10738E-02  5108   0.802E-02    0.360E-01
RMM:   4    -0.413249901916E+03   -0.29872E-01   -0.48603E-02  5068   0.186E-01    0.778E-01
RMM:   5    -0.413215249145E+03    0.34653E-01   -0.15231E-02  4711   0.130E-01    0.487E-02
RMM:   6    -0.413215273770E+03   -0.24625E-04   -0.25043E-03  5730   0.479E-02    0.191E-02
RMM:   7    -0.413215284102E+03   -0.10332E-04   -0.29215E-04  5884   0.151E-02    0.147E-02
RMM:   8    -0.413215281497E+03    0.26053E-05   -0.49564E-05  4938   0.638E-03    0.915E-03
RMM:   9    -0.413215271215E+03    0.10282E-04   -0.94641E-06  3375   0.405E-03    0.415E-03
RMM:  10    -0.413215265063E+03    0.61525E-05   -0.25642E-06  2570   0.237E-03    0.222E-03
RMM:  11    -0.413215259698E+03    0.53645E-05   -0.10410E-06  2510   0.159E-03    0.103E-03
RMM:  12    -0.413215255510E+03    0.41883E-05   -0.43351E-07  2283   0.111E-03    0.489E-04
RMM:  13    -0.413215251326E+03    0.41839E-05   -0.27195E-07  1651   0.857E-04    0.246E-04
RMM:  14    -0.413215248907E+03    0.24190E-05   -0.16594E-07  1310   0.729E-04    0.142E-04
RMM:  15    -0.413215244684E+03    0.42225E-05   -0.13709E-07  1309   0.709E-04    0.711E-05
RMM:  16    -0.413215241633E+03    0.30516E-05   -0.10065E-07  1239   0.665E-04    0.504E-05
RMM:  17    -0.413215238807E+03    0.28263E-05   -0.79813E-08  1256   0.636E-04    0.418E-05
RMM:  18    -0.413215236797E+03    0.20094E-05   -0.53789E-08  1062   0.584E-04    0.347E-05
RMM:  19    -0.413215236219E+03    0.57841E-06   -0.31029E-08   803   0.532E-04
   43 T=    71. E= -.41286723E+03 F= -.41321524E+03 E0= -.41319422E+03  EK= 0.34801E+00 SP= 0.00E+00 SK= 0.00E+00
       N       E                     dE             d eps       ncg     rms          rms(c)
RMM:   1    -0.413242819819E+03   -0.27583E-01   -0.13200E+01  4312   0.152E+00    0.949E-01
RMM:   2    -0.413218046700E+03    0.24773E-01   -0.20598E-01  4313   0.176E-01    0.695E-01
RMM:   3    -0.413222774326E+03   -0.47276E-02   -0.11840E-02  5105   0.897E-02    0.415E-01
RMM:   4    -0.413249381554E+03   -0.26607E-01   -0.49803E-02  5056   0.189E-01    0.766E-01
RMM:   5    -0.413216439302E+03    0.32942E-01   -0.14388E-02  4697   0.129E-01    0.519E-02
RMM:   6    -0.413216441712E+03   -0.24100E-05   -0.23848E-03  5689   0.469E-02    0.197E-02
RMM:   7    -0.413216451696E+03   -0.99840E-05   -0.29253E-04  5906   0.153E-02    0.153E-02
RMM:   8    -0.413216448950E+03    0.27459E-05   -0.47766E-05  4916   0.637E-03    0.930E-03
RMM:   9    -0.413216439742E+03    0.92078E-05   -0.11114E-05  3520   0.445E-03    0.445E-03
RMM:  10    -0.413216434972E+03    0.47697E-05   -0.28016E-06  2595   0.248E-03    0.256E-03
RMM:  11    -0.413216431164E+03    0.38086E-05   -0.13269E-06  2541   0.175E-03    0.112E-03
RMM:  12    -0.413216428409E+03    0.27544E-05   -0.53804E-07  2425   0.123E-03    0.581E-04
RMM:  13    -0.413216424924E+03    0.34860E-05   -0.37412E-07  1784   0.957E-04    0.343E-04
RMM:  14    -0.413216423259E+03    0.16643E-05   -0.20738E-07  1382   0.781E-04    0.188E-04
RMM:  15    -0.413216420895E+03    0.23637E-05   -0.15626E-07  1283   0.729E-04    0.962E-05
RMM:  16    -0.413216417958E+03    0.29374E-05   -0.12978E-07  1323   0.705E-04    0.557E-05
RMM:  17    -0.413216416652E+03    0.13058E-05   -0.82050E-08  1117   0.630E-04    0.450E-05
RMM:  18    -0.413216414673E+03    0.19794E-05   -0.69356E-08  1108   0.606E-04    0.327E-05
RMM:  19    -0.413216413802E+03    0.87124E-06   -0.42038E-08   890   0.560E-04
   44 T=    71. E= -.41286691E+03 F= -.41321641E+03 E0= -.41319543E+03  EK= 0.34950E+00 SP= 0.00E+00 SK= 0.00E+00
       N       E                     dE             d eps       ncg     rms          rms(c)
RMM:   1    -0.413231086941E+03   -0.14672E-01   -0.13144E+01  4307   0.155E+00    0.980E-01
RMM:   2    -0.413218956750E+03    0.12130E-01   -0.18769E-01  4386   0.181E-01    0.686E-01
RMM:   3    -0.413231293235E+03   -0.12336E-01   -0.18677E-02  5130   0.117E-01    0.532E-01
RMM:   4    -0.413234182015E+03   -0.28888E-02   -0.38111E-02  5017   0.170E-01    0.549E-01
RMM:   5    -0.413218481970E+03    0.15700E-01   -0.60926E-03  4569   0.953E-02    0.437E-02
RMM:   6    -0.413218435648E+03    0.46323E-04   -0.10707E-03  5342   0.322E-02    0.180E-02
RMM:   7    -0.413218435108E+03    0.53928E-06   -0.12270E-04  5672   0.107E-02    0.134E-02
RMM:   8    -0.413218430155E+03    0.49537E-05   -0.35223E-05  4990   0.591E-03    0.817E-03
RMM:   9    -0.413218414599E+03    0.15556E-04   -0.98090E-06  3520   0.439E-03    0.390E-03
RMM:  10    -0.413218409504E+03    0.50953E-05   -0.15470E-06  2541   0.204E-03    0.188E-03
RMM:  11    -0.413218403222E+03    0.62815E-05   -0.97597E-07  2496   0.154E-03    0.990E-04
RMM:  12    -0.413218397720E+03    0.55026E-05   -0.41234E-07  2354   0.111E-03    0.479E-04
RMM:  13    -0.413218393209E+03    0.45107E-05   -0.22072E-07  1465   0.787E-04    0.228E-04
RMM:  14    -0.413218390161E+03    0.30476E-05   -0.13383E-07  1191   0.684E-04    0.146E-04
RMM:  15    -0.413218383799E+03    0.63627E-05   -0.13514E-07  1402   0.711E-04    0.986E-05
RMM:  16    -0.413218381483E+03    0.23150E-05   -0.72214E-08  1054   0.609E-04    0.810E-05
RMM:  17    -0.413218378301E+03    0.31820E-05   -0.60402E-08  1064   0.592E-04    0.510E-05
RMM:  18    -0.413218376070E+03    0.22317E-05   -0.48010E-08   975   0.565E-04    0.276E-05
RMM:  19    -0.413218375398E+03    0.67133E-06   -0.25682E-08   766   0.522E-04
   45 T=    71. E= -.41286727E+03 F= -.41321838E+03 E0= -.41319741E+03  EK= 0.35110E+00 SP= 0.00E+00 SK= 0.00E+00
       N       E                     dE             d eps       ncg     rms          rms(c)
RMM:   1    -0.413242939398E+03   -0.24563E-01   -0.13189E+01  4307   0.167E+00    0.964E-01
RMM:   2    -0.413219268150E+03    0.23671E-01   -0.18631E-01  4409   0.194E-01    0.682E-01
RMM:   3    -0.413234614770E+03   -0.15347E-01   -0.21302E-02  5132   0.127E-01    0.579E-01
RMM:   4    -0.413231760586E+03    0.28542E-02   -0.37295E-02  4990   0.169E-01    0.505E-01
RMM:   5    -0.413218834529E+03    0.12926E-01   -0.51005E-03  4550   0.909E-02    0.436E-02
RMM:   6    -0.413218764323E+03    0.70207E-04   -0.78411E-04  5072   0.290E-02    0.176E-02
RMM:   7    -0.413218763531E+03    0.79180E-06   -0.99408E-05  5660   0.948E-03    0.113E-02
RMM:   8    -0.413218758656E+03    0.48748E-05   -0.32641E-05  5022   0.598E-03    0.757E-03
RMM:   9    -0.413218746785E+03    0.11872E-04   -0.13898E-05  4066   0.448E-03    0.438E-03
RMM:  10    -0.413218743036E+03    0.37490E-05   -0.18637E-06  2513   0.223E-03    0.192E-03
RMM:  11    -0.413218737965E+03    0.50710E-05   -0.13568E-06  2464   0.183E-03    0.114E-03
RMM:  12    -0.413218732730E+03    0.52343E-05   -0.52240E-07  2362   0.131E-03    0.626E-04
RMM:  13    -0.413218729082E+03    0.36482E-05   -0.22522E-07  1734   0.854E-04    0.330E-04
RMM:  14    -0.413218725374E+03    0.37083E-05   -0.12877E-07  1246   0.693E-04    0.163E-04
RMM:  15    -0.413218719894E+03    0.54797E-05   -0.12723E-07  1386   0.695E-04    0.148E-04
RMM:  16    -0.413218717595E+03    0.22996E-05   -0.60099E-08   898   0.565E-04    0.114E-04
RMM:  17    -0.413218714142E+03    0.34527E-05   -0.57442E-08   932   0.568E-04    0.465E-05
RMM:  18    -0.413218712242E+03    0.18997E-05   -0.39184E-08   866   0.545E-04    0.393E-05
RMM:  19    -0.413218711327E+03    0.91522E-06   -0.22236E-08   696   0.514E-04
   46 T=    72. E= -.41286694E+03 F= -.41321871E+03 E0= -.41319776E+03  EK= 0.35177E+00 SP= 0.00E+00 SK= 0.00E+00
       N       E                     dE             d eps       ncg     rms          rms(c)
RMM:   1    -0.413263229264E+03   -0.44517E-01   -0.13452E+01  4311   0.183E+00    0.949E-01
RMM:   2    -0.413219992741E+03    0.43237E-01   -0.22377E-01  4419   0.212E-01    0.699E-01
RMM:   3    -0.413234462046E+03   -0.14469E-01   -0.20532E-02  5131   0.128E-01    0.598E-01
RMM:   4    -0.413233698452E+03    0.76359E-03   -0.39696E-02  5004   0.175E-01    0.550E-01
RMM:   5    -0.413218831810E+03    0.14867E-01   -0.64973E-03  4555   0.994E-02    0.489E-02
RMM:   6    -0.413218751517E+03    0.80293E-04   -0.97573E-04  5156   0.322E-02    0.194E-02
RMM:   7    -0.413218750889E+03    0.62757E-06   -0.13212E-04  5814   0.108E-02    0.138E-02
RMM:   8    -0.413218748276E+03    0.26127E-05   -0.39902E-05  5109   0.612E-03    0.917E-03
RMM:   9    -0.413218735593E+03    0.12683E-04   -0.15475E-05  4156   0.512E-03    0.487E-03
RMM:  10    -0.413218731995E+03    0.35987E-05   -0.22470E-06  2564   0.228E-03    0.235E-03
RMM:  11    -0.413218728551E+03    0.34441E-05   -0.17581E-06  2537   0.201E-03    0.136E-03
RMM:  12    -0.413218725560E+03    0.29902E-05   -0.54038E-07  2409   0.138E-03    0.711E-04
RMM:  13    -0.413218722827E+03    0.27339E-05   -0.27103E-07  1844   0.888E-04    0.343E-04
RMM:  14    -0.413218720371E+03    0.24555E-05   -0.16626E-07  1273   0.713E-04    0.197E-04
RMM:  15    -0.413218717352E+03    0.30191E-05   -0.14725E-07  1267   0.694E-04    0.976E-05
RMM:  16    -0.413218715448E+03    0.19035E-05   -0.95946E-08  1114   0.624E-04    0.831E-05
RMM:  17    -0.413218713598E+03    0.18507E-05   -0.73544E-08  1030   0.595E-04    0.584E-05
RMM:  18    -0.413218712615E+03    0.98291E-06   -0.43872E-08   843   0.543E-04
   47 T=    72. E= -.41286695E+03 F= -.41321871E+03 E0= -.41319778E+03  EK= 0.35176E+00 SP= 0.00E+00 SK= 0.00E+00
       N       E                     dE             d eps       ncg     rms          rms(c)
RMM:   1    -0.413273337252E+03   -0.54624E-01   -0.13571E+01  4306   0.197E+00    0.977E-01
RMM:   2    -0.413218713383E+03    0.54624E-01   -0.21838E-01  4508   0.218E-01    0.694E-01
RMM:   3    -0.413242529067E+03   -0.23816E-01   -0.29157E-02  5150   0.152E-01    0.711E-01
RMM:   4    -0.413226874741E+03    0.15654E-01   -0.37862E-02  4961   0.175E-01    0.444E-01
RMM:   5    -0.413218297490E+03    0.85773E-02   -0.47912E-03  4566   0.908E-02    0.565E-02
RMM:   6    -0.413218123290E+03    0.17420E-03   -0.45907E-04  4713   0.283E-02    0.229E-02
RMM:   7    -0.413218125203E+03   -0.19134E-05   -0.13113E-04  5897   0.114E-02    0.155E-02
RMM:   8    -0.413218114346E+03    0.10857E-04   -0.32419E-05  4913   0.615E-03    0.103E-02
RMM:   9    -0.413218099693E+03    0.14653E-04   -0.11055E-05  3584   0.442E-03    0.526E-03
RMM:  10    -0.413218093336E+03    0.63571E-05   -0.26540E-06  2602   0.262E-03    0.242E-03
RMM:  11    -0.413218088075E+03    0.52605E-05   -0.19656E-06  2542   0.216E-03    0.149E-03
RMM:  12    -0.413218082808E+03    0.52673E-05   -0.74644E-07  2436   0.153E-03    0.776E-04
RMM:  13    -0.413218078373E+03    0.44350E-05   -0.35999E-07  2227   0.101E-03    0.432E-04
RMM:  14    -0.413218074276E+03    0.40968E-05   -0.19352E-07  1455   0.743E-04    0.224E-04
RMM:  15    -0.413218069552E+03    0.47235E-05   -0.15270E-07  1392   0.708E-04    0.125E-04
RMM:  16    -0.413218066553E+03    0.29999E-05   -0.99502E-08  1229   0.641E-04    0.120E-04
RMM:  17    -0.413218064416E+03    0.21365E-05   -0.68104E-08  1079   0.589E-04    0.735E-05
RMM:  18    -0.413218062500E+03    0.19163E-05   -0.52122E-08  1018   0.571E-04    0.422E-05
RMM:  19    -0.413218061852E+03    0.64780E-06   -0.26002E-08   771   0.523E-04
   48 T=    71. E= -.41286702E+03 F= -.41321806E+03 E0= -.41319714E+03  EK= 0.35104E+00 SP= 0.00E+00 SK= 0.00E+00
       N       E                     dE             d eps       ncg     rms          rms(c)
RMM:   1    -0.413275611263E+03   -0.57549E-01   -0.13485E+01  4306   0.211E+00    0.972E-01
RMM:   2    -0.413216024021E+03    0.59587E-01   -0.21549E-01  4524   0.232E-01    0.684E-01
RMM:   3    -0.413246011789E+03   -0.29988E-01   -0.34840E-02  5159   0.167E-01    0.782E-01
RMM:   4    -0.413221646989E+03    0.24365E-01   -0.37818E-02  4930   0.177E-01    0.394E-01
RMM:   5    -0.413215829107E+03    0.58179E-02   -0.51351E-03  4821   0.929E-02    0.702E-02
RMM:   6    -0.413215534771E+03    0.29434E-03   -0.54440E-04  4675   0.321E-02    0.274E-02
RMM:   7    -0.413215530958E+03    0.38129E-05   -0.13707E-04  5733   0.124E-02    0.173E-02
RMM:   8    -0.413215518241E+03    0.12716E-04   -0.24287E-05  4551   0.552E-03    0.107E-02
RMM:   9    -0.413215502348E+03    0.15894E-04   -0.11581E-05  3504   0.435E-03    0.475E-03
RMM:  10    -0.413215494772E+03    0.75757E-05   -0.34079E-06  2733   0.284E-03    0.249E-03
RMM:  11    -0.413215487717E+03    0.70545E-05   -0.20273E-06  2575   0.226E-03    0.158E-03
RMM:  12    -0.413215482997E+03    0.47203E-05   -0.66857E-07  2448   0.149E-03    0.762E-04
RMM:  13    -0.413215478436E+03    0.45614E-05   -0.34406E-07  2158   0.990E-04    0.454E-04
RMM:  14    -0.413215473685E+03    0.47504E-05   -0.22489E-07  1662   0.789E-04    0.250E-04
RMM:  15    -0.413215468896E+03    0.47894E-05   -0.17365E-07  1420   0.721E-04    0.136E-04
RMM:  16    -0.413215466879E+03    0.20167E-05   -0.94117E-08  1174   0.633E-04    0.879E-05
RMM:  17    -0.413215464018E+03    0.28613E-05   -0.92881E-08  1316   0.641E-04    0.474E-05
RMM:  18    -0.413215462958E+03    0.10597E-05   -0.43546E-08   935   0.564E-04    0.313E-05
RMM:  19    -0.413215462405E+03    0.55351E-06   -0.27382E-08   818   0.544E-04
   49 T=    71. E= -.41286679E+03 F= -.41321546E+03 E0= -.41319455E+03  EK= 0.34867E+00 SP= 0.00E+00 SK= 0.00E+00
       N       E                     dE             d eps       ncg     rms          rms(c)
RMM:   1    -0.413263465896E+03   -0.48003E-01   -0.13266E+01  4306   0.217E+00    0.939E-01
[...]
RMM:  20    -0.413084566948E+03    0.27624E-05   -0.15639E-07  1300   0.634E-04    0.556E-05
RMM:  21    -0.413084565399E+03    0.15493E-05   -0.83486E-08  1074   0.573E-04    0.322E-05
RMM:  22    -0.413084564363E+03    0.10352E-05   -0.53501E-08  1026   0.557E-04    0.186E-05
RMM:  23    -0.413084563895E+03    0.46810E-06   -0.32730E-08   937   0.533E-04
  139 T=    45. E= -.41286526E+03 F= -.41308456E+03 E0= -.41306428E+03  EK= 0.21930E+00 SP= 0.00E+00 SK= 0.00E+00
       N       E                     dE             d eps       ncg     rms          rms(c)
RMM:   1    -0.413073185446E+03    0.11379E-01   -0.27123E+00  4299   0.341E+00    0.413E-01
RMM:   2    -0.413076283320E+03   -0.30979E-02   -0.50243E-02  5212   0.279E-01    0.380E-01
RMM:   3    -0.413079519082E+03   -0.32358E-02   -0.11969E-02  5673   0.113E-01    0.412E-01
RMM:   4    -0.413075270093E+03    0.42490E-02   -0.53317E-03  5029   0.880E-02    0.185E-01
RMM:   5    -0.413075358139E+03   -0.88046E-04   -0.43637E-03  4851   0.854E-02    0.783E-02
RMM:   6    -0.413075069486E+03    0.28865E-03   -0.11829E-03  5025   0.429E-02    0.416E-02
RMM:   7    -0.413075000493E+03    0.68993E-04   -0.18944E-04  4875   0.193E-02    0.218E-02
RMM:   8    -0.413075002563E+03   -0.20697E-05   -0.69165E-05  4829   0.108E-02    0.111E-02
RMM:   9    -0.413075006858E+03   -0.42954E-05   -0.25047E-05  4815   0.596E-03    0.513E-03
RMM:  10    -0.413075010411E+03   -0.35526E-05   -0.52928E-06  3104   0.320E-03    0.308E-03
RMM:  11    -0.413075013925E+03   -0.35142E-05   -0.19686E-06  2628   0.232E-03    0.173E-03
RMM:  12    -0.413075016625E+03   -0.27001E-05   -0.12965E-06  2548   0.176E-03    0.919E-04
RMM:  13    -0.413075018147E+03   -0.15218E-05   -0.93030E-07  2363   0.139E-03    0.573E-04
RMM:  14    -0.413075018514E+03   -0.36745E-06   -0.68007E-07  2136   0.115E-03
  140 T=    43. E= -.41286574E+03 F= -.41307502E+03 E0= -.41305487E+03  EK= 0.20928E+00 SP= 0.00E+00 SK= 0.00E+00
       N       E                     dE             d eps       ncg     rms          rms(c)
RMM:   1    -0.413135867632E+03   -0.60849E-01   -0.34860E+00  4298   0.379E+00    0.615E-01
RMM:   2    -0.413146674173E+03   -0.10807E-01   -0.76458E-02  5247   0.350E-01    0.644E-01
RMM:   3    -0.413141320618E+03    0.53536E-02   -0.20177E-02  5443   0.157E-01    0.551E-01
RMM:   4    -0.413138153513E+03    0.31671E-02   -0.16233E-02  5263   0.149E-01    0.265E-01
RMM:   5    -0.413137459065E+03    0.69445E-03   -0.11884E-02  4933   0.136E-01    0.136E-01
RMM:   6    -0.413136478284E+03    0.98078E-03   -0.24597E-03  4905   0.669E-02    0.463E-02
RMM:   7    -0.413136391034E+03    0.87250E-04   -0.30086E-04  4845   0.257E-02    0.200E-02
RMM:   8    -0.413136381918E+03    0.91152E-05   -0.10510E-04  5322   0.125E-02    0.928E-03
RMM:   9    -0.413136379139E+03    0.27798E-05   -0.22900E-05  4680   0.543E-03    0.558E-03
RMM:  10    -0.413136379051E+03    0.87304E-07   -0.45112E-06  2988   0.308E-03
  141 T=    55. E= -.41286864E+03 F= -.41313638E+03 E0= -.41311640E+03  EK= 0.26774E+00 SP= 0.00E+00 SK= 0.00E+00
       N       E                     dE             d eps       ncg     rms          rms(c)
RMM:   1    -0.413231571740E+03   -0.95193E-01   -0.56491E+00  4298   0.489E+00    0.795E-01
RMM:   2    -0.413245456768E+03   -0.13885E-01   -0.12564E-01  5199   0.454E-01    0.813E-01
RMM:   3    -0.413238907216E+03    0.65496E-02   -0.33820E-02  5461   0.203E-01    0.718E-01
RMM:   4    -0.413231935659E+03    0.69716E-02   -0.26940E-02  5234   0.193E-01    0.345E-01
RMM:   5    -0.413230814967E+03    0.11207E-02   -0.20081E-02  4895   0.176E-01    0.175E-01
RMM:   6    -0.413229119396E+03    0.16956E-02   -0.40241E-03  4897   0.859E-02    0.612E-02
RMM:   7    -0.413228967464E+03    0.15193E-03   -0.51391E-04  4863   0.332E-02    0.263E-02
RMM:   8    -0.413228946511E+03    0.20953E-04   -0.18332E-04  5369   0.166E-02    0.134E-02
RMM:   9    -0.413228942537E+03    0.39744E-05   -0.41705E-05  5366   0.744E-03    0.762E-03
RMM:  10    -0.413228949216E+03   -0.66791E-05   -0.95533E-06  3811   0.414E-03    0.489E-03
RMM:  11    -0.413228961136E+03   -0.11920E-04   -0.39054E-06  2913   0.332E-03    0.271E-03
RMM:  12    -0.413228975376E+03   -0.14241E-04   -0.25058E-06  2709   0.243E-03    0.147E-03
RMM:  13    -0.413228991427E+03   -0.16051E-04   -0.23466E-06  2723   0.210E-03    0.896E-04
RMM:  14    -0.413229007010E+03   -0.15583E-04   -0.22257E-06  2707   0.190E-03    0.646E-04
RMM:  15    -0.413229023523E+03   -0.16513E-04   -0.27214E-06  2777   0.195E-03    0.466E-04
RMM:  16    -0.413229036103E+03   -0.12580E-04   -0.22108E-06  2504   0.162E-03    0.284E-04
RMM:  17    -0.413229041845E+03   -0.57416E-05   -0.76395E-07  1998   0.106E-03    0.196E-04
RMM:  18    -0.413229047179E+03   -0.53347E-05   -0.50985E-07  1843   0.911E-04    0.122E-04
RMM:  19    -0.413229050505E+03   -0.33259E-05   -0.24638E-07  1451   0.734E-04    0.773E-05
RMM:  20    -0.413229052837E+03   -0.23323E-05   -0.13926E-07  1328   0.667E-04    0.483E-05
RMM:  21    -0.413229053971E+03   -0.11331E-05   -0.76199E-08  1165   0.602E-04    0.345E-05
RMM:  22    -0.413229054467E+03   -0.49665E-06   -0.43539E-08  1032   0.558E-04
  142 T=    73. E= -.41287109E+03 F= -.41322905E+03 E0= -.41320923E+03  EK= 0.35796E+00 SP= 0.00E+00 SK= 0.00E+00
       N       E                     dE             d eps       ncg     rms          rms(c)
RMM:   1    -0.413328474070E+03   -0.99420E-01   -0.83452E+00  4298   0.587E+00    0.105E+00
RMM:   2    -0.413325666079E+03    0.28080E-02   -0.18309E-01  5184   0.568E-01    0.967E-01
RMM:   3    -0.413343467937E+03   -0.17802E-01   -0.59251E-02  5506   0.257E-01    0.102E+00
RMM:   4    -0.413317237471E+03    0.26230E-01   -0.43685E-02  5107   0.246E-01    0.434E-01
RMM:   5    -0.413316143956E+03    0.10935E-02   -0.27470E-02  4909   0.208E-01    0.213E-01
RMM:   6    -0.413313662622E+03    0.24813E-02   -0.63406E-03  4885   0.104E-01    0.783E-02
RMM:   7    -0.413313412903E+03    0.24972E-03   -0.87967E-04  5055   0.426E-02    0.367E-02
RMM:   8    -0.413313361574E+03    0.51329E-04   -0.30292E-04  5065   0.219E-02    0.190E-02
RMM:   9    -0.413313347850E+03    0.13724E-04   -0.80420E-05  5479   0.104E-02    0.103E-02
RMM:  10    -0.413313352703E+03   -0.48534E-05   -0.20050E-05  4657   0.529E-03    0.721E-03
RMM:  11    -0.413313365879E+03   -0.13176E-04   -0.73367E-06  3431   0.436E-03    0.331E-03
RMM:  12    -0.413313379835E+03   -0.13956E-04   -0.32677E-06  2819   0.287E-03    0.207E-03
RMM:  13    -0.413313399520E+03   -0.19685E-04   -0.33000E-06  2839   0.262E-03    0.132E-03
RMM:  14    -0.413313414447E+03   -0.14927E-04   -0.21024E-06  2675   0.198E-03    0.884E-04
RMM:  15    -0.413313429039E+03   -0.14593E-04   -0.17858E-06  2654   0.174E-03    0.710E-04
RMM:  16    -0.413313448451E+03   -0.19411E-04   -0.32801E-06  2828   0.214E-03    0.400E-04
RMM:  17    -0.413313456905E+03   -0.84540E-05   -0.15341E-06  2248   0.137E-03    0.256E-04
RMM:  18    -0.413313462909E+03   -0.60041E-05   -0.69789E-07  1993   0.104E-03    0.183E-04
RMM:  19    -0.413313468652E+03   -0.57436E-05   -0.48667E-07  1828   0.901E-04    0.106E-04
RMM:  20    -0.413313471717E+03   -0.30648E-05   -0.22494E-07  1424   0.718E-04    0.712E-05
RMM:  21    -0.413313473645E+03   -0.19277E-05   -0.12130E-07  1230   0.644E-04    0.373E-05
RMM:  22    -0.413313474665E+03   -0.10202E-05   -0.74038E-08  1166   0.603E-04    0.259E-05
RMM:  23    -0.413313474958E+03   -0.29262E-06   -0.35496E-08   952   0.553E-04
  143 T=    89. E= -.41287698E+03 F= -.41331347E+03 E0= -.41329371E+03  EK= 0.43649E+00 SP= 0.00E+00 SK= 0.00E+00
       N       E                     dE             d eps       ncg     rms          rms(c)
RMM:   1    -0.413349471026E+03   -0.35996E-01   -0.10118E+01  4292   0.635E+00    0.139E+00
RMM:   2    -0.413328095777E+03    0.21375E-01   -0.25531E-01  5265   0.675E-01    0.120E+00
RMM:   3    -0.413358461542E+03   -0.30366E-01   -0.80371E-02  5373   0.327E-01    0.103E+00
RMM:   4    -0.413372226094E+03   -0.13765E-01   -0.10698E-01  5197   0.324E-01    0.100E+00
RMM:   5    -0.413324937559E+03    0.47289E-01   -0.46791E-02  4903   0.275E-01    0.224E-01
RMM:   6    -0.413322750730E+03    0.21868E-02   -0.12169E-02  5238   0.135E-01    0.977E-02
RMM:   7    -0.413322213496E+03    0.53723E-03   -0.18076E-03  5051   0.566E-02    0.487E-02
RMM:   8    -0.413322143462E+03    0.70034E-04   -0.43688E-04  5194   0.269E-02    0.252E-02
RMM:   9    -0.413322134323E+03    0.91389E-05   -0.14223E-04  5825   0.135E-02    0.160E-02
RMM:  10    -0.413322134839E+03   -0.51572E-06   -0.37325E-05  5248   0.724E-03    0.910E-03
RMM:  11    -0.413322144832E+03   -0.99932E-05   -0.22023E-05  4751   0.570E-03    0.540E-03
RMM:  12    -0.413322154517E+03   -0.96846E-05   -0.39787E-06  2900   0.321E-03    0.314E-03
RMM:  13    -0.413322164961E+03   -0.10444E-04   -0.29738E-06  2779   0.259E-03    0.173E-03
RMM:  14    -0.413322178741E+03   -0.13779E-04   -0.22382E-06  2687   0.228E-03    0.110E-03
RMM:  15    -0.413322189622E+03   -0.10881E-04   -0.13834E-06  2549   0.164E-03    0.803E-04
RMM:  16    -0.413322202331E+03   -0.12709E-04   -0.17037E-06  2611   0.166E-03    0.453E-04
RMM:  17    -0.413322213263E+03   -0.10932E-04   -0.17457E-06  2495   0.155E-03    0.355E-04
RMM:  18    -0.413322221157E+03   -0.78948E-05   -0.12366E-06  2194   0.123E-03    0.221E-04
RMM:  19    -0.413322224699E+03   -0.35417E-05   -0.43092E-07  1692   0.843E-04    0.168E-04
RMM:  20    -0.413322227455E+03   -0.27558E-05   -0.22314E-07  1416   0.712E-04    0.113E-04
RMM:  21    -0.413322230064E+03   -0.26091E-05   -0.16323E-07  1442   0.676E-04    0.804E-05
RMM:  22    -0.413322230864E+03   -0.80035E-06   -0.71052E-08  1045   0.576E-04
  144 T=    91. E= -.41287535E+03 F= -.41332223E+03 E0= -.41330230E+03  EK= 0.44688E+00 SP= 0.00E+00 SK= 0.00E+00
       N       E                     dE             d eps       ncg     rms          rms(c)
RMM:   1    -0.413354647115E+03   -0.32417E-01   -0.93392E+00  4280   0.585E+00    0.120E+00
RMM:   2    -0.413333166134E+03    0.21481E-01   -0.28763E-01  5397   0.671E-01    0.109E+00
RMM:   3    -0.413375044591E+03   -0.41878E-01   -0.97413E-02  5476   0.334E-01    0.123E+00
RMM:   4    -0.413326063686E+03    0.48981E-01   -0.62812E-02  5183   0.283E-01    0.577E-01
RMM:   5    -0.413320336347E+03    0.57273E-02   -0.14738E-02  4370   0.186E-01    0.123E-01
RMM:   6    -0.413320093552E+03    0.24280E-03   -0.30842E-03  5280   0.721E-02    0.624E-02
RMM:   7    -0.413320078107E+03    0.15445E-04   -0.92222E-04  5458   0.347E-02    0.435E-02
RMM:   8    -0.413320008225E+03    0.69883E-04   -0.29998E-04  5141   0.208E-02    0.257E-02
RMM:   9    -0.413320003924E+03    0.43008E-05   -0.11240E-04  5309   0.135E-02    0.136E-02
RMM:  10    -0.413320003002E+03    0.92171E-06   -0.28191E-05  5038   0.668E-03    0.802E-03
RMM:  11    -0.413320005738E+03   -0.27364E-05   -0.12607E-05  4215   0.447E-03    0.363E-03
RMM:  12    -0.413320008726E+03   -0.29881E-05   -0.20455E-06  2631   0.236E-03    0.236E-03
RMM:  13    -0.413320011340E+03   -0.26136E-05   -0.94940E-07  2504   0.165E-03    0.109E-03
RMM:  14    -0.413320014266E+03   -0.29259E-05   -0.69868E-07  2333   0.131E-03    0.626E-04
RMM:  15    -0.413320017231E+03   -0.29648E-05   -0.48884E-07  2090   0.106E-03    0.305E-04
RMM:  16    -0.413320019372E+03   -0.21414E-05   -0.33069E-07  1798   0.871E-04    0.198E-04
RMM:  17    -0.413320022627E+03   -0.32546E-05   -0.46344E-07  2070   0.969E-04    0.148E-04
RMM:  18    -0.413320024497E+03   -0.18705E-05   -0.22981E-07  1362   0.723E-04    0.893E-05
RMM:  19    -0.413320026133E+03   -0.16360E-05   -0.18866E-07  1467   0.705E-04    0.634E-05
RMM:  20    -0.413320026990E+03   -0.85658E-06   -0.10404E-07  1203   0.610E-04
  145 T=    93. E= -.41286158E+03 F= -.41332003E+03 E0= -.41329966E+03  EK= 0.45845E+00 SP= 0.00E+00 SK= 0.00E+00
       N       E                     dE             d eps       ncg     rms          rms(c)
RMM:   1    -0.413515310838E+03   -0.19528E+00   -0.11175E+01  4290   0.633E+00    0.111E+00
RMM:   2    -0.413522182103E+03   -0.68713E-02   -0.38370E-01  5435   0.743E-01    0.129E+00
RMM:   3    -0.413485005521E+03    0.37177E-01   -0.98091E-02  5452   0.352E-01    0.102E+00
RMM:   4    -0.413465586686E+03    0.19419E-01   -0.50558E-02  5307   0.270E-01    0.544E-01
RMM:   5    -0.413464947014E+03    0.63967E-03   -0.26097E-02  4760   0.218E-01    0.236E-01
RMM:   6    -0.413463141728E+03    0.18053E-02   -0.13982E-02  4986   0.143E-01    0.129E-01
RMM:   7    -0.413462291718E+03    0.85001E-03   -0.15472E-03  4549   0.601E-02    0.583E-02
RMM:   8    -0.413462276707E+03    0.15011E-04   -0.45159E-04  5243   0.272E-02    0.322E-02
RMM:   9    -0.413462273632E+03    0.30749E-05   -0.15699E-04  4829   0.161E-02    0.133E-02
RMM:  10    -0.413462275507E+03   -0.18756E-05   -0.41904E-05  5484   0.778E-03    0.804E-03
RMM:  11    -0.413462278274E+03   -0.27669E-05   -0.13737E-05  4373   0.470E-03    0.471E-03
RMM:  12    -0.413462281142E+03   -0.28672E-05   -0.35609E-06  2847   0.299E-03    0.325E-03
RMM:  13    -0.413462282023E+03   -0.88145E-06   -0.14775E-06  2559   0.199E-03
  146 T=   119. E= -.41287960E+03 F= -.41346228E+03 E0= -.41344137E+03  EK= 0.58269E+00 SP= 0.00E+00 SK= 0.00E+00
       N       E                     dE             d eps       ncg     rms          rms(c)
RMM:   1    -0.413596249722E+03   -0.13397E+00   -0.14757E+01  4293   0.753E+00    0.139E+00
RMM:   2    -0.413620804129E+03   -0.24554E-01   -0.52044E-01  5406   0.856E-01    0.157E+00
RMM:   3    -0.413561071320E+03    0.59733E-01   -0.13768E-01  5386   0.418E-01    0.123E+00
RMM:   4    -0.413535412991E+03    0.25658E-01   -0.78217E-02  5314   0.331E-01    0.664E-01
RMM:   5    -0.413534048951E+03    0.13640E-02   -0.53530E-02  4923   0.294E-01    0.326E-01
RMM:   6    -0.413529936229E+03    0.41127E-02   -0.24014E-02  5079   0.188E-01    0.171E-01
RMM:   7    -0.413528668888E+03    0.12673E-02   -0.19557E-03  4422   0.726E-02    0.813E-02
RMM:   8    -0.413528646597E+03    0.22291E-04   -0.10130E-03  5427   0.394E-02    0.427E-02
RMM:   9    -0.413528662866E+03   -0.16269E-04   -0.32246E-04  4949   0.229E-02    0.205E-02
RMM:  10    -0.413528670801E+03   -0.79358E-05   -0.77042E-05  5625   0.110E-02    0.113E-02
RMM:  11    -0.413528683082E+03   -0.12281E-04   -0.34874E-05  5192   0.724E-03    0.725E-03
RMM:  12    -0.413528693391E+03   -0.10309E-04   -0.84713E-06  3523   0.414E-03    0.410E-03
RMM:  13    -0.413528698414E+03   -0.50237E-05   -0.45388E-06  3001   0.303E-03    0.208E-03
RMM:  14    -0.413528700561E+03   -0.21464E-05   -0.28810E-06  2766   0.236E-03    0.122E-03
RMM:  15    -0.413528699889E+03    0.67153E-06   -0.27249E-06  2723   0.206E-03
  147 T=   131. E= -.41288449E+03 F= -.41352870E+03 E0= -.41350726E+03  EK= 0.64421E+00 SP= 0.00E+00 SK= 0.00E+00
       N       E                     dE             d eps       ncg     rms          rms(c)
RMM:   1    -0.413459153819E+03    0.69547E-01   -0.13498E+01  4287   0.710E+00    0.115E+00
RMM:   2    -0.413470787688E+03   -0.11634E-01   -0.46986E-01  5407   0.776E-01    0.128E+00
RMM:   3    -0.413436455017E+03    0.34333E-01   -0.96827E-02  5472   0.349E-01    0.104E+00
RMM:   4    -0.413418078982E+03    0.18376E-01   -0.44276E-02  5241   0.256E-01    0.582E-01
RMM:   5    -0.413418558083E+03   -0.47910E-03   -0.41703E-02  4916   0.256E-01    0.302E-01
RMM:   6    -0.413415291867E+03    0.32662E-02   -0.19584E-02  5086   0.168E-01    0.163E-01
RMM:   7    -0.413414138026E+03    0.11538E-02   -0.20183E-03  4579   0.699E-02    0.800E-02
RMM:   8    -0.413414122704E+03    0.15322E-04   -0.12310E-03  5674   0.414E-02    0.423E-02
RMM:   9    -0.413414128315E+03   -0.56107E-05   -0.29456E-04  4982   0.218E-02    0.197E-02
RMM:  10    -0.413414137312E+03   -0.89975E-05   -0.80631E-05  5650   0.114E-02    0.103E-02
RMM:  11    -0.413414150210E+03   -0.12898E-04   -0.28097E-05  4988   0.663E-03    0.705E-03
RMM:  12    -0.413414159745E+03   -0.95342E-05   -0.80629E-06  3478   0.403E-03    0.350E-03
RMM:  13    -0.413414164440E+03   -0.46959E-05   -0.47842E-06  3013   0.303E-03    0.215E-03
RMM:  14    -0.413414165624E+03   -0.11830E-05   -0.35835E-06  2856   0.250E-03    0.131E-03
RMM:  15    -0.413414163446E+03    0.21780E-05   -0.32548E-06  2743   0.217E-03    0.827E-04
RMM:  16    -0.413414156546E+03    0.68995E-05   -0.36157E-06  2787   0.215E-03    0.639E-04
RMM:  17    -0.413414147707E+03    0.88392E-05   -0.22939E-06  2399   0.162E-03    0.442E-04
RMM:  18    -0.413414138708E+03    0.89989E-05   -0.13351E-06  2185   0.130E-03    0.250E-04
RMM:  19    -0.413414131191E+03    0.75172E-05   -0.66960E-07  1943   0.981E-04    0.161E-04
RMM:  20    -0.413414126913E+03    0.42779E-05   -0.26918E-07  1466   0.744E-04    0.965E-05
RMM:  21    -0.413414123686E+03    0.32273E-05   -0.16017E-07  1358   0.677E-04    0.747E-05
RMM:  22    -0.413414121440E+03    0.22453E-05   -0.10164E-07  1266   0.633E-04    0.665E-05
RMM:  23    -0.413414120624E+03    0.81585E-06   -0.56265E-08  1086   0.573E-04
  148 T=   110. E= -.41287379E+03 F= -.41341412E+03 E0= -.41339221E+03  EK= 0.54033E+00 SP= 0.00E+00 SK= 0.00E+00
       N       E                     dE             d eps       ncg     rms          rms(c)
RMM:   1    -0.413269858808E+03    0.14426E+00   -0.93001E+00  4264   0.573E+00    0.800E-01
RMM:   2    -0.413271674444E+03   -0.18156E-02   -0.32581E-01  5420   0.597E-01    0.820E-01
RMM:   3    -0.413266197494E+03    0.54770E-02   -0.49198E-02  5556   0.243E-01    0.748E-01
RMM:   4    -0.413256557459E+03    0.96400E-02   -0.18889E-02  5129   0.173E-01    0.410E-01
RMM:   5    -0.413257010188E+03   -0.45273E-03   -0.19066E-02  4813   0.178E-01    0.190E-01
RMM:   6    -0.413255733651E+03    0.12765E-02   -0.75967E-03  5095   0.106E-01    0.106E-01
RMM:   7    -0.413255208788E+03    0.52486E-03   -0.11227E-03  4841   0.482E-02    0.500E-02
RMM:   8    -0.413255218447E+03   -0.96586E-05   -0.65212E-04  5749   0.299E-02    0.280E-02
RMM:   9    -0.413255215773E+03    0.26739E-05   -0.12453E-04  5192   0.139E-02    0.156E-02
RMM:  10    -0.413255216961E+03   -0.11883E-05   -0.44811E-05  5544   0.833E-03    0.709E-03
RMM:  11    -0.413255223727E+03   -0.67657E-05   -0.13722E-05  4206   0.456E-03    0.493E-03
RMM:  12    -0.413255227809E+03   -0.40820E-05   -0.35817E-06  2878   0.296E-03    0.225E-03
RMM:  13    -0.413255228945E+03   -0.11357E-05   -0.18344E-06  2627   0.197E-03    0.129E-03
RMM:  14    -0.413255228676E+03    0.26893E-06   -0.16746E-06  2548   0.174E-03
  149 T=    79. E= -.41286477E+03 F= -.41325523E+03 E0= -.41323292E+03  EK= 0.39046E+00 SP= 0.00E+00 SK= 0.00E+00
       N       E                     dE             d eps       ncg     rms          rms(c)
RMM:   1    -0.413197139412E+03    0.58090E-01   -0.61543E+00  4264   0.436E+00    0.554E-01
RMM:   2    -0.413194165774E+03    0.29736E-02   -0.21320E-01  5429   0.448E-01    0.486E-01
RMM:   3    -0.413201640659E+03   -0.74749E-02   -0.31707E-02  5579   0.186E-01    0.578E-01
RMM:   4    -0.413192169155E+03    0.94715E-02   -0.14308E-02  5115   0.148E-01    0.273E-01
RMM:   5    -0.413191408337E+03    0.76082E-03   -0.52454E-03  4525   0.104E-01    0.736E-02
RMM:   6    -0.413191390314E+03    0.18023E-04   -0.10615E-03  5506   0.403E-02    0.378E-02
RMM:   7    -0.413191374532E+03    0.15782E-04   -0.27051E-04  5452   0.192E-02    0.208E-02
RMM:   8    -0.413191371844E+03    0.26881E-05   -0.11596E-04  5546   0.129E-02    0.147E-02
RMM:   9    -0.413191371673E+03    0.17072E-06   -0.39930E-05  5414   0.717E-03    0.104E-02
RMM:  10    -0.413191365870E+03    0.58029E-05   -0.17401E-05  4745   0.513E-03    0.486E-03
RMM:  11    -0.413191364908E+03    0.96217E-06   -0.72403E-06  3560   0.336E-03
  150 T=    67. E= -.41286149E+03 F= -.41319136E+03 E0= -.41316882E+03  EK= 0.32988E+00 SP= 0.00E+00 SK= 0.00E+00
