       N       E                     dE             d eps       ncg     rms          rms(c)
RMM:   1     0.220119103586E+04    0.22012E+04   -0.52444E+04  2132   0.654E+02
RMM:   2     0.705647930530E+03   -0.14955E+04   -0.16264E+04  2132   0.177E+02
RMM:   3     0.137576320700E+03   -0.56807E+03   -0.65744E+03  2132   0.117E+02
RMM:   4    -0.159009505618E+03   -0.29659E+03   -0.27859E+03  2132   0.936E+01
RMM:   5    -0.287550419821E+03   -0.12854E+03   -0.11443E+03  2132   0.595E+01
RMM:   6    -0.349823156996E+03   -0.62273E+02   -0.55116E+02  2132   0.423E+01
RMM:   7    -0.382617784614E+03   -0.32795E+02   -0.30378E+02  2132   0.293E+01
RMM:   8    -0.404148216876E+03   -0.21530E+02   -0.18442E+02  2132   0.233E+01
RMM:   9    -0.435973137000E+03   -0.31825E+02   -0.30781E+02  6102   0.173E+01
RMM:  10    -0.441265706318E+03   -0.52926E+01   -0.63034E+01  6394   0.539E+00
RMM:  11    -0.442516175472E+03   -0.12505E+01   -0.11237E+01  6207   0.173E+00
RMM:  12    -0.442889308504E+03   -0.37313E+00   -0.26668E+00  6372   0.602E-01    0.134E+02
RMM:  13    -0.425608862783E+03    0.17280E+02   -0.81039E+01  4674   0.119E+01    0.712E+01
RMM:  14    -0.499472316790E+03   -0.73863E+02   -0.54095E+02  5423   0.232E+01    0.307E+01
RMM:  15    -0.415696433716E+03    0.83776E+02   -0.19897E+02  5085   0.163E+01    0.690E+00
RMM:  16    -0.414007042809E+03    0.16894E+01   -0.39705E+01  6082   0.610E+00    0.424E+00
RMM:  17    -0.413211159986E+03    0.79588E+00   -0.25412E+00  5400   0.187E+00    0.243E+00
RMM:  18    -0.413172708269E+03    0.38452E-01   -0.78656E-01  5977   0.906E-01    0.165E+00
RMM:  19    -0.413167804378E+03    0.49039E-02   -0.28750E-01  5698   0.574E-01    0.855E-01
RMM:  20    -0.413184300673E+03   -0.16496E-01   -0.23033E-01  5575   0.505E-01    0.568E-01
RMM:  21    -0.413167262214E+03    0.17038E-01   -0.32811E-02  5027   0.226E-01    0.264E-01
RMM:  22    -0.413165006856E+03    0.22554E-02   -0.17362E-02  5982   0.119E-01    0.134E-01
RMM:  23    -0.413164035755E+03    0.97110E-03   -0.53124E-03  6011   0.648E-02    0.829E-02
RMM:  24    -0.413162882088E+03    0.11537E-02   -0.16480E-03  5380   0.409E-02    0.462E-02
RMM:  25    -0.413162541255E+03    0.34083E-03   -0.85707E-04  5267   0.270E-02    0.366E-02
RMM:  26    -0.413162717593E+03   -0.17634E-03   -0.90314E-04  5832   0.302E-02    0.335E-02
RMM:  27    -0.413163146951E+03   -0.42936E-03   -0.19330E-04  4539   0.195E-02    0.191E-02
RMM:  28    -0.413163610546E+03   -0.46359E-03   -0.17993E-04  5189   0.186E-02    0.861E-03
RMM:  29    -0.413163999074E+03   -0.38853E-03   -0.10998E-04  4444   0.151E-02    0.462E-03
RMM:  30    -0.413164221265E+03   -0.22219E-03   -0.74864E-05  4264   0.992E-03    0.386E-03
RMM:  31    -0.413164368827E+03   -0.14756E-03   -0.58215E-05  3243   0.746E-03    0.309E-03
RMM:  32    -0.413164395361E+03   -0.26534E-04   -0.21703E-05  2976   0.306E-03    0.182E-03
RMM:  33    -0.413164409167E+03   -0.13805E-04   -0.89905E-06  2814   0.234E-03    0.571E-04
RMM:  34    -0.413164412251E+03   -0.30846E-05   -0.47709E-06  2639   0.157E-03    0.640E-04
RMM:  35    -0.413164413241E+03   -0.98944E-06   -0.23918E-06  2373   0.125E-03
    1 T=    61. E= -.41286662E+03 F= -.41316441E+03 E0= -.41314192E+03  EK= 0.29779E+00 SP= 0.00E+00 SK= 0.00E+00
       N       E                     dE             d eps       ncg     rms          rms(c)
RMM:   1    -0.413154980403E+03    0.94318E-02   -0.11031E+01  3991   0.694E-01    0.886E-01
RMM:   2    -0.413165704781E+03   -0.10724E-01   -0.13601E-01  3863   0.998E-02    0.641E-01
RMM:   3    -0.413164135962E+03    0.15688E-02   -0.67397E-03  4781   0.368E-02    0.153E-01
RMM:   4    -0.413186081255E+03   -0.21945E-01   -0.22892E-02  5215   0.126E-01    0.618E-01
RMM:   5    -0.413163789749E+03    0.22292E-01   -0.11040E-02  4854   0.104E-01    0.331E-02
RMM:   6    -0.413163933665E+03   -0.14392E-03   -0.17630E-03  5823   0.408E-02    0.183E-02
RMM:   7    -0.413163950073E+03   -0.16408E-04   -0.23361E-04  5857   0.128E-02    0.131E-02
RMM:   8    -0.413163957179E+03   -0.71052E-05   -0.30827E-05  4407   0.527E-03    0.663E-03
RMM:   9    -0.413163963137E+03   -0.59583E-05   -0.65833E-06  3022   0.285E-03    0.444E-03
RMM:  10    -0.413163969347E+03   -0.62100E-05   -0.17631E-06  2563   0.181E-03    0.275E-03
RMM:  11    -0.413163977029E+03   -0.76824E-05   -0.13793E-06  2533   0.164E-03    0.123E-03
RMM:  12    -0.413163982243E+03   -0.52139E-05   -0.87724E-07  2414   0.128E-03    0.408E-04
RMM:  13    -0.413163983199E+03   -0.95633E-06   -0.39463E-07  1852   0.876E-04
    2 T=    61. E= -.41286632E+03 F= -.41316398E+03 E0= -.41314148E+03  EK= 0.29766E+00 SP= 0.00E+00 SK= 0.00E+00
       N       E                     dE             d eps       ncg     rms          rms(c)
RMM:   1    -0.413156245320E+03    0.77369E-02   -0.11066E+01  4194   0.701E-01    0.910E-01
RMM:   2    -0.413165840506E+03   -0.95952E-02   -0.13331E-01  3920   0.963E-02    0.634E-01
RMM:   3    -0.413164853688E+03    0.98682E-03   -0.71019E-03  4813   0.380E-02    0.163E-01
RMM:   4    -0.413190515066E+03   -0.25661E-01   -0.25937E-02  5185   0.135E-01    0.668E-01
RMM:   5    -0.413164500893E+03    0.26014E-01   -0.12633E-02  4836   0.112E-01    0.364E-02
RMM:   6    -0.413164668794E+03   -0.16790E-03   -0.20688E-03  5813   0.441E-02    0.206E-02
RMM:   7    -0.413164678313E+03   -0.95196E-05   -0.25801E-04  5898   0.137E-02    0.143E-02
RMM:   8    -0.413164678731E+03   -0.41758E-06   -0.36846E-05  4665   0.575E-03    0.785E-03
RMM:   9    -0.413164678091E+03    0.63980E-06   -0.71384E-06  3170   0.305E-03
    3 T=    61. E= -.41286682E+03 F= -.41316468E+03 E0= -.41314218E+03  EK= 0.29786E+00 SP= 0.00E+00 SK= 0.00E+00
       N       E                     dE             d eps       ncg     rms          rms(c)
RMM:   1    -0.413155674717E+03    0.90040E-02   -0.10977E+01  4227   0.699E-01    0.894E-01
RMM:   2    -0.413165934835E+03   -0.10260E-01   -0.13222E-01  4248   0.994E-02    0.628E-01
RMM:   3    -0.413169769249E+03   -0.38344E-02   -0.11044E-02  5187   0.761E-02    0.345E-01
RMM:   4    -0.413187315281E+03   -0.17546E-01   -0.36573E-02  5116   0.163E-01    0.633E-01
RMM:   5    -0.413164391190E+03    0.22924E-01   -0.89925E-03  4704   0.105E-01    0.534E-02
RMM:   6    -0.413164384203E+03    0.69872E-05   -0.15782E-03  5462   0.399E-02    0.193E-02
RMM:   7    -0.413164402393E+03   -0.18189E-04   -0.24965E-04  6012   0.146E-02    0.130E-02
RMM:   8    -0.413164404627E+03   -0.22342E-05   -0.37377E-05  5011   0.618E-03    0.690E-03
RMM:   9    -0.413164405798E+03   -0.11711E-05   -0.88034E-06  3449   0.382E-03    0.365E-03
RMM:  10    -0.413164407104E+03   -0.13059E-05   -0.14186E-06  2537   0.199E-03    0.221E-03
RMM:  11    -0.413164409282E+03   -0.21784E-05   -0.12291E-06  2544   0.171E-03    0.126E-03
RMM:  12    -0.413164410391E+03   -0.11090E-05   -0.54727E-07  2357   0.119E-03    0.455E-04
RMM:  13    -0.413164411478E+03   -0.10871E-05   -0.36147E-07  1641   0.856E-04    0.253E-04
RMM:  14    -0.413164412046E+03   -0.56792E-06   -0.22004E-07  1409   0.740E-04
    4 T=    61. E= -.41286655E+03 F= -.41316441E+03 E0= -.41314192E+03  EK= 0.29786E+00 SP= 0.00E+00 SK= 0.00E+00
       N       E                     dE             d eps       ncg     rms          rms(c)
RMM:   1    -0.413155549152E+03    0.88623E-02   -0.11021E+01  4238   0.706E-01    0.884E-01
RMM:   2    -0.413166200403E+03   -0.10651E-01   -0.13609E-01  4071   0.976E-02    0.640E-01
RMM:   3    -0.413164856056E+03    0.13443E-02   -0.67387E-03  4907   0.375E-02    0.159E-01
RMM:   4    -0.413194822511E+03   -0.29966E-01   -0.30573E-02  5162   0.146E-01    0.722E-01
RMM:   5    -0.413164329158E+03    0.30493E-01   -0.14761E-02  4816   0.121E-01    0.373E-02
RMM:   6    -0.413164520440E+03   -0.19128E-03   -0.23868E-03  5791   0.473E-02    0.192E-02
RMM:   7    -0.413164538180E+03   -0.17740E-04   -0.29426E-04  5901   0.142E-02    0.141E-02
RMM:   8    -0.413164543235E+03   -0.50544E-05   -0.39515E-05  4685   0.585E-03    0.795E-03
RMM:   9    -0.413164547155E+03   -0.39199E-05   -0.78376E-06  3206   0.313E-03    0.531E-03
RMM:  10    -0.413164552385E+03   -0.52301E-05   -0.18818E-06  2557   0.198E-03    0.314E-03
RMM:  11    -0.413164558477E+03   -0.60923E-05   -0.15365E-06  2558   0.181E-03    0.151E-03
RMM:  12    -0.413164562662E+03   -0.41850E-05   -0.86768E-07  2461   0.141E-03    0.480E-04
RMM:  13    -0.413164563474E+03   -0.81196E-06   -0.31588E-07  2005   0.932E-04
    5 T=    61. E= -.41286654E+03 F= -.41316456E+03 E0= -.41314209E+03  EK= 0.29803E+00 SP= 0.00E+00 SK= 0.00E+00
       N       E                     dE             d eps       ncg     rms          rms(c)
RMM:   1    -0.413156459423E+03    0.81032E-02   -0.11071E+01  4253   0.713E-01    0.906E-01
RMM:   2    -0.413166432428E+03   -0.99730E-02   -0.13339E-01  4033   0.970E-02    0.636E-01
RMM:   3    -0.413165296764E+03    0.11357E-02   -0.69325E-03  4806   0.375E-02    0.162E-01
RMM:   4    -0.413191344816E+03   -0.26048E-01   -0.26321E-02  5159   0.135E-01    0.674E-01
RMM:   5    -0.413164905871E+03    0.26439E-01   -0.12913E-02  4824   0.112E-01    0.361E-02
RMM:   6    -0.413165072594E+03   -0.16672E-03   -0.20752E-03  5795   0.439E-02    0.202E-02
RMM:   7    -0.413165082276E+03   -0.96823E-05   -0.25469E-04  5863   0.135E-02    0.142E-02
RMM:   8    -0.413165082987E+03   -0.71016E-06   -0.36561E-05  4666   0.577E-03    0.788E-03
RMM:   9    -0.413165082245E+03    0.74146E-06   -0.73210E-06  3183   0.311E-03
    6 T=    61. E= -.41286674E+03 F= -.41316508E+03 E0= -.41314262E+03  EK= 0.29834E+00 SP= 0.00E+00 SK= 0.00E+00
       N       E                     dE             d eps       ncg     rms          rms(c)
RMM:   1    -0.413156117127E+03    0.89659E-02   -0.11015E+01  4274   0.717E-01    0.901E-01
RMM:   2    -0.413165799611E+03   -0.96825E-02   -0.13283E-01  4284   0.992E-02    0.629E-01
RMM:   3    -0.413169904037E+03   -0.41044E-02   -0.11113E-02  5164   0.745E-02    0.341E-01
RMM:   4    -0.413187723800E+03   -0.17820E-01   -0.36371E-02  5100   0.162E-01    0.634E-01
RMM:   5    -0.413164720854E+03    0.23003E-01   -0.90696E-03  4699   0.105E-01    0.529E-02
RMM:   6    -0.413164718753E+03    0.21010E-05   -0.15988E-03  5492   0.399E-02    0.194E-02
RMM:   7    -0.413164734286E+03   -0.15533E-04   -0.24808E-04  6014   0.145E-02    0.130E-02
RMM:   8    -0.413164735016E+03   -0.73024E-06   -0.37334E-05  5000   0.619E-03    0.688E-03
RMM:   9    -0.413164733247E+03    0.17691E-05   -0.84290E-06  3360   0.378E-03    0.359E-03
RMM:  10    -0.413164733358E+03   -0.11148E-06   -0.13970E-06  2532   0.198E-03
    7 T=    61. E= -.41286629E+03 F= -.41316473E+03 E0= -.41314229E+03  EK= 0.29844E+00 SP= 0.00E+00 SK= 0.00E+00
       N       E                     dE             d eps       ncg     rms          rms(c)
RMM:   1    -0.413156305402E+03    0.84278E-02   -0.11017E+01  4268   0.721E-01    0.883E-01
RMM:   2    -0.413166929192E+03   -0.10624E-01   -0.13545E-01  4070   0.953E-02    0.637E-01
RMM:   3    -0.413165751824E+03    0.11774E-02   -0.67692E-03  4928   0.388E-02    0.165E-01
RMM:   4    -0.413199320908E+03   -0.33569E-01   -0.34428E-02  5149   0.154E-01    0.762E-01
RMM:   5    -0.413165195897E+03    0.34125E-01   -0.16557E-02  4808   0.127E-01    0.404E-02
RMM:   6    -0.413165397446E+03   -0.20155E-03   -0.26656E-03  5767   0.500E-02    0.193E-02
RMM:   7    -0.413165418588E+03   -0.21142E-04   -0.33280E-04  5908   0.148E-02    0.142E-02
RMM:   8    -0.413165423005E+03   -0.44169E-05   -0.40417E-05  4594   0.582E-03    0.767E-03
RMM:   9    -0.413165426142E+03   -0.31374E-05   -0.84596E-06  3226   0.311E-03    0.511E-03
RMM:  10    -0.413165430072E+03   -0.39292E-05   -0.20317E-06  2560   0.201E-03    0.299E-03
RMM:  11    -0.413165434463E+03   -0.43915E-05   -0.14753E-06  2549   0.176E-03    0.139E-03
RMM:  12    -0.413165437191E+03   -0.27276E-05   -0.83538E-07  2451   0.137E-03    0.413E-04
RMM:  13    -0.413165437858E+03   -0.66789E-06   -0.32778E-07  1987   0.929E-04
    8 T=    61. E= -.41286662E+03 F= -.41316544E+03 E0= -.41314301E+03  EK= 0.29882E+00 SP= 0.00E+00 SK= 0.00E+00
       N       E                     dE             d eps       ncg     rms          rms(c)
RMM:   1    -0.413156710411E+03    0.87268E-02   -0.11081E+01  4283   0.724E-01    0.900E-01
RMM:   2    -0.413166922636E+03   -0.10212E-01   -0.13467E-01  4173   0.101E-01    0.639E-01
RMM:   3    -0.413165779891E+03    0.11427E-02   -0.68785E-03  4790   0.385E-02    0.160E-01
RMM:   4    -0.413191203473E+03   -0.25424E-01   -0.25719E-02  5154   0.134E-01    0.666E-01
RMM:   5    -0.413165332883E+03    0.25871E-01   -0.12663E-02  4813   0.111E-01    0.350E-02
RMM:   6    -0.413165495299E+03   -0.16242E-03   -0.20228E-03  5792   0.433E-02    0.196E-02
RMM:   7    -0.413165506556E+03   -0.11257E-04   -0.24799E-04  5858   0.134E-02    0.138E-02
RMM:   8    -0.413165507476E+03   -0.92053E-06   -0.35368E-05  4622   0.573E-03    0.781E-03
RMM:   9    -0.413165506991E+03    0.48504E-06   -0.71247E-06  3161   0.310E-03
    9 T=    61. E= -.41286650E+03 F= -.41316551E+03 E0= -.41314310E+03  EK= 0.29900E+00 SP= 0.00E+00 SK= 0.00E+00
       N       E                     dE             d eps       ncg     rms          rms(c)
RMM:   1    -0.413157224386E+03    0.82831E-02   -0.11064E+01  4292   0.730E-01    0.908E-01
RMM:   2    -0.413166680070E+03   -0.94557E-02   -0.13290E-01  4310   0.970E-02    0.630E-01
RMM:   3    -0.413170909030E+03   -0.42290E-02   -0.11345E-02  5159   0.761E-02    0.346E-01
RMM:   4    -0.413187916560E+03   -0.17008E-01   -0.35796E-02  5088   0.161E-01    0.626E-01
RMM:   5    -0.413165646761E+03    0.22270E-01   -0.87390E-03  4691   0.103E-01    0.522E-02
RMM:   6    -0.413165646081E+03    0.68031E-06   -0.15571E-03  5488   0.391E-02    0.198E-02
RMM:   7    -0.413165660711E+03   -0.14630E-04   -0.23927E-04  6009   0.143E-02    0.131E-02
RMM:   8    -0.413165660004E+03    0.70663E-06   -0.36355E-05  4991   0.615E-03    0.687E-03
RMM:   9    -0.413165655963E+03    0.40412E-05   -0.81480E-06  3289   0.373E-03    0.358E-03
RMM:  10    -0.413165655169E+03    0.79402E-06   -0.13797E-06  2527   0.197E-03
   10 T=    61. E= -.41286646E+03 F= -.41316566E+03 E0= -.41314327E+03  EK= 0.29919E+00 SP= 0.00E+00 SK= 0.00E+00
       N       E                     dE             d eps       ncg     rms          rms(c)
RMM:   1    -0.413157360461E+03    0.82955E-02   -0.11013E+01  4301   0.730E-01    0.884E-01
RMM:   2    -0.413167939079E+03   -0.10579E-01   -0.13448E-01  4177   0.963E-02    0.634E-01
RMM:   3    -0.413166793820E+03    0.11453E-02   -0.67162E-03  4921   0.414E-02    0.168E-01
RMM:   4    -0.413201625065E+03   -0.34831E-01   -0.35813E-02  5150   0.157E-01    0.777E-01
RMM:   5    -0.413166134957E+03    0.35490E-01   -0.17339E-02  4805   0.130E-01    0.408E-02
RMM:   6    -0.413166336381E+03   -0.20142E-03   -0.27199E-03  5763   0.509E-02    0.200E-02
RMM:   7    -0.413166353453E+03   -0.17072E-04   -0.33934E-04  5925   0.152E-02    0.146E-02
RMM:   8    -0.413166355372E+03   -0.19194E-05   -0.41973E-05  4656   0.598E-03    0.796E-03
RMM:   9    -0.413166355844E+03   -0.47233E-06   -0.88789E-06  3265   0.321E-03
   11 T=    61. E= -.41286673E+03 F= -.41316636E+03 E0= -.41314400E+03  EK= 0.29962E+00 SP= 0.00E+00 SK= 0.00E+00
       N       E                     dE             d eps       ncg     rms          rms(c)
RMM:   1    -0.413157369810E+03    0.89856E-02   -0.11093E+01  4298   0.739E-01    0.895E-01
RMM:   2    -0.413167728598E+03   -0.10359E-01   -0.13619E-01  4300   0.996E-02    0.642E-01
RMM:   3    -0.413171041742E+03   -0.33131E-02   -0.10584E-02  5153   0.733E-02    0.329E-01
RMM:   4    -0.413194279902E+03   -0.23238E-01   -0.41555E-02  5102   0.172E-01    0.696E-01
RMM:   5    -0.413166194357E+03    0.28086E-01   -0.11375E-02  4710   0.115E-01    0.539E-02
RMM:   6    -0.413166231377E+03   -0.37020E-04   -0.19864E-03  5550   0.440E-02    0.180E-02
RMM:   7    -0.413166252893E+03   -0.21516E-04   -0.28291E-04  6033   0.151E-02    0.128E-02
RMM:   8    -0.413166255909E+03   -0.30162E-05   -0.41258E-05  5031   0.628E-03    0.699E-03
RMM:   9    -0.413166257002E+03   -0.10929E-05   -0.84884E-06  3219   0.371E-03    0.366E-03
RMM:  10    -0.413166258312E+03   -0.13099E-05   -0.17024E-06  2547   0.204E-03    0.216E-03
RMM:  11    -0.413166260076E+03   -0.17639E-05   -0.13017E-06  2547   0.172E-03    0.131E-03
RMM:  12    -0.413166260697E+03   -0.62137E-06   -0.57187E-07  2370   0.120E-03
   12 T=    61. E= -.41286635E+03 F= -.41316626E+03 E0= -.41314393E+03  EK= 0.29991E+00 SP= 0.00E+00 SK= 0.00E+00
       N       E                     dE             d eps       ncg     rms          rms(c)
RMM:   1    -0.413158408994E+03    0.78511E-02   -0.11114E+01  4295   0.745E-01    0.913E-01
RMM:   2    -0.413167949687E+03   -0.95407E-02   -0.13323E-01  4223   0.948E-02    0.632E-01
RMM:   3    -0.413167437883E+03    0.51180E-03   -0.73252E-03  4986   0.415E-02    0.180E-01
RMM:   4    -0.413205971688E+03   -0.38534E-01   -0.40229E-02  5148   0.166E-01    0.816E-01
RMM:   5    -0.413166692308E+03    0.39279E-01   -0.19064E-02  4797   0.137E-01    0.442E-02
RMM:   6    -0.413166911669E+03   -0.21936E-03   -0.30647E-03  5753   0.537E-02    0.223E-02
RMM:   7    -0.413166923715E+03   -0.12046E-04   -0.37766E-04  5935   0.161E-02    0.162E-02
RMM:   8    -0.413166920742E+03    0.29727E-05   -0.50390E-05  4934   0.652E-03    0.929E-03
RMM:   9    -0.413166915364E+03    0.53786E-05   -0.97279E-06  3374   0.336E-03    0.596E-03
RMM:  10    -0.413166911691E+03    0.36725E-05   -0.22172E-06  2552   0.213E-03    0.339E-03
RMM:  11    -0.413166908255E+03    0.34356E-05   -0.16154E-06  2543   0.190E-03    0.159E-03
RMM:  12    -0.413166905251E+03    0.30044E-05   -0.88871E-07  2468   0.149E-03    0.470E-04
RMM:  13    -0.413166904522E+03    0.72913E-06   -0.35421E-07  2115   0.100E-03
   13 T=    61. E= -.41286648E+03 F= -.41316690E+03 E0= -.41314460E+03  EK= 0.30043E+00 SP= 0.00E+00 SK= 0.00E+00
       N       E                     dE             d eps       ncg     rms          rms(c)
RMM:   1    -0.413158452681E+03    0.84526E-02   -0.11032E+01  4294   0.743E-01    0.888E-01
RMM:   2    -0.413168824817E+03   -0.10372E-01   -0.13482E-01  4231   0.956E-02    0.633E-01
RMM:   3    -0.413167833727E+03    0.99109E-03   -0.67436E-03  4872   0.386E-02    0.166E-01
RMM:   4    -0.413198930691E+03   -0.31097E-01   -0.31797E-02  5145   0.148E-01    0.735E-01
RMM:   5    -0.413167285909E+03    0.31645E-01   -0.15448E-02  4802   0.123E-01    0.380E-02
RMM:   6    -0.413167478710E+03   -0.19280E-03   -0.24975E-03  5791   0.479E-02    0.203E-02
RMM:   7    -0.413167489732E+03   -0.11022E-04   -0.29552E-04  5897   0.145E-02    0.146E-02
RMM:   8    -0.413167489147E+03    0.58489E-06   -0.42730E-05  4764   0.611E-03    0.860E-03
RMM:   9    -0.413167486502E+03    0.26459E-05   -0.85163E-06  3295   0.329E-03    0.576E-03
RMM:  10    -0.413167485881E+03    0.62042E-06   -0.19053E-06  2552   0.204E-03
   14 T=    61. E= -.41286654E+03 F= -.41316749E+03 E0= -.41314522E+03  EK= 0.30094E+00 SP= 0.00E+00 SK= 0.00E+00
       N       E                     dE             d eps       ncg     rms          rms(c)
RMM:   1    -0.413158605622E+03    0.88809E-02   -0.11122E+01  4305   0.753E-01    0.892E-01
RMM:   2    -0.413169473008E+03   -0.10867E-01   -0.13716E-01  4283   0.989E-02    0.644E-01
RMM:   3    -0.413171023090E+03   -0.15501E-02   -0.93663E-03  5124   0.650E-02    0.288E-01
RMM:   4    -0.413202795003E+03   -0.31772E-01   -0.46487E-02  5106   0.181E-01    0.776E-01
RMM:   5    -0.413167512347E+03    0.35283E-01   -0.15122E-02  4732   0.128E-01    0.515E-02
RMM:   6    -0.413167617473E+03   -0.10513E-03   -0.24628E-03  5621   0.493E-02    0.172E-02
RMM:   7    -0.413167642246E+03   -0.24774E-04   -0.32448E-04  6005   0.152E-02    0.130E-02
RMM:   8    -0.413167645245E+03   -0.29987E-05   -0.44696E-05  4981   0.636E-03    0.702E-03
RMM:   9    -0.413167645563E+03   -0.31757E-06   -0.80234E-06  3065   0.333E-03
   15 T=    61. E= -.41286630E+03 F= -.41316765E+03 E0= -.41314541E+03  EK= 0.30135E+00 SP= 0.00E+00 SK= 0.00E+00
       N       E                     dE             d eps       ncg     rms          rms(c)
RMM:   1    -0.413160286300E+03    0.73589E-02   -0.11162E+01  4294   0.761E-01    0.915E-01
RMM:   2    -0.413169724762E+03   -0.94385E-02   -0.13476E-01  4261   0.100E-01    0.636E-01
RMM:   3    -0.413168709056E+03    0.10157E-02   -0.70487E-03  4766   0.362E-02    0.162E-01
RMM:   4    -0.413188727106E+03   -0.20018E-01   -0.20120E-02  5147   0.119E-01    0.592E-01
RMM:   5    -0.413168413561E+03    0.20314E-01   -0.99814E-03  4816   0.978E-02    0.327E-02
RMM:   6    -0.413168529912E+03   -0.11635E-03   -0.15947E-03  5864   0.379E-02    0.194E-02
RMM:   7    -0.413168530575E+03   -0.66331E-06   -0.19139E-04  5822   0.123E-02    0.131E-02
RMM:   8    -0.413168526124E+03    0.44515E-05   -0.30534E-05  4543   0.547E-03    0.712E-03
RMM:   9    -0.413168521149E+03    0.49748E-05   -0.62295E-06  3044   0.301E-03    0.498E-03
RMM:  10    -0.413168518168E+03    0.29811E-05   -0.12948E-06  2527   0.182E-03    0.309E-03
RMM:  11    -0.413168513907E+03    0.42612E-05   -0.13644E-06  2533   0.178E-03    0.146E-03
RMM:  12    -0.413168510121E+03    0.37858E-05   -0.78849E-07  2427   0.136E-03    0.538E-04
RMM:  13    -0.413168509585E+03    0.53575E-06   -0.25037E-07  1809   0.850E-04
   16 T=    61. E= -.41286652E+03 F= -.41316851E+03 E0= -.41314631E+03  EK= 0.30199E+00 SP= 0.00E+00 SK= 0.00E+00
       N       E                     dE             d eps       ncg     rms          rms(c)
RMM:   1    -0.413160111237E+03    0.83989E-02   -0.11078E+01  4296   0.754E-01    0.895E-01
RMM:   2    -0.413170405901E+03   -0.10295E-01   -0.13514E-01  4256   0.978E-02    0.632E-01
RMM:   3    -0.413169339706E+03    0.10662E-02   -0.68305E-03  4890   0.407E-02    0.171E-01
RMM:   4    -0.413202713851E+03   -0.33374E-01   -0.34237E-02  5148   0.153E-01    0.760E-01
RMM:   5    -0.413168801222E+03    0.33913E-01   -0.16670E-02  4807   0.127E-01    0.394E-02
RMM:   6    -0.413168992019E+03   -0.19080E-03   -0.26040E-03  5789   0.495E-02    0.210E-02
RMM:   7    -0.413169000556E+03   -0.85370E-05   -0.31546E-04  5903   0.150E-02    0.150E-02
RMM:   8    -0.413168998036E+03    0.25204E-05   -0.44529E-05  4808   0.621E-03    0.880E-03
RMM:   9    -0.413168993288E+03    0.47482E-05   -0.89365E-06  3331   0.331E-03    0.582E-03
RMM:  10    -0.413168990375E+03    0.29126E-05   -0.19671E-06  2544   0.206E-03    0.337E-03
RMM:  11    -0.413168987339E+03    0.30367E-05   -0.16620E-06  2541   0.194E-03    0.158E-03
RMM:  12    -0.413168984810E+03    0.25290E-05   -0.84900E-07  2464   0.148E-03    0.500E-04
RMM:  13    -0.413168984273E+03    0.53670E-06   -0.32296E-07  2093   0.966E-04
   17 T=    62. E= -.41286647E+03 F= -.41316898E+03 E0= -.41314683E+03  EK= 0.30251E+00 SP= 0.00E+00 SK= 0.00E+00
       N       E                     dE             d eps       ncg     rms          rms(c)
RMM:   1    -0.413160408267E+03    0.85765E-02   -0.11154E+01  4297   0.765E-01    0.890E-01
RMM:   2    -0.413171389345E+03   -0.10981E-01   -0.13770E-01  4264   0.102E-01    0.644E-01
RMM:   3    -0.413169982799E+03    0.14065E-02   -0.68054E-03  4909   0.405E-02    0.168E-01
RMM:   4    -0.413205606525E+03   -0.35624E-01   -0.36878E-02  5147   0.159E-01    0.785E-01
RMM:   5    -0.413169309553E+03    0.36297E-01   -0.17731E-02  4802   0.131E-01    0.401E-02
RMM:   6    -0.413169514286E+03   -0.20473E-03   -0.28193E-03  5791   0.513E-02    0.206E-02
RMM:   7    -0.413169527515E+03   -0.13228E-04   -0.32880E-04  5916   0.153E-02    0.150E-02
RMM:   8    -0.413169527781E+03   -0.26673E-06   -0.47100E-05  4850   0.631E-03    0.890E-03
RMM:   9    -0.413169525681E+03    0.21001E-05   -0.94431E-06  3373   0.338E-03    0.585E-03
RMM:  10    -0.413169525861E+03   -0.18012E-06   -0.21569E-06  2552   0.212E-03
   18 T=    62. E= -.41286637E+03 F= -.41316953E+03 E0= -.41314741E+03  EK= 0.30315E+00 SP= 0.00E+00 SK= 0.00E+00
       N       E                     dE             d eps       ncg     rms          rms(c)
RMM:   1    -0.413162101669E+03    0.74240E-02   -0.11209E+01  4301   0.766E-01    0.914E-01
RMM:   2    -0.413171933803E+03   -0.98321E-02   -0.13609E-01  4301   0.101E-01    0.640E-01
RMM:   3    -0.413174589737E+03   -0.26559E-02   -0.10047E-02  5129   0.686E-02    0.307E-01
RMM:   4    -0.413200235144E+03   -0.25645E-01   -0.41456E-02  5092   0.171E-01    0.715E-01
RMM:   5    -0.413170592705E+03    0.29642E-01   -0.12351E-02  4714   0.118E-01    0.502E-02
RMM:   6    -0.413170657180E+03   -0.64475E-04   -0.20732E-03  5602   0.450E-02    0.190E-02
RMM:   7    -0.413170670379E+03   -0.13199E-04   -0.28035E-04  5990   0.144E-02    0.133E-02
RMM:   8    -0.413170667313E+03    0.30663E-05   -0.41088E-05  4966   0.624E-03    0.695E-03
RMM:   9    -0.413170659896E+03    0.74166E-05   -0.74046E-06  2997   0.330E-03    0.312E-03
RMM:  10    -0.413170657082E+03    0.28135E-05   -0.17992E-06  2548   0.192E-03    0.187E-03
RMM:  11    -0.413170653176E+03    0.39067E-05   -0.97472E-07  2509   0.151E-03    0.108E-03
RMM:  12    -0.413170650528E+03    0.26476E-05   -0.48421E-07  2167   0.111E-03    0.492E-04
RMM:  13    -0.413170648157E+03    0.23709E-05   -0.29452E-07  1786   0.880E-04    0.220E-04
RMM:  14    -0.413170646386E+03    0.17713E-05   -0.18496E-07  1441   0.745E-04    0.135E-04
RMM:  15    -0.413170643358E+03    0.30283E-05   -0.20482E-07  1648   0.758E-04    0.138E-04
RMM:  16    -0.413170641692E+03    0.16652E-05   -0.11632E-07  1250   0.630E-04    0.121E-04
RMM:  17    -0.413170639860E+03    0.18320E-05   -0.88346E-08  1145   0.598E-04    0.471E-05
RMM:  18    -0.413170638292E+03    0.15682E-05   -0.65592E-08  1031   0.567E-04    0.332E-05
RMM:  19    -0.413170637656E+03    0.63593E-06   -0.32400E-08   815   0.529E-04
   19 T=    62. E= -.41286664E+03 F= -.41317064E+03 E0= -.41314856E+03  EK= 0.30399E+00 SP= 0.00E+00 SK= 0.00E+00
       N       E                     dE             d eps       ncg     rms          rms(c)
RMM:   1    -0.413162766210E+03    0.78721E-02   -0.11157E+01  4297   0.779E-01    0.904E-01
RMM:   2    -0.413172441073E+03   -0.96749E-02   -0.13628E-01  4263   0.101E-01    0.633E-01
RMM:   3    -0.413171670786E+03    0.77029E-03   -0.70174E-03  4950   0.419E-02    0.182E-01
RMM:   4    -0.413210728449E+03   -0.39058E-01   -0.40938E-02  5152   0.168E-01    0.821E-01
RMM:   5    -0.413170927153E+03    0.39801E-01   -0.19501E-02  4797   0.138E-01    0.435E-02
RMM:   6    -0.413171130888E+03   -0.20374E-03   -0.30716E-03  5758   0.542E-02    0.221E-02
RMM:   7    -0.413171142283E+03   -0.11394E-04   -0.37633E-04  5889   0.161E-02    0.160E-02
RMM:   8    -0.413171138409E+03    0.38734E-05   -0.51864E-05  4978   0.663E-03    0.935E-03
RMM:   9    -0.413171131737E+03    0.66726E-05   -0.10189E-05  3441   0.345E-03    0.603E-03
RMM:  10    -0.413171127133E+03    0.46039E-05   -0.21975E-06  2550   0.215E-03    0.343E-03
RMM:  11    -0.413171122925E+03    0.42083E-05   -0.15709E-06  2530   0.192E-03    0.163E-03
RMM:  12    -0.413171119585E+03    0.33396E-05   -0.83137E-07  2466   0.149E-03    0.477E-04
RMM:  13    -0.413171118820E+03    0.76478E-06   -0.34003E-07  2130   0.100E-03
   20 T=    62. E= -.41286650E+03 F= -.41317112E+03 E0= -.41314909E+03  EK= 0.30462E+00 SP= 0.00E+00 SK= 0.00E+00
       N       E                     dE             d eps       ncg     rms          rms(c)
RMM:   1    -0.413163000868E+03    0.81187E-02   -0.11191E+01  4300   0.777E-01    0.890E-01
RMM:   2    -0.413173787770E+03   -0.10787E-01   -0.13904E-01  4277   0.102E-01    0.644E-01
RMM:   3    -0.413172499780E+03    0.12880E-02   -0.68558E-03  4922   0.420E-02    0.171E-01
RMM:   4    -0.413209235173E+03   -0.36735E-01   -0.38132E-02  5144   0.162E-01    0.796E-01
RMM:   5    -0.413171801828E+03    0.37433E-01   -0.18418E-02  4800   0.134E-01    0.405E-02
RMM:   6    -0.413172002351E+03   -0.20052E-03   -0.29070E-03  5789   0.527E-02    0.207E-02
RMM:   7    -0.413172016665E+03   -0.14315E-04   -0.34700E-04  5921   0.156E-02    0.152E-02
RMM:   8    -0.413172015788E+03    0.87685E-06   -0.49975E-05  4914   0.654E-03    0.919E-03
RMM:   9    -0.413172012185E+03    0.36031E-05   -0.10003E-05  3432   0.350E-03    0.602E-03
RMM:  10    -0.413172010927E+03    0.12583E-05   -0.22744E-06  2563   0.219E-03    0.346E-03
RMM:  11    -0.413172009792E+03    0.11353E-05   -0.19074E-06  2563   0.205E-03    0.163E-03
RMM:  12    -0.413172008677E+03    0.11150E-05   -0.85250E-07  2466   0.150E-03    0.524E-04
RMM:  13    -0.413172008418E+03    0.25883E-06   -0.33000E-07  2098   0.975E-04
   21 T=    62. E= -.41286653E+03 F= -.41317201E+03 E0= -.41315002E+03  EK= 0.30548E+00 SP= 0.00E+00 SK= 0.00E+00
       N       E                     dE             d eps       ncg     rms          rms(c)
RMM:   1    -0.413164350469E+03    0.76582E-02   -0.11268E+01  4296   0.783E-01    0.911E-01
RMM:   2    -0.413174592358E+03   -0.10242E-01   -0.13788E-01  4280   0.995E-02    0.644E-01
RMM:   3    -0.413173632210E+03    0.96015E-03   -0.71043E-03  4907   0.424E-02    0.176E-01
RMM:   4    -0.413210546018E+03   -0.36914E-01   -0.38193E-02  5140   0.162E-01    0.798E-01
RMM:   5    -0.413173000519E+03    0.37545E-01   -0.18467E-02  4795   0.134E-01    0.415E-02
RMM:   6    -0.413173202264E+03   -0.20174E-03   -0.29522E-03  5776   0.530E-02    0.218E-02
RMM:   7    -0.413173213392E+03   -0.11128E-04   -0.35726E-04  5900   0.158E-02    0.157E-02
RMM:   8    -0.413173209677E+03    0.37156E-05   -0.50665E-05  4943   0.658E-03    0.941E-03
RMM:   9    -0.413173203001E+03    0.66757E-05   -0.10022E-05  3435   0.347E-03    0.617E-03
RMM:  10    -0.413173198399E+03    0.46019E-05   -0.21611E-06  2555   0.215E-03    0.357E-03
RMM:  11    -0.413173193621E+03    0.47785E-05   -0.17570E-06  2548   0.202E-03    0.167E-03
RMM:  12    -0.413173189998E+03    0.36223E-05   -0.84450E-07  2467   0.152E-03    0.515E-04
RMM:  13    -0.413173189223E+03    0.77508E-06   -0.33467E-07  2123   0.994E-04
   22 T=    62. E= -.41286669E+03 F= -.41317319E+03 E0= -.41315125E+03  EK= 0.30650E+00 SP= 0.00E+00 SK= 0.00E+00
       N       E                     dE             d eps       ncg     rms          rms(c)
RMM:   1    -0.413165858063E+03    0.73319E-02   -0.11263E+01  4297   0.799E-01    0.914E-01
RMM:   2    -0.413175233311E+03   -0.93752E-02   -0.13673E-01  4277   0.107E-01    0.636E-01
RMM:   3    -0.413174377088E+03    0.85622E-03   -0.71758E-03  4877   0.444E-02    0.178E-01
RMM:   4    -0.413210197454E+03   -0.35820E-01   -0.36938E-02  5146   0.160E-01    0.787E-01
RMM:   5    -0.413173720397E+03    0.36477E-01   -0.17847E-02  4794   0.132E-01    0.417E-02
RMM:   6    -0.413173921237E+03   -0.20084E-03   -0.29468E-03  5784   0.524E-02    0.224E-02
RMM:   7    -0.413173929688E+03   -0.84503E-05   -0.34465E-04  5912   0.157E-02    0.159E-02
RMM:   8    -0.413173923688E+03    0.59998E-05   -0.50769E-05  4943   0.664E-03    0.972E-03
RMM:   9    -0.413173914921E+03    0.87671E-05   -0.10266E-05  3472   0.355E-03    0.645E-03
RMM:  10    -0.413173908300E+03    0.66204E-05   -0.21610E-06  2564   0.218E-03    0.377E-03
RMM:  11    -0.413173900905E+03    0.73949E-05   -0.19322E-06  2566   0.212E-03    0.176E-03
RMM:  12    -0.413173895397E+03    0.55085E-05   -0.86762E-07  2474   0.157E-03    0.557E-04
RMM:  13    -0.413173894333E+03    0.10632E-05   -0.33734E-07  2142   0.101E-03    0.391E-04
RMM:  14    -0.413173893006E+03    0.13271E-05   -0.16717E-07  1596   0.759E-04    0.234E-04
RMM:  15    -0.413173888395E+03    0.46118E-05   -0.20081E-07  1862   0.801E-04    0.283E-04
RMM:  16    -0.413173887936E+03    0.45836E-06   -0.62213E-08   989   0.585E-04
   23 T=    63. E= -.41286639E+03 F= -.41317389E+03 E0= -.41315199E+03  EK= 0.30749E+00 SP= 0.00E+00 SK= 0.00E+00
       N       E                     dE             d eps       ncg     rms          rms(c)
RMM:   1    -0.413166326195E+03    0.75622E-02   -0.11258E+01  4292   0.791E-01    0.893E-01
RMM:   2    -0.413177283331E+03   -0.10957E-01   -0.13976E-01  4278   0.104E-01    0.644E-01
RMM:   3    -0.413175734902E+03    0.15484E-02   -0.67897E-03  4833   0.430E-02    0.168E-01
RMM:   4    -0.413207344622E+03   -0.31610E-01   -0.32297E-02  5153   0.149E-01    0.739E-01
RMM:   5    -0.413175229616E+03    0.32115E-01   -0.15856E-02  4803   0.124E-01    0.378E-02
RMM:   6    -0.413175408331E+03   -0.17872E-03   -0.25435E-03  5782   0.488E-02    0.205E-02
RMM:   7    -0.413175419482E+03   -0.11151E-04   -0.29704E-04  5873   0.148E-02    0.144E-02
RMM:   8    -0.413175417311E+03    0.21708E-05   -0.45452E-05  4869   0.632E-03    0.894E-03
RMM:   9    -0.413175412170E+03    0.51411E-05   -0.93870E-06  3441   0.345E-03    0.594E-03
RMM:  10    -0.413175409724E+03    0.24458E-05   -0.19298E-06  2543   0.208E-03    0.353E-03
RMM:  11    -0.413175407118E+03    0.26069E-05   -0.18112E-06  2552   0.204E-03    0.165E-03
RMM:  12    -0.413175405051E+03    0.20668E-05   -0.80176E-07  2463   0.149E-03    0.540E-04
RMM:  13    -0.413175404664E+03    0.38656E-06   -0.30515E-07  2078   0.954E-04
   24 T=    63. E= -.41286662E+03 F= -.41317540E+03 E0= -.41315356E+03  EK= 0.30878E+00 SP= 0.00E+00 SK= 0.00E+00
       N       E                     dE             d eps       ncg     rms          rms(c)
RMM:   1    -0.413167413673E+03    0.79914E-02   -0.11361E+01  4294   0.797E-01    0.909E-01
RMM:   2    -0.413178184371E+03   -0.10771E-01   -0.13975E-01  4276   0.107E-01    0.649E-01
RMM:   3    -0.413176703105E+03    0.14813E-02   -0.69150E-03  4770   0.436E-02    0.168E-01
RMM:   4    -0.413205828750E+03   -0.29126E-01   -0.29558E-02  5153   0.143E-01    0.710E-01
RMM:   5    -0.413176235483E+03    0.29593E-01   -0.14554E-02  4806   0.119E-01    0.367E-02
RMM:   6    -0.413176398732E+03   -0.16325E-03   -0.23608E-03  5809   0.466E-02    0.204E-02
RMM:   7    -0.413176406969E+03   -0.82366E-05   -0.25409E-04  5812   0.140E-02    0.133E-02
RMM:   8    -0.413176404164E+03    0.28043E-05   -0.43845E-05  4873   0.619E-03    0.900E-03
RMM:   9    -0.413176397439E+03    0.67257E-05   -0.99096E-06  3593   0.357E-03    0.598E-03
RMM:  10    -0.413176393732E+03    0.37062E-05   -0.18486E-06  2539   0.214E-03    0.362E-03
RMM:  11    -0.413176389177E+03    0.45555E-05   -0.19539E-06  2566   0.212E-03    0.168E-03
RMM:  12    -0.413176385859E+03    0.33177E-05   -0.77272E-07  2467   0.151E-03    0.536E-04
RMM:  13    -0.413176385294E+03    0.56516E-06   -0.29526E-07  2077   0.946E-04
   25 T=    63. E= -.41286647E+03 F= -.41317639E+03 E0= -.41315459E+03  EK= 0.30991E+00 SP= 0.00E+00 SK= 0.00E+00
       N       E                     dE             d eps       ncg     rms          rms(c)
RMM:   1    -0.413168971295E+03    0.74146E-02   -0.11387E+01  4295   0.809E-01    0.924E-01
RMM:   2    -0.413178690886E+03   -0.97196E-02   -0.13877E-01  4276   0.109E-01    0.641E-01
RMM:   3    -0.413177730376E+03    0.96051E-03   -0.71755E-03  4695   0.433E-02    0.169E-01
RMM:   4    -0.413200924675E+03   -0.23194E-01   -0.23343E-02  5152   0.128E-01    0.636E-01
RMM:   5    -0.413177418183E+03    0.23506E-01   -0.11676E-02  4806   0.106E-01    0.348E-02
RMM:   6    -0.413177539114E+03   -0.12093E-03   -0.18656E-03  5812   0.411E-02    0.200E-02
RMM:   7    -0.413177540475E+03   -0.13609E-05   -0.18813E-04  5636   0.124E-02    0.112E-02
RMM:   8    -0.413177532798E+03    0.76771E-05   -0.28586E-05  4400   0.510E-03    0.739E-03
RMM:   9    -0.413177525554E+03    0.72442E-05   -0.76209E-06  3293   0.313E-03    0.536E-03
RMM:  10    -0.413177521114E+03    0.44395E-05   -0.16336E-06  2549   0.203E-03    0.349E-03
RMM:  11    -0.413177511795E+03    0.93198E-05   -0.18479E-06  2574   0.210E-03    0.159E-03
RMM:  12    -0.413177505490E+03    0.63044E-05   -0.73800E-07  2450   0.149E-03    0.665E-04
RMM:  13    -0.413177504641E+03    0.84957E-06   -0.24727E-07  2035   0.913E-04
   26 T=    63. E= -.41286630E+03 F= -.41317750E+03 E0= -.41315576E+03  EK= 0.31120E+00 SP= 0.00E+00 SK= 0.00E+00
       N       E                     dE             d eps       ncg     rms          rms(c)
RMM:   1    -0.413170098140E+03    0.74074E-02   -0.11352E+01  4293   0.807E-01    0.899E-01
RMM:   2    -0.413180857019E+03   -0.10759E-01   -0.14038E-01  4272   0.105E-01    0.644E-01
RMM:   3    -0.413179580909E+03    0.12761E-02   -0.67808E-03  4556   0.410E-02    0.161E-01
RMM:   4    -0.413193998641E+03   -0.14418E-01   -0.14643E-02  5157   0.101E-01    0.504E-01
RMM:   5    -0.413179414092E+03    0.14585E-01   -0.72826E-03  4819   0.832E-02    0.286E-02
RMM:   6    -0.413179476654E+03   -0.62562E-04   -0.11613E-03  5848   0.317E-02    0.171E-02
RMM:   7    -0.413179476993E+03   -0.33911E-06   -0.11809E-04  5469   0.101E-02    0.908E-03
RMM:   8    -0.413179470335E+03    0.66582E-05   -0.20619E-05  4223   0.456E-03    0.594E-03
RMM:   9    -0.413179467956E+03    0.23787E-05   -0.59927E-06  3109   0.294E-03    0.473E-03
RMM:  10    -0.413179464455E+03    0.35013E-05   -0.97323E-07  2509   0.177E-03    0.299E-03
RMM:  11    -0.413179458980E+03    0.54753E-05   -0.13186E-06  2518   0.180E-03    0.142E-03
RMM:  12    -0.413179455301E+03    0.36789E-05   -0.57781E-07  2387   0.127E-03    0.542E-04
RMM:  13    -0.413179454615E+03    0.68528E-06   -0.18097E-07  1672   0.779E-04
   27 T=    64. E= -.41286667E+03 F= -.41317945E+03 E0= -.41315776E+03  EK= 0.31278E+00 SP= 0.00E+00 SK= 0.00E+00
       N       E                     dE             d eps       ncg     rms          rms(c)
RMM:   1    -0.413171540092E+03    0.79152E-02   -0.11480E+01  4291   0.838E-01    0.908E-01
RMM:   2    -0.413182149085E+03   -0.10609E-01   -0.14342E-01  4271   0.108E-01    0.655E-01
RMM:   3    -0.413180678903E+03    0.14702E-02   -0.69473E-03  4457   0.426E-02    0.158E-01
RMM:   4    -0.413189547879E+03   -0.88690E-02   -0.93519E-03  5150   0.833E-02    0.398E-01
RMM:   5    -0.413180515783E+03    0.90321E-02   -0.44464E-03  4826   0.651E-02    0.251E-02
RMM:   6    -0.413180542781E+03   -0.26998E-04   -0.70147E-04  5849   0.249E-02    0.161E-02
RMM:   7    -0.413180543179E+03   -0.39799E-06   -0.99572E-05  5468   0.972E-03    0.101E-02
RMM:   8    -0.413180534350E+03    0.88296E-05   -0.16848E-05  4105   0.462E-03    0.466E-03
RMM:   9    -0.413180531782E+03    0.25677E-05   -0.32551E-06  2758   0.247E-03    0.355E-03
RMM:  10    -0.413180529110E+03    0.26725E-05   -0.73062E-07  2480   0.150E-03    0.225E-03
RMM:  11    -0.413180525172E+03    0.39372E-05   -0.70021E-07  2470   0.134E-03    0.102E-03
RMM:  12    -0.413180522171E+03    0.30017E-05   -0.37587E-07  2071   0.981E-04    0.357E-04
RMM:  13    -0.413180521165E+03    0.10058E-05   -0.15140E-07  1332   0.705E-04    0.204E-04
RMM:  14    -0.413180519803E+03    0.13621E-05   -0.98926E-08  1129   0.648E-04    0.125E-04
RMM:  15    -0.413180516722E+03    0.30812E-05   -0.11482E-07  1268   0.682E-04    0.138E-04
RMM:  16    -0.413180516403E+03    0.31871E-06   -0.44492E-08   873   0.580E-04
   28 T=    64. E= -.41286635E+03 F= -.41318052E+03 E0= -.41315887E+03  EK= 0.31417E+00 SP= 0.00E+00 SK= 0.00E+00
       N       E                     dE             d eps       ncg     rms          rms(c)
RMM:   1    -0.413175096286E+03    0.54204E-02   -0.11555E+01  4290   0.849E-01    0.932E-01
RMM:   2    -0.413183841580E+03   -0.87453E-02   -0.14186E-01  4273   0.112E-01    0.648E-01
RMM:   3    -0.413182679150E+03    0.11624E-02   -0.73093E-03  4444   0.416E-02    0.165E-01
RMM:   4    -0.413190489146E+03   -0.78100E-02   -0.81616E-03  5174   0.764E-02    0.371E-01
RMM:   5    -0.413182676251E+03    0.78129E-02   -0.38745E-03  4836   0.606E-02    0.270E-02
RMM:   6    -0.413182696271E+03   -0.20019E-04   -0.65169E-04  5844   0.237E-02    0.181E-02
RMM:   7    -0.413182690928E+03    0.53431E-05   -0.10879E-04  5397   0.101E-02    0.104E-02
RMM:   8    -0.413182679457E+03    0.11471E-04   -0.13780E-05  3824   0.438E-03    0.447E-03
RMM:   9    -0.413182674729E+03    0.47271E-05   -0.26043E-06  2710   0.226E-03    0.337E-03
RMM:  10    -0.413182669339E+03    0.53901E-05   -0.75549E-07  2479   0.149E-03    0.204E-03
RMM:  11    -0.413182662420E+03    0.69190E-05   -0.61479E-07  2433   0.130E-03    0.902E-04
RMM:  12    -0.413182657459E+03    0.49616E-05   -0.32475E-07  2050   0.964E-04    0.344E-04
RMM:  13    -0.413182655696E+03    0.17629E-05   -0.14303E-07  1343   0.713E-04    0.185E-04
RMM:  14    -0.413182652724E+03    0.29716E-05   -0.10075E-07  1200   0.670E-04    0.970E-05
RMM:  15    -0.413182648811E+03    0.39135E-05   -0.91636E-08  1285   0.670E-04    0.111E-04
RMM:  16    -0.413182647757E+03    0.10533E-05   -0.46522E-08   962   0.583E-04    0.693E-05
RMM:  17    -0.413182643480E+03    0.42774E-05   -0.83737E-08  1407   0.650E-04    0.525E-05
RMM:  18    -0.413182643051E+03    0.42930E-06   -0.23993E-08   750   0.512E-04
   29 T=    64. E= -.41286672E+03 F= -.41318264E+03 E0= -.41316105E+03  EK= 0.31593E+00 SP= 0.00E+00 SK= 0.00E+00
       N       E                     dE             d eps       ncg     rms          rms(c)
RMM:   1    -0.413175160274E+03    0.74832E-02   -0.11493E+01  4290   0.835E-01    0.909E-01
RMM:   2    -0.413185971092E+03   -0.10811E-01   -0.14338E-01  4270   0.110E-01    0.647E-01
RMM:   3    -0.413184567096E+03    0.14040E-02   -0.69647E-03  4467   0.443E-02    0.164E-01
RMM:   4    -0.413194356625E+03   -0.97895E-02   -0.10237E-02  5159   0.866E-02    0.417E-01
RMM:   5    -0.413184419998E+03    0.99366E-02   -0.49912E-03  4830   0.684E-02    0.267E-02
RMM:   6    -0.413184445490E+03   -0.25492E-04   -0.76969E-04  5854   0.260E-02    0.176E-02
RMM:   7    -0.413184443200E+03    0.22900E-05   -0.11348E-04  5484   0.102E-02    0.106E-02
RMM:   8    -0.413184433094E+03    0.10106E-04   -0.17351E-05  4092   0.474E-03    0.471E-03
RMM:   9    -0.413184429602E+03    0.34926E-05   -0.35054E-06  2793   0.251E-03    0.351E-03
RMM:  10    -0.413184425803E+03    0.37990E-05   -0.75003E-07  2477   0.151E-03    0.220E-03
RMM:  11    -0.413184420638E+03    0.51650E-05   -0.64407E-07  2457   0.131E-03    0.103E-03
RMM:  12    -0.413184416790E+03    0.38480E-05   -0.36484E-07  2111   0.988E-04    0.396E-04
RMM:  13    -0.413184415341E+03    0.14485E-05   -0.15134E-07  1378   0.715E-04    0.203E-04
RMM:  14    -0.413184413456E+03    0.18851E-05   -0.97398E-08  1122   0.652E-04    0.109E-04
RMM:  15    -0.413184410226E+03    0.32305E-05   -0.91896E-08  1218   0.664E-04    0.113E-04
RMM:  16    -0.413184409722E+03    0.50315E-06   -0.42588E-08   864   0.585E-04
   30 T=    65. E= -.41286668E+03 F= -.41318441E+03 E0= -.41316286E+03  EK= 0.31773E+00 SP= 0.00E+00 SK= 0.00E+00
       N       E                     dE             d eps       ncg     rms          rms(c)
RMM:   1    -0.413177280096E+03    0.71301E-02   -0.11632E+01  4291   0.873E-01    0.910E-01
RMM:   2    -0.413188448416E+03   -0.11168E-01   -0.14887E-01  4268   0.120E-01    0.661E-01
RMM:   3    -0.413186150321E+03    0.22981E-02   -0.68759E-03  4414   0.414E-02    0.161E-01
RMM:   4    -0.413191749098E+03   -0.55988E-02   -0.62455E-03  5156   0.668E-02    0.315E-01
RMM:   5    -0.413186120083E+03    0.56290E-02   -0.28239E-03  4826   0.516E-02    0.239E-02
RMM:   6    -0.413186128632E+03   -0.85492E-05   -0.45008E-04  5809   0.203E-02    0.170E-02
RMM:   7    -0.413186125336E+03    0.32965E-05   -0.86409E-05  5291   0.917E-03    0.844E-03
RMM:   8    -0.413186118665E+03    0.66705E-05   -0.10858E-05  3539   0.396E-03    0.378E-03
RMM:   9    -0.413186116933E+03    0.17322E-05   -0.17948E-06  2602   0.202E-03    0.269E-03
RMM:  10    -0.413186114272E+03    0.26615E-05   -0.67593E-07  2423   0.134E-03    0.157E-03
RMM:  11    -0.413186110953E+03    0.33191E-05   -0.52209E-07  2281   0.114E-03    0.627E-04
RMM:  12    -0.413186108696E+03    0.22568E-05   -0.26490E-07  1762   0.856E-04    0.256E-04
RMM:  13    -0.413186107516E+03    0.11797E-05   -0.13003E-07  1174   0.683E-04    0.145E-04
RMM:  14    -0.413186105795E+03    0.17208E-05   -0.10565E-07  1182   0.667E-04    0.788E-05
RMM:  15    -0.413186103581E+03    0.22144E-05   -0.95491E-08  1256   0.655E-04    0.883E-05
RMM:  16    -0.413186102727E+03    0.85356E-06   -0.48847E-08   947   0.577E-04
   31 T=    65. E= -.41286643E+03 F= -.41318610E+03 E0= -.41316461E+03  EK= 0.31968E+00 SP= 0.00E+00 SK= 0.00E+00
       N       E                     dE             d eps       ncg     rms          rms(c)
RMM:   1    -0.413189082120E+03   -0.29785E-02   -0.11817E+01  4292   0.927E-01    0.937E-01
RMM:   2    -0.413190259006E+03   -0.11769E-02   -0.15707E-01  4267   0.122E-01    0.657E-01
RMM:   3    -0.413188896884E+03    0.13621E-02   -0.72421E-03  4330   0.480E-02    0.179E-01
RMM:   4    -0.413192871876E+03   -0.39750E-02   -0.47379E-03  5121   0.611E-02    0.264E-01
RMM:   5    -0.413188934690E+03    0.39372E-02   -0.19102E-03  4820   0.432E-02    0.256E-02
RMM:   6    -0.413188933400E+03    0.12899E-05   -0.34997E-04  5759   0.182E-02    0.186E-02
RMM:   7    -0.413188919899E+03    0.13500E-04   -0.82345E-05  5170   0.902E-03    0.760E-03
RMM:   8    -0.413188911135E+03    0.87641E-05   -0.81339E-06  3251   0.359E-03    0.366E-03
RMM:   9    -0.413188907633E+03    0.35028E-05   -0.11711E-06  2530   0.184E-03    0.247E-03
RMM:  10    -0.413188900765E+03    0.68674E-05   -0.67706E-07  2434   0.132E-03    0.127E-03
RMM:  11    -0.413188894928E+03    0.58371E-05   -0.39360E-07  2135   0.102E-03    0.514E-04
RMM:  12    -0.413188890307E+03    0.46210E-05   -0.20880E-07  1634   0.804E-04    0.201E-04
RMM:  13    -0.413188887690E+03    0.26174E-05   -0.11378E-07  1175   0.676E-04    0.123E-04
RMM:  14    -0.413188884237E+03    0.34527E-05   -0.90384E-08  1198   0.657E-04    0.769E-05
RMM:  15    -0.413188879569E+03    0.46676E-05   -0.93723E-08  1404   0.667E-04    0.849E-05
RMM:  16    -0.413188877962E+03    0.16075E-05   -0.47534E-08   995   0.560E-04    0.534E-05
RMM:  17    -0.413188875336E+03    0.26262E-05   -0.45729E-08  1020   0.560E-04    0.285E-05
RMM:  18    -0.413188875032E+03    0.30356E-06   -0.19403E-08   717   0.503E-04
   32 T=    66. E= -.41286686E+03 F= -.41318888E+03 E0= -.41316743E+03  EK= 0.32201E+00 SP= 0.00E+00 SK= 0.00E+00
       N       E                     dE             d eps       ncg     rms          rms(c)
RMM:   1    -0.413196867950E+03   -0.79926E-02   -0.11853E+01  4293   0.960E-01    0.923E-01
RMM:   2    -0.413192528534E+03    0.43394E-02   -0.16548E-01  4276   0.135E-01    0.654E-01
RMM:   3    -0.413190779930E+03    0.17486E-02   -0.67378E-03  4130   0.403E-02    0.189E-01
RMM:   4    -0.413190896889E+03   -0.11696E-03   -0.14508E-03  4827   0.283E-02    0.545E-02
RMM:   5    -0.413190756744E+03    0.14014E-03   -0.10704E-04  4674   0.108E-02    0.257E-02
RMM:   6    -0.413190741361E+03    0.15383E-04   -0.78521E-05  5201   0.934E-03    0.177E-02
RMM:   7    -0.413190722392E+03    0.18970E-04   -0.48933E-05  4386   0.699E-03    0.512E-03
RMM:   8    -0.413190718579E+03    0.38128E-05   -0.29001E-06  2667   0.266E-03    0.294E-03
RMM:   9    -0.413190716689E+03    0.18894E-05   -0.52671E-07  2338   0.140E-03    0.172E-03
RMM:  10    -0.413190709488E+03    0.72014E-05   -0.38093E-07  1747   0.923E-04    0.648E-04
RMM:  11    -0.413190703531E+03    0.59565E-05   -0.18928E-07  1456   0.737E-04    0.290E-04
RMM:  12    -0.413190701121E+03    0.24104E-05   -0.71025E-08  1117   0.596E-04    0.159E-04
RMM:  13    -0.413190695105E+03    0.60163E-05   -0.93419E-08  1178   0.628E-04    0.109E-04
RMM:  14    -0.413190691552E+03    0.35532E-05   -0.43451E-08   891   0.553E-04    0.804E-05
RMM:  15    -0.413190689882E+03    0.16697E-05   -0.19430E-08   704   0.509E-04    0.420E-05
RMM:  16    -0.413190686673E+03    0.32091E-05   -0.34162E-08   896   0.543E-04    0.382E-05
RMM:  17    -0.413190686133E+03    0.54000E-06   -0.70584E-09   527   0.464E-04
   33 T=    66. E= -.41286655E+03 F= -.41319069E+03 E0= -.41316929E+03  EK= 0.32414E+00 SP= 0.00E+00 SK= 0.00E+00
       N       E                     dE             d eps       ncg     rms          rms(c)
RMM:   1    -0.413187069618E+03    0.36171E-02   -0.11848E+01  4289   0.947E-01    0.916E-01
RMM:   2    -0.413195064931E+03   -0.79953E-02   -0.15440E-01  4265   0.131E-01    0.666E-01
RMM:   3    -0.413193160741E+03    0.19042E-02   -0.69580E-03  4351   0.472E-02    0.167E-01
RMM:   4    -0.413196762254E+03   -0.36015E-02   -0.43448E-03  5130   0.591E-02    0.253E-01
RMM:   5    -0.413193188908E+03    0.35733E-02   -0.17186E-03  4796   0.415E-02    0.244E-02
RMM:   6    -0.413193178225E+03    0.10683E-04   -0.30659E-04  5688   0.181E-02    0.177E-02
RMM:   7    -0.413193172907E+03    0.53183E-05   -0.76450E-05  5108   0.884E-03    0.737E-03
RMM:   8    -0.413193167486E+03    0.54204E-05   -0.97947E-06  3544   0.385E-03    0.377E-03
RMM:   9    -0.413193166045E+03    0.14411E-05   -0.12344E-06  2534   0.186E-03    0.234E-03
RMM:  10    -0.413193162630E+03    0.34148E-05   -0.67158E-07  2389   0.130E-03    0.121E-03
RMM:  11    -0.413193159249E+03    0.33811E-05   -0.41956E-07  2123   0.101E-03    0.505E-04
RMM:  12    -0.413193156664E+03    0.25856E-05   -0.23015E-07  1562   0.799E-04    0.211E-04
RMM:  13    -0.413193155098E+03    0.15655E-05   -0.12376E-07  1111   0.673E-04    0.128E-04
RMM:  14    -0.413193153349E+03    0.17495E-05   -0.93812E-08  1077   0.646E-04    0.805E-05
RMM:  15    -0.413193150627E+03    0.27216E-05   -0.95839E-08  1236   0.655E-04    0.548E-05
RMM:  16    -0.413193150011E+03    0.61654E-06   -0.41335E-08   821   0.562E-04
   34 T=    66. E= -.41286668E+03 F= -.41319315E+03 E0= -.41317180E+03  EK= 0.32647E+00 SP= 0.00E+00 SK= 0.00E+00
       N       E                     dE             d eps       ncg     rms          rms(c)
RMM:   1    -0.413186844476E+03    0.63062E-02   -0.11932E+01  4298   0.922E-01    0.941E-01
RMM:   2    -0.413197479497E+03   -0.10635E-01   -0.15404E-01  4260   0.132E-01    0.665E-01
RMM:   3    -0.413195941817E+03    0.15377E-02   -0.72410E-03  4465   0.463E-02    0.174E-01
RMM:   4    -0.413203977911E+03   -0.80361E-02   -0.85964E-03  5166   0.792E-02    0.381E-01
RMM:   5    -0.413195801901E+03    0.81760E-02   -0.41350E-03  4824   0.629E-02    0.284E-02
RMM:   6    -0.413195792385E+03    0.95162E-05   -0.67513E-04  5780   0.255E-02    0.194E-02
RMM:   7    -0.413195787422E+03    0.49627E-05   -0.11685E-04  5408   0.103E-02    0.982E-03
RMM:   8    -0.413195777750E+03    0.96728E-05   -0.17308E-05  4095   0.467E-03    0.449E-03
RMM:   9    -0.413195773889E+03    0.38606E-05   -0.28551E-06  2741   0.234E-03    0.293E-03
RMM:  10    -0.413195768282E+03    0.56075E-05   -0.71504E-07  2461   0.143E-03    0.175E-03
RMM:  11    -0.413195761160E+03    0.71219E-05   -0.55099E-07  2410   0.120E-03    0.800E-04
RMM:  12    -0.413195755711E+03    0.54483E-05   -0.30341E-07  1927   0.913E-04    0.324E-04
RMM:  13    -0.413195753345E+03    0.23663E-05   -0.14153E-07  1290   0.706E-04    0.178E-04
RMM:  14    -0.413195750515E+03    0.28302E-05   -0.94059E-08  1080   0.654E-04    0.101E-04
RMM:  15    -0.413195745401E+03    0.51141E-05   -0.93862E-08  1268   0.672E-04    0.106E-04
RMM:  16    -0.413195744136E+03    0.12645E-05   -0.47909E-08   943   0.593E-04    0.783E-05
RMM:  17    -0.413195740358E+03    0.37781E-05   -0.56483E-08  1190   0.616E-04    0.530E-05
RMM:  18    -0.413195739138E+03    0.12198E-05   -0.27545E-08   819   0.540E-04    0.289E-05
RMM:  19    -0.413195738857E+03    0.28182E-06   -0.16074E-08   691   0.518E-04
   35 T=    67. E= -.41286681E+03 F= -.41319574E+03 E0= -.41317443E+03  EK= 0.32893E+00 SP= 0.00E+00 SK= 0.00E+00
       N       E                     dE             d eps       ncg     rms          rms(c)
RMM:   1    -0.413190661499E+03    0.50776E-02   -0.11963E+01  4297   0.965E-01    0.941E-01
RMM:   2    -0.413199337955E+03   -0.86765E-02   -0.15440E-01  4256   0.125E-01    0.659E-01
RMM:   3    -0.413198159319E+03    0.11786E-02   -0.75360E-03  4814   0.476E-02    0.191E-01
RMM:   4    -0.413232501402E+03   -0.34342E-01   -0.34808E-02  5158   0.156E-01    0.771E-01
RMM:   5    -0.413197716066E+03    0.34785E-01   -0.17461E-02  4801   0.129E-01    0.417E-02
RMM:   6    -0.413197798141E+03   -0.82074E-04   -0.27871E-03  5859   0.490E-02    0.229E-02
RMM:   7    -0.413197807917E+03   -0.97759E-05   -0.28549E-04  5746   0.147E-02    0.139E-02
RMM:   8    -0.413197799651E+03    0.82653E-05   -0.40300E-05  4760   0.607E-03    0.868E-03
RMM:   9    -0.413197795163E+03    0.44885E-05   -0.15832E-05  4169   0.423E-03    0.632E-03
RMM:  10    -0.413197787157E+03    0.80059E-05   -0.26559E-06  2603   0.255E-03    0.341E-03
RMM:  11    -0.413197780877E+03    0.62803E-05   -0.17392E-06  2531   0.204E-03    0.195E-03
RMM:  12    -0.413197771182E+03    0.96942E-05   -0.11268E-06  2481   0.183E-03    0.765E-04
RMM:  13    -0.413197768557E+03    0.26251E-05   -0.39716E-07  2293   0.115E-03    0.547E-04
RMM:  14    -0.413197767892E+03    0.66508E-06   -0.16360E-07  1624   0.771E-04
   36 T=    67. E= -.41286655E+03 F= -.41319777E+03 E0= -.41317651E+03  EK= 0.33122E+00 SP= 0.00E+00 SK= 0.00E+00
       N       E                     dE             d eps       ncg     rms          rms(c)
RMM:   1    -0.413193227663E+03    0.45409E-02   -0.12026E+01  4303   0.989E-01    0.923E-01
RMM:   2    -0.413202994833E+03   -0.97672E-02   -0.16040E-01  4256   0.135E-01    0.671E-01
RMM:   3    -0.413201330139E+03    0.16647E-02   -0.72598E-03  4773   0.531E-02    0.193E-01
RMM:   4    -0.413239537089E+03   -0.38207E-01   -0.38819E-02  5160   0.165E-01    0.812E-01
RMM:   5    -0.413200785210E+03    0.38752E-01   -0.19606E-02  4804   0.136E-01    0.421E-02
RMM:   6    -0.413200877172E+03   -0.91962E-04   -0.29695E-03  5864   0.512E-02    0.226E-02
RMM:   7    -0.413200888769E+03   -0.11597E-04   -0.30098E-04  5736   0.150E-02    0.137E-02
RMM:   8    -0.413200882458E+03    0.63113E-05   -0.35685E-05  4271   0.546E-03    0.760E-03
RMM:   9    -0.413200877153E+03    0.53048E-05   -0.91918E-06  3229   0.334E-03    0.438E-03
RMM:  10    -0.413200873999E+03    0.31541E-05   -0.20863E-06  2567   0.214E-03    0.289E-03
RMM:  11    -0.413200868191E+03    0.58083E-05   -0.14014E-06  2502   0.192E-03    0.152E-03
RMM:  12    -0.413200863204E+03    0.49867E-05   -0.79303E-07  2461   0.150E-03    0.592E-04
RMM:  13    -0.413200862049E+03    0.11544E-05   -0.31320E-07  2150   0.986E-04    0.406E-04
RMM:  14    -0.413200861148E+03    0.90163E-06   -0.14794E-07  1436   0.726E-04
   37 T=    68. E= -.41286688E+03 F= -.41320086E+03 E0= -.41317964E+03  EK= 0.33398E+00 SP= 0.00E+00 SK= 0.00E+00
       N       E                     dE             d eps       ncg     rms          rms(c)
RMM:   1    -0.413195104493E+03    0.57576E-02   -0.12166E+01  4306   0.101E+00    0.944E-01
RMM:   2    -0.413205776288E+03   -0.10672E-01   -0.15985E-01  4254   0.130E-01    0.675E-01
RMM:   3    -0.413203791583E+03    0.19847E-02   -0.75065E-03  4740   0.516E-02    0.192E-01
RMM:   4    -0.413236455116E+03   -0.32664E-01   -0.32922E-02  5153   0.152E-01    0.753E-01
RMM:   5    -0.413203378744E+03    0.33076E-01   -0.16798E-02  4814   0.125E-01    0.401E-02
RMM:   6    -0.413203441466E+03   -0.62721E-04   -0.25335E-03  5848   0.474E-02    0.224E-02
RMM:   7    -0.413203451619E+03   -0.10153E-04   -0.27377E-04  5810   0.145E-02    0.140E-02
RMM:   8    -0.413203444043E+03    0.75752E-05   -0.44908E-05  4907   0.645E-03    0.887E-03
RMM:   9    -0.413203439637E+03    0.44064E-05   -0.14774E-05  4112   0.421E-03    0.564E-03
RMM:  10    -0.413203432789E+03    0.68480E-05   -0.23230E-06  2575   0.236E-03    0.315E-03
RMM:  11    -0.413203427419E+03    0.53700E-05   -0.14015E-06  2503   0.186E-03    0.174E-03
RMM:  12    -0.413203419496E+03    0.79232E-05   -0.91713E-07  2465   0.163E-03    0.653E-04
RMM:  13    -0.413203416945E+03    0.25510E-05   -0.35350E-07  2224   0.108E-03    0.468E-04
RMM:  14    -0.413203416134E+03    0.81056E-06   -0.15298E-07  1530   0.745E-04
   38 T=    69. E= -.41286685E+03 F= -.41320342E+03 E0= -.41318224E+03  EK= 0.33657E+00 SP= 0.00E+00 SK= 0.00E+00
       N       E                     dE             d eps       ncg     rms          rms(c)
RMM:   1    -0.413201054062E+03    0.23629E-02   -0.12247E+01  4305   0.107E+00    0.957E-01
RMM:   2    -0.413207487326E+03   -0.64333E-02   -0.16212E-01  4262   0.126E-01    0.669E-01
RMM:   3    -0.413206400182E+03    0.10871E-02   -0.79595E-03  4947   0.529E-02    0.216E-01
RMM:   4    -0.413254844471E+03   -0.48444E-01   -0.50958E-02  5141   0.188E-01    0.913E-01
RMM:   5    -0.413205468732E+03    0.49376E-01   -0.24666E-02  4795   0.153E-01    0.490E-02
RMM:   6    -0.413205613111E+03   -0.14438E-03   -0.38394E-03  5830   0.578E-02    0.254E-02
RMM:   7    -0.413205628354E+03   -0.15243E-04   -0.39679E-04  5780   0.170E-02    0.157E-02
RMM:   8    -0.413205620179E+03    0.81752E-05   -0.49483E-05  4636   0.623E-03    0.898E-03
RMM:   9    -0.413205610088E+03    0.10091E-04   -0.15386E-05  4039   0.413E-03    0.565E-03
RMM:  10    -0.413205604898E+03    0.51906E-05   -0.41817E-06  2809   0.271E-03    0.329E-03
RMM:  11    -0.413205597191E+03    0.77062E-05   -0.15041E-06  2500   0.201E-03    0.191E-03
RMM:  12    -0.413205587075E+03    0.10116E-04   -0.86326E-07  2471   0.162E-03    0.553E-04
RMM:  13    -0.413205583513E+03    0.35622E-05   -0.36076E-07  2275   0.108E-03    0.418E-04
RMM:  14    -0.413205581666E+03    0.18469E-05   -0.16198E-07  1675   0.770E-04    0.275E-04
RMM:  15    -0.413205573946E+03    0.77195E-05   -0.13206E-07  1640   0.745E-04    0.239E-04
RMM:  16    -0.413205573034E+03    0.91251E-06   -0.53012E-08  1006   0.587E-04
   39 T=    69. E= -.41286663E+03 F= -.41320557E+03 E0= -.41318444E+03  EK= 0.33894E+00 SP= 0.00E+00 SK= 0.00E+00
       N       E                     dE             d eps       ncg     rms          rms(c)
RMM:   1    -0.413201413172E+03    0.41608E-02   -0.12232E+01  4307   0.110E+00    0.934E-01
RMM:   2    -0.413210914637E+03   -0.95015E-02   -0.16448E-01  4267   0.132E-01    0.674E-01
RMM:   3    -0.413209722217E+03    0.11924E-02   -0.78993E-03  4998   0.553E-02    0.231E-01
RMM:   4    -0.413263540397E+03   -0.53818E-01   -0.58789E-02  5132   0.201E-01    0.962E-01
RMM:   5    -0.413208368972E+03    0.55171E-01   -0.27051E-02  4786   0.162E-01    0.521E-02
RMM:   6    -0.413208552073E+03   -0.18310E-03   -0.43936E-03  5826   0.611E-02    0.254E-02
RMM:   7    -0.413208572532E+03   -0.20460E-04   -0.45680E-04  5869   0.181E-02    0.171E-02
RMM:   8    -0.413208572089E+03    0.44366E-06   -0.77060E-05  5169   0.786E-03    0.118E-02
RMM:   9    -0.413208561671E+03    0.10418E-04   -0.19732E-05  4363   0.485E-03    0.637E-03
RMM:  10    -0.413208555731E+03    0.59396E-05   -0.42762E-06  2713   0.286E-03    0.342E-03
RMM:  11    -0.413208551298E+03    0.44332E-05   -0.17117E-06  2508   0.209E-03    0.198E-03
RMM:  12    -0.413208545144E+03    0.61539E-05   -0.94662E-07  2480   0.168E-03    0.681E-04
RMM:  13    -0.413208542286E+03    0.28584E-05   -0.41674E-07  2300   0.115E-03    0.405E-04
RMM:  14    -0.413208540301E+03    0.19842E-05   -0.20139E-07  1806   0.818E-04    0.258E-04
RMM:  15    -0.413208535219E+03    0.50822E-05   -0.15390E-07  1557   0.749E-04    0.221E-04
RMM:  16    -0.413208534534E+03    0.68521E-06   -0.68859E-08  1035   0.603E-04
   40 T=    70. E= -.41286705E+03 F= -.41320853E+03 E0= -.41318743E+03  EK= 0.34148E+00 SP= 0.00E+00 SK= 0.00E+00
       N       E                     dE             d eps       ncg     rms          rms(c)
RMM:   1    -0.413213760190E+03   -0.52250E-02   -0.12485E+01  4304   0.122E+00    0.947E-01
RMM:   2    -0.413212402074E+03    0.13581E-02   -0.17324E-01  4271   0.140E-01    0.685E-01
RMM:   3    -0.413211814938E+03    0.58714E-03   -0.84389E-03  5042   0.589E-02    0.257E-01
RMM:   4    -0.413267076588E+03   -0.55262E-01   -0.63082E-02  5125   0.209E-01    0.979E-01
RMM:   5    -0.413209965010E+03    0.57112E-01   -0.27729E-02  4777   0.165E-01    0.544E-02
RMM:   6    -0.413210134095E+03   -0.16908E-03   -0.43373E-03  5811   0.618E-02    0.255E-02
RMM:   7    -0.413210154548E+03   -0.20453E-04   -0.47576E-04  5932   0.187E-02    0.180E-02
RMM:   8    -0.413210154039E+03    0.50910E-06   -0.83846E-05  5268   0.833E-03    0.120E-02
RMM:   9    -0.413210143072E+03    0.10966E-04   -0.17754E-05  4220   0.481E-03    0.562E-03
RMM:  10    -0.413210137412E+03    0.56607E-05   -0.44437E-06  2727   0.282E-03    0.307E-03
RMM:  11    -0.413210133205E+03    0.42064E-05   -0.15046E-06  2506   0.197E-03    0.170E-03
RMM:  12    -0.413210127754E+03    0.54510E-05   -0.79114E-07  2457   0.153E-03    0.643E-04
RMM:  13    -0.413210124830E+03    0.29244E-05   -0.37173E-07  2211   0.106E-03    0.340E-04
RMM:  14    -0.413210122154E+03    0.26756E-05   -0.19736E-07  1645   0.800E-04    0.209E-04
RMM:  15    -0.413210118045E+03    0.41094E-05   -0.13985E-07  1395   0.723E-04    0.133E-04
RMM:  16    -0.413210116650E+03    0.13953E-05   -0.79566E-08  1119   0.635E-04    0.689E-05
RMM:  17    -0.413210114506E+03    0.21435E-05   -0.62531E-08  1090   0.624E-04    0.495E-05
RMM:  18    -0.413210111328E+03    0.31782E-05   -0.62336E-08  1222   0.630E-04    0.368E-05
RMM:  19    -0.413210110692E+03    0.63600E-06   -0.28787E-08   862   0.561E-04
   41 T=    70. E= -.41286660E+03 F= -.41321011E+03 E0= -.41318905E+03  EK= 0.34351E+00 SP= 0.00E+00 SK= 0.00E+00
       N       E                     dE             d eps       ncg     rms          rms(c)
RMM:   1    -0.413225335006E+03   -0.15224E-01   -0.12634E+01  4310   0.129E+00    0.971E-01
RMM:   2    -0.413214102996E+03    0.11232E-01   -0.17812E-01  4291   0.146E-01    0.678E-01
RMM:   3    -0.413216200026E+03   -0.20970E-02   -0.10571E-02  5118   0.728E-02    0.328E-01
RMM:   4    -0.413251929584E+03   -0.35730E-01   -0.51529E-02  5095   0.191E-01    0.826E-01
RMM:   5    -0.413212446500E+03    0.39483E-01   -0.17838E-02  4735   0.138E-01    0.534E-02
RMM:   6    -0.413212506065E+03   -0.59565E-04   -0.29626E-03  5759   0.514E-02    0.245E-02
RMM:   7    -0.413212516611E+03   -0.10546E-04   -0.36537E-04  5884   0.166E-02    0.178E-02
RMM:   8    -0.413212512597E+03    0.40142E-05   -0.73055E-05  5170   0.809E-03    0.105E-02
RMM:   9    -0.413212499065E+03    0.13532E-04   -0.15171E-05  3985   0.473E-03    0.415E-03
RMM:  10    -0.413212492626E+03    0.64399E-05   -0.33494E-06  2671   0.243E-03    0.238E-03
RMM:  11    -0.413212485749E+03    0.68764E-05   -0.11629E-06  2502   0.172E-03    0.122E-03
RMM:  12    -0.413212479298E+03    0.64510E-05   -0.52132E-07  2383   0.126E-03    0.545E-04
RMM:  13    -0.413212474996E+03    0.43022E-05   -0.27076E-07  1785   0.893E-04    0.248E-04
RMM:  14    -0.413212470948E+03    0.40481E-05   -0.16603E-07  1376   0.748E-04    0.140E-04
RMM:  15    -0.413212464417E+03    0.65310E-05   -0.14099E-07  1437   0.729E-04    0.104E-04
RMM:  16    -0.413212462699E+03    0.17181E-05   -0.84919E-08  1166   0.638E-04    0.775E-05
RMM:  17    -0.413212458270E+03    0.44287E-05   -0.80763E-08  1334   0.648E-04    0.591E-05
RMM:  18    -0.413212455872E+03    0.23976E-05   -0.52216E-08  1095   0.585E-04    0.450E-05
RMM:  19    -0.413212455278E+03    0.59402E-06   -0.30018E-08   843   0.536E-04
   42 T=    70. E= -.41286682E+03 F= -.41321246E+03 E0= -.41319142E+03  EK= 0.34564E+00 SP= 0.00E+00 SK= 0.00E+00
       N       E                     dE             d eps       ncg     rms          rms(c)
RMM:   1    -0.413218456533E+03   -0.60007E-02   -0.12502E+01  4311   0.133E+00    0.946E-01
RMM:   2    -0.413215838166E+03    0.26184E-02   -0.17021E-01  4300   0.151E-01    0.678E-01
RMM:   3    -0.413219285109E+03   -0.34469E-02   -0.11597E-02  5101   0.820E-02    0.359E-01
RMM:   4    -0.413248263456E+03   -0.28978E-01   -0.48533E-02  5061   0.186E-01    0.769E-01
RMM:   5    -0.413214242143E+03    0.34021E-01   -0.14763E-02  4706   0.129E-01    0.513E-02
RMM:   6    -0.413214267515E+03   -0.25372E-04   -0.24828E-03  5736   0.474E-02    0.235E-02
RMM:   7    -0.413214273492E+03   -0.59767E-05   -0.30457E-04  5844   0.157E-02    0.173E-02
RMM:   8    -0.413214269536E+03    0.39561E-05   -0.64580E-05  5127   0.778E-03    0.967E-03
RMM:   9    -0.413214258068E+03    0.11467E-04   -0.14162E-05  3897   0.464E-03    0.384E-03
RMM:  10    -0.413214253536E+03    0.45326E-05   -0.29026E-06  2656   0.231E-03    0.219E-03
RMM:  11    -0.413214248124E+03    0.54120E-05   -0.11788E-06  2500   0.170E-03    0.116E-03
RMM:  12    -0.413214243633E+03    0.44906E-05   -0.50638E-07  2369   0.123E-03    0.520E-04
RMM:  13    -0.413214240430E+03    0.32036E-05   -0.26877E-07  1664   0.865E-04    0.240E-04
RMM:  14    -0.413214237496E+03    0.29335E-05   -0.17099E-07  1329   0.740E-04    0.129E-04
RMM:  15    -0.413214232707E+03    0.47890E-05   -0.14816E-07  1353   0.724E-04    0.895E-05
RMM:  16    -0.413214231098E+03    0.16095E-05   -0.89520E-08  1138   0.646E-04    0.697E-05
RMM:  17    -0.413214228299E+03    0.27990E-05   -0.73302E-08  1155   0.633E-04    0.451E-05
RMM:  18    -0.413214225693E+03    0.26061E-05   -0.60287E-08  1149   0.607E-04    0.491E-05
RMM:  19    -0.413214225245E+03    0.44775E-06   -0.30277E-08   807   0.537E-04
   43 T=    71. E= -.41286680E+03 F= -.41321423E+03 E0= -.41319322E+03  EK= 0.34742E+00 SP= 0.00E+00 SK= 0.00E+00
       N       E                     dE             d eps       ncg     rms          rms(c)
RMM:   1    -0.413246670617E+03   -0.32445E-01   -0.12892E+01  4312   0.151E+00    0.946E-01
RMM:   2    -0.413216981199E+03    0.29689E-01   -0.20685E-01  4312   0.172E-01    0.696E-01
RMM:   3    -0.413221454374E+03   -0.44732E-02   -0.12315E-02  5094   0.901E-02    0.415E-01
RMM:   4    -0.413248612656E+03   -0.27158E-01   -0.50560E-02  5058   0.191E-01    0.771E-01
RMM:   5    -0.413215023175E+03    0.33589E-01   -0.14765E-02  4692   0.131E-01    0.554E-02
RMM:   6    -0.413215028076E+03   -0.49007E-05   -0.24806E-03  5677   0.477E-02    0.243E-02
RMM:   7    -0.413215034853E+03   -0.67768E-05   -0.31216E-04  5898   0.160E-02    0.182E-02
RMM:   8    -0.413215030752E+03    0.41014E-05   -0.62417E-05  5147   0.772E-03    0.100E-02
RMM:   9    -0.413215020483E+03    0.10269E-04   -0.16418E-05  4036   0.503E-03    0.423E-03
RMM:  10    -0.413215016916E+03    0.35665E-05   -0.31749E-06  2670   0.239E-03    0.241E-03
RMM:  11    -0.413215012806E+03    0.41105E-05   -0.16721E-06  2560   0.191E-03    0.134E-03
RMM:  12    -0.413215009821E+03    0.29848E-05   -0.55431E-07  2446   0.132E-03    0.634E-04
RMM:  13    -0.413215007022E+03    0.27992E-05   -0.31552E-07  1646   0.908E-04    0.320E-04
RMM:  14    -0.413215004572E+03    0.24497E-05   -0.20811E-07  1428   0.786E-04    0.165E-04
RMM:  15    -0.413215001924E+03    0.26479E-05   -0.15510E-07  1364   0.725E-04    0.916E-05
RMM:  16    -0.413214999609E+03    0.23155E-05   -0.11309E-07  1241   0.670E-04    0.537E-05
RMM:  17    -0.413214997595E+03    0.20131E-05   -0.84263E-08  1193   0.633E-04    0.528E-05
RMM:  18    -0.413214995624E+03    0.19716E-05   -0.61989E-08  1074   0.590E-04    0.352E-05
RMM:  19    -0.413214994729E+03    0.89492E-06   -0.38283E-08   870   0.548E-04
   44 T=    71. E= -.41286643E+03 F= -.41321499E+03 E0= -.41319402E+03  EK= 0.34856E+00 SP= 0.00E+00 SK= 0.00E+00
       N       E                     dE             d eps       ncg     rms          rms(c)
RMM:   1    -0.413226408624E+03   -0.11413E-01   -0.12709E+01  4307   0.151E+00    0.976E-01
RMM:   2    -0.413217622815E+03    0.87858E-02   -0.17900E-01  4342   0.177E-01    0.685E-01
RMM:   3    -0.413228724919E+03   -0.11102E-01   -0.18551E-02  5143   0.115E-01    0.513E-01
RMM:   4    -0.413233471332E+03   -0.47464E-02   -0.38931E-02  5015   0.171E-01    0.562E-01
RMM:   5    -0.413216532294E+03    0.16939E-01   -0.64233E-03  4583   0.968E-02    0.468E-02
RMM:   6    -0.413216490991E+03    0.41304E-04   -0.12163E-03  5416   0.338E-02    0.223E-02
RMM:   7    -0.413216488891E+03    0.20999E-05   -0.15365E-04  5649   0.120E-02    0.160E-02
RMM:   8    -0.413216482046E+03    0.68447E-05   -0.59859E-05  5075   0.782E-03    0.854E-03
RMM:   9    -0.413216467207E+03    0.14839E-04   -0.13088E-05  3950   0.475E-03    0.354E-03
RMM:  10    -0.413216463073E+03    0.41332E-05   -0.18323E-06  2579   0.204E-03    0.191E-03
RMM:  11    -0.413216455713E+03    0.73601E-05   -0.11320E-06  2495   0.166E-03    0.114E-03
RMM:  12    -0.413216450126E+03    0.55870E-05   -0.45093E-07  2371   0.119E-03    0.530E-04
RMM:  13    -0.413216446061E+03    0.40655E-05   -0.22150E-07  1565   0.800E-04    0.247E-04
RMM:  14    -0.413216442321E+03    0.37398E-05   -0.13739E-07  1243   0.689E-04    0.134E-04
RMM:  15    -0.413216436252E+03    0.60694E-05   -0.12551E-07  1318   0.695E-04    0.111E-04
RMM:  16    -0.413216433828E+03    0.24233E-05   -0.72024E-08  1061   0.610E-04    0.981E-05
RMM:  17    -0.413216431014E+03    0.28138E-05   -0.57855E-08  1065   0.587E-04    0.550E-05
RMM:  18    -0.413216427477E+03    0.35372E-05   -0.53472E-08  1127   0.592E-04    0.478E-05
RMM:  19    -0.413216427107E+03    0.37066E-06   -0.24730E-08   747   0.509E-04
   45 T=    71. E= -.41286688E+03 F= -.41321643E+03 E0= -.41319548E+03  EK= 0.34955E+00 SP= 0.00E+00 SK= 0.00E+00
       N       E                     dE             d eps       ncg     rms          rms(c)
RMM:   1    -0.413228617087E+03   -0.12190E-01   -0.12622E+01  4307   0.160E+00    0.956E-01
RMM:   2    -0.413217442529E+03    0.11175E-01   -0.18119E-01  4360   0.189E-01    0.682E-01
RMM:   3    -0.413230896181E+03   -0.13454E-01   -0.20445E-02  5133   0.124E-01    0.556E-01
RMM:   4    -0.413230805520E+03    0.90661E-04   -0.38204E-02  5005   0.171E-01    0.526E-01
RMM:   5    -0.413216341438E+03    0.14464E-01   -0.55705E-03  4554   0.932E-02    0.469E-02
RMM:   6    -0.413216279556E+03    0.61881E-04   -0.95123E-04  5219   0.311E-02    0.218E-02
RMM:   7    -0.413216276713E+03    0.28430E-05   -0.12288E-04  5700   0.107E-02    0.143E-02
RMM:   8    -0.413216274526E+03    0.21877E-05   -0.68272E-05  5204   0.822E-03    0.958E-03
RMM:   9    -0.413216259211E+03    0.15315E-04   -0.17934E-05  4322   0.535E-03    0.381E-03
RMM:  10    -0.413216256058E+03    0.31535E-05   -0.23625E-06  2639   0.219E-03    0.206E-03
RMM:  11    -0.413216250201E+03    0.58567E-05   -0.13056E-06  2488   0.182E-03    0.122E-03
RMM:  12    -0.413216245492E+03    0.47091E-05   -0.50289E-07  2397   0.129E-03    0.646E-04
RMM:  13    -0.413216241670E+03    0.38221E-05   -0.22803E-07  1641   0.855E-04    0.310E-04
RMM:  14    -0.413216238004E+03    0.36660E-05   -0.12954E-07  1311   0.703E-04    0.154E-04
RMM:  15    -0.413216232807E+03    0.51962E-05   -0.11433E-07  1280   0.675E-04    0.135E-04
RMM:  16    -0.413216230873E+03    0.19343E-05   -0.54551E-08   893   0.569E-04    0.105E-04
RMM:  17    -0.413216227350E+03    0.35232E-05   -0.56989E-08  1036   0.585E-04    0.693E-05
RMM:  18    -0.413216224781E+03    0.25687E-05   -0.42262E-08   972   0.562E-04    0.498E-05
RMM:  19    -0.413216224195E+03    0.58669E-06   -0.17226E-08   655   0.502E-04
   46 T=    71. E= -.41286685E+03 F= -.41321622E+03 E0= -.41319529E+03  EK= 0.34937E+00 SP= 0.00E+00 SK= 0.00E+00
       N       E                     dE             d eps       ncg     rms          rms(c)
RMM:   1    -0.413249401562E+03   -0.33177E-01   -0.12853E+01  4310   0.175E+00    0.943E-01
RMM:   2    -0.413216878375E+03    0.32523E-01   -0.20790E-01  4371   0.207E-01    0.697E-01
RMM:   3    -0.413230050561E+03   -0.13172E-01   -0.20203E-02  5134   0.127E-01    0.577E-01
RMM:   4    -0.413231245488E+03   -0.11949E-02   -0.40784E-02  5005   0.177E-01    0.560E-01
RMM:   5    -0.413215078048E+03    0.16167E-01   -0.66811E-03  4560   0.101E-01    0.509E-02
RMM:   6    -0.413215005745E+03    0.72303E-04   -0.10908E-03  5244   0.337E-02    0.233E-02
RMM:   7    -0.413215002558E+03    0.31872E-05   -0.14717E-04  5762   0.117E-02    0.164E-02
RMM:   8    -0.413214998064E+03    0.44937E-05   -0.66758E-05  5191   0.816E-03    0.971E-03
RMM:   9    -0.413214984180E+03    0.13884E-04   -0.17888E-05  4300   0.546E-03    0.412E-03
RMM:  10    -0.413214981587E+03    0.25926E-05   -0.24628E-06  2641   0.221E-03    0.221E-03
RMM:  11    -0.413214977633E+03    0.39540E-05   -0.15451E-06  2516   0.192E-03    0.138E-03
RMM:  12    -0.413214974562E+03    0.30713E-05   -0.53475E-07  2428   0.134E-03    0.703E-04
RMM:  13    -0.413214971639E+03    0.29229E-05   -0.26740E-07  1728   0.887E-04    0.308E-04
RMM:  14    -0.413214969129E+03    0.25097E-05   -0.16412E-07  1356   0.732E-04    0.158E-04
RMM:  15    -0.413214965801E+03    0.33286E-05   -0.14165E-07  1288   0.694E-04    0.986E-05
RMM:  16    -0.413214963970E+03    0.18312E-05   -0.79832E-08  1011   0.602E-04    0.742E-05
RMM:  17    -0.413214961814E+03    0.21556E-05   -0.64877E-08  1000   0.585E-04    0.471E-05
RMM:  18    -0.413214960283E+03    0.15309E-05   -0.43825E-08   860   0.555E-04    0.324E-05
RMM:  19    -0.413214959772E+03    0.51110E-06   -0.25249E-08   704   0.523E-04
   47 T=    71. E= -.41286695E+03 F= -.41321496E+03 E0= -.41319405E+03  EK= 0.34801E+00 SP= 0.00E+00 SK= 0.00E+00
       N       E                     dE             d eps       ncg     rms          rms(c)
RMM:   1    -0.413261346994E+03   -0.46387E-01   -0.12924E+01  4304   0.191E+00    0.968E-01
RMM:   2    -0.413213864798E+03    0.47482E-01   -0.20565E-01  4460   0.209E-01    0.691E-01
RMM:   3    -0.413236357990E+03   -0.22493E-01   -0.28746E-02  5148   0.151E-01    0.697E-01
RMM:   4    -0.413221637956E+03    0.14720E-01   -0.38103E-02  4967   0.175E-01    0.443E-01
RMM:   5    -0.413212718560E+03    0.89194E-02   -0.47084E-03  4552   0.898E-02    0.556E-02
RMM:   6    -0.413212562312E+03    0.15625E-03   -0.48518E-04  4741   0.283E-02    0.252E-02
RMM:   7    -0.413212564065E+03   -0.17528E-05   -0.15989E-04  5912   0.127E-02    0.178E-02
RMM:   8    -0.413212547714E+03    0.16350E-04   -0.53185E-05  5046   0.798E-03    0.981E-03
RMM:   9    -0.413212534897E+03    0.12817E-04   -0.13172E-05  3823   0.467E-03    0.474E-03
RMM:  10    -0.413212529916E+03    0.49810E-05   -0.21825E-06  2569   0.238E-03    0.236E-03
RMM:  11    -0.413212524302E+03    0.56142E-05   -0.15872E-06  2500   0.197E-03    0.164E-03
RMM:  12    -0.413212519812E+03    0.44896E-05   -0.54053E-07  2402   0.135E-03    0.807E-04
RMM:  13    -0.413212515191E+03    0.46209E-05   -0.27079E-07  1773   0.885E-04    0.396E-04
RMM:  14    -0.413212510332E+03    0.48596E-05   -0.18385E-07  1623   0.756E-04    0.229E-04
RMM:  15    -0.413212505292E+03    0.50400E-05   -0.13313E-07  1258   0.655E-04    0.134E-04
RMM:  16    -0.413212502747E+03    0.25448E-05   -0.82672E-08  1115   0.589E-04    0.101E-04
RMM:  17    -0.413212499927E+03    0.28203E-05   -0.62608E-08  1036   0.572E-04    0.508E-05
RMM:  18    -0.413212497704E+03    0.22224E-05   -0.45196E-08   956   0.551E-04    0.445E-05
RMM:  19    -0.413212496926E+03    0.77797E-06   -0.24220E-08   754   0.514E-04
   48 T=    70. E= -.41286731E+03 F= -.41321250E+03 E0= -.41319160E+03  EK= 0.34518E+00 SP= 0.00E+00 SK= 0.00E+00
       N       E                     dE             d eps       ncg     rms          rms(c)
RMM:   1    -0.413260355664E+03   -0.47858E-01   -0.12720E+01  4304   0.203E+00    0.956E-01
RMM:   2    -0.413208427555E+03    0.51928E-01   -0.20147E-01  4492   0.221E-01    0.679E-01
RMM:   3    -0.413237408726E+03   -0.28981E-01   -0.34571E-02  5159   0.166E-01    0.773E-01
RMM:   4    -0.413213427762E+03    0.23981E-01   -0.37803E-02  4933   0.177E-01    0.386E-01
RMM:   5    -0.413207449269E+03    0.59785E-02   -0.49015E-03  4764   0.917E-02    0.675E-02
RMM:   6    -0.413207185827E+03    0.26344E-03   -0.50827E-04  4662   0.315E-02    0.291E-02
RMM:   7    -0.413207180191E+03    0.56360E-05   -0.14420E-04  5725   0.130E-02    0.196E-02
RMM:   8    -0.413207162639E+03    0.17551E-04   -0.36696E-05  4850   0.671E-03    0.983E-03
RMM:   9    -0.413207149032E+03    0.13607E-04   -0.13216E-05  3391   0.430E-03    0.420E-03
RMM:  10    -0.413207143279E+03    0.57536E-05   -0.22801E-06  2599   0.239E-03    0.237E-03
RMM:  11    -0.413207136048E+03    0.72303E-05   -0.11437E-06  2504   0.173E-03    0.141E-03
RMM:  12    -0.413207131272E+03    0.47766E-05   -0.46319E-07  2404   0.119E-03    0.646E-04
RMM:  13    -0.413207126056E+03    0.52158E-05   -0.29632E-07  1741   0.877E-04    0.340E-04
RMM:  14    -0.413207121589E+03    0.44666E-05   -0.19556E-07  1434   0.763E-04    0.235E-04
RMM:  15    -0.413207116261E+03    0.53284E-05   -0.16827E-07  1407   0.726E-04    0.129E-04
RMM:  16    -0.413207114246E+03    0.20148E-05   -0.94982E-08  1152   0.630E-04    0.931E-05
RMM:  17    -0.413207110691E+03    0.35549E-05   -0.86255E-08  1244   0.631E-04    0.516E-05
RMM:  18    -0.413207109596E+03    0.10951E-05   -0.47965E-08   970   0.559E-04    0.370E-05
RMM:  19    -0.413207108589E+03    0.10070E-05   -0.33563E-08   870   0.538E-04    0.190E-05
RMM:  20    -0.413207107845E+03    0.74362E-06   -0.26089E-08   829   0.530E-04
   49 T=    69. E= -.41286704E+03 F= -.41320711E+03 E0= -.41318622E+03  EK= 0.34007E+00 SP= 0.00E+00 SK= 0.00E+00
       N       E                     dE             d eps       ncg     rms          rms(c)
RMM:   1    -0.413234079156E+03   -0.26971E-01   -0.12287E+01  4304   0.205E+00    0.922E-01
RMM:   2    -0.413202144264E+03    0.31935E-01   -0.21099E-01  4503   0.232E-01    0.685E-01
RMM:   3    -0.413228577823E+03   -0.26434E-01   -0.32038E-02  5156   0.163E-01    0.760E-01
RMM:   4    -0.413207481732E+03    0.21096E-01   -0.37935E-02  4937   0.178E-01    0.411E-01
RMM:   5    -0.413200592675E+03    0.68891E-02   -0.55346E-03  4728   0.954E-02    0.696E-02
RMM:   6    -0.413200318016E+03    0.27466E-03   -0.53072E-04  4650   0.324E-02    0.298E-02
RMM:   7    -0.413200313420E+03    0.45964E-05   -0.15353E-04  5776   0.132E-02    0.202E-02
RMM:   8    -0.413200296719E+03    0.16701E-04   -0.39782E-05  4932   0.683E-03    0.105E-02
RMM:   9    -0.413200285267E+03    0.11451E-04   -0.15766E-05  3583   0.464E-03    0.439E-03
RMM:  10    -0.413200280604E+03    0.46633E-05   -0.28525E-06  2654   0.259E-03    0.253E-03
RMM:  11    -0.413200275765E+03    0.48392E-05   -0.13141E-06  2503   0.187E-03    0.157E-03
RMM:  12    -0.413200272362E+03    0.34030E-05   -0.51077E-07  2448   0.126E-03    0.726E-04
RMM:  13    -0.413200268761E+03    0.36008E-05   -0.31933E-07  1778   0.904E-04    0.366E-04
RMM:  14    -0.413200265623E+03    0.31386E-05   -0.22792E-07  1628   0.794E-04    0.278E-04
RMM:  15    -0.413200262206E+03    0.34166E-05   -0.18988E-07  1411   0.727E-04    0.136E-04
RMM:  16    -0.413200260783E+03    0.14230E-05   -0.10216E-07  1189   0.629E-04    0.905E-05
RMM:  17    -0.413200258992E+03    0.17911E-05   -0.84733E-08  1135   0.611E-04    0.478E-05
RMM:  18    -0.413200258236E+03    0.75588E-06   -0.50377E-08   964   0.563E-04
   50 T=    68. E= -.41286736E+03 F= -.41320026E+03 E0= -.41317938E+03  EK= 0.33290E+00 SP= 0.00E+00 SK= 0.00E+00
       N       E                     dE             d eps       ncg     rms          rms(c)
RMM:   1    -0.413224062733E+03   -0.23804E-01   -0.11995E+01  4300   0.215E+00    0.930E-01
RMM:   2    -0.413191897177E+03    0.32166E-01   -0.20146E-01  4545   0.243E-01    0.677E-01
RMM:   3    -0.413228059502E+03   -0.36162E-01   -0.41316E-02  5169   0.186E-01    0.861E-01
RMM:   4    -0.413194628976E+03    0.33431E-01   -0.39300E-02  4914   0.184E-01    0.350E-01
RMM:   5    -0.413190693850E+03    0.39351E-02   -0.68330E-03  5104   0.104E-01    0.917E-02
RMM:   6    -0.413190185396E+03    0.50845E-03   -0.94864E-04  4710   0.416E-02    0.348E-02
RMM:   7    -0.413190178157E+03    0.72386E-05   -0.23342E-04  5739   0.165E-02    0.222E-02
[...]
RMM:   3    -0.413167340061E+03   -0.37517E-03   -0.41823E-02  5094   0.919E-02    0.357E-01
RMM:   4    -0.413176620540E+03   -0.92805E-02   -0.26893E-02  5040   0.142E-01    0.529E-01
RMM:   5    -0.413161315078E+03    0.15305E-01   -0.74991E-03  4670   0.914E-02    0.494E-02
RMM:   6    -0.413161277840E+03    0.37238E-04   -0.11784E-03  5279   0.342E-02    0.260E-02
RMM:   7    -0.413161315680E+03   -0.37841E-04   -0.23113E-04  5890   0.142E-02    0.167E-02
RMM:   8    -0.413161322673E+03   -0.69925E-05   -0.45091E-05  5205   0.776E-03    0.743E-03
RMM:   9    -0.413161327786E+03   -0.51131E-05   -0.63846E-06  2987   0.331E-03    0.349E-03
RMM:  10    -0.413161332671E+03   -0.48851E-05   -0.14228E-06  2528   0.191E-03    0.220E-03
RMM:  11    -0.413161341121E+03   -0.84504E-05   -0.20322E-06  2545   0.179E-03    0.126E-03
RMM:  12    -0.413161343507E+03   -0.23857E-05   -0.66399E-07  2320   0.120E-03    0.583E-04
RMM:  13    -0.413161346589E+03   -0.30822E-05   -0.63544E-07  2034   0.103E-03    0.340E-04
RMM:  14    -0.413161348975E+03   -0.23859E-05   -0.59241E-07  1732   0.900E-04    0.250E-04
RMM:  15    -0.413161350162E+03   -0.11870E-05   -0.48315E-07  1647   0.832E-04    0.196E-04
RMM:  16    -0.413161350401E+03   -0.23932E-06   -0.25942E-07  1315   0.685E-04
  139 T=    60. E= -.41286683E+03 F= -.41316135E+03 E0= -.41314064E+03  EK= 0.29453E+00 SP= 0.00E+00 SK= 0.00E+00
       N       E                     dE             d eps       ncg     rms          rms(c)
RMM:   1    -0.413168503961E+03   -0.71538E-02   -0.60529E+00  4264   0.661E-01    0.836E-01
RMM:   2    -0.413167426660E+03    0.10773E-02   -0.74238E-02  4317   0.771E-02    0.613E-01
RMM:   3    -0.413164054108E+03    0.33726E-02   -0.38756E-02  5020   0.697E-02    0.254E-01
RMM:   4    -0.413183231315E+03   -0.19177E-01   -0.26357E-02  5094   0.138E-01    0.615E-01
RMM:   5    -0.413161700797E+03    0.21531E-01   -0.10597E-02  4763   0.104E-01    0.480E-02
RMM:   6    -0.413161714235E+03   -0.13438E-04   -0.17203E-03  5581   0.407E-02    0.278E-02
RMM:   7    -0.413161745107E+03   -0.30871E-04   -0.28544E-04  5783   0.152E-02    0.171E-02
RMM:   8    -0.413161753473E+03   -0.83661E-05   -0.45579E-05  5153   0.739E-03    0.748E-03
RMM:   9    -0.413161758381E+03   -0.49080E-05   -0.70646E-06  3126   0.317E-03    0.383E-03
RMM:  10    -0.413161766733E+03   -0.83521E-05   -0.20636E-06  2561   0.203E-03    0.236E-03
RMM:  11    -0.413161774252E+03   -0.75191E-05   -0.13061E-06  2497   0.157E-03    0.111E-03
RMM:  12    -0.413161780496E+03   -0.62443E-05   -0.10120E-06  2419   0.130E-03    0.556E-04
RMM:  13    -0.413161782834E+03   -0.23380E-05   -0.39292E-07  1864   0.922E-04    0.353E-04
RMM:  14    -0.413161784951E+03   -0.21167E-05   -0.29651E-07  1526   0.814E-04    0.194E-04
RMM:  15    -0.413161787350E+03   -0.23992E-05   -0.40565E-07  1737   0.848E-04    0.202E-04
RMM:  16    -0.413161788359E+03   -0.10086E-05   -0.23604E-07  1406   0.709E-04    0.132E-04
RMM:  17    -0.413161788601E+03   -0.24178E-06   -0.10976E-07  1080   0.590E-04
  140 T=    60. E= -.41286650E+03 F= -.41316179E+03 E0= -.41314109E+03  EK= 0.29529E+00 SP= 0.00E+00 SK= 0.00E+00
       N       E                     dE             d eps       ncg     rms          rms(c)
RMM:   1    -0.413168056961E+03   -0.62686E-02   -0.62500E+00  4264   0.673E-01    0.846E-01
RMM:   2    -0.413166911135E+03    0.11458E-02   -0.76172E-02  4313   0.770E-02    0.610E-01
RMM:   3    -0.413163020788E+03    0.38903E-02   -0.31832E-02  5002   0.577E-02    0.179E-01
RMM:   4    -0.413182864596E+03   -0.19844E-01   -0.23724E-02  5115   0.130E-01    0.605E-01
RMM:   5    -0.413161760150E+03    0.21104E-01   -0.10233E-02  4798   0.101E-01    0.484E-02
RMM:   6    -0.413161777743E+03   -0.17593E-04   -0.17743E-03  5628   0.412E-02    0.304E-02
RMM:   7    -0.413161794420E+03   -0.16678E-04   -0.30220E-04  5728   0.156E-02    0.179E-02
RMM:   8    -0.413161798097E+03   -0.36763E-05   -0.45907E-05  5150   0.728E-03    0.803E-03
RMM:   9    -0.413161799333E+03   -0.12364E-05   -0.71387E-06  3139   0.315E-03    0.423E-03
RMM:  10    -0.413161803056E+03   -0.37232E-05   -0.21615E-06  2561   0.211E-03    0.251E-03
RMM:  11    -0.413161805649E+03   -0.25926E-05   -0.12653E-06  2505   0.160E-03    0.116E-03
RMM:  12    -0.413161807393E+03   -0.17448E-05   -0.10194E-06  2438   0.135E-03    0.609E-04
RMM:  13    -0.413161808090E+03   -0.69626E-06   -0.45950E-07  1994   0.989E-04
  141 T=    60. E= -.41286676E+03 F= -.41316181E+03 E0= -.41314112E+03  EK= 0.29505E+00 SP= 0.00E+00 SK= 0.00E+00
       N       E                     dE             d eps       ncg     rms          rms(c)
RMM:   1    -0.413166522765E+03   -0.47154E-02   -0.65007E+00  4264   0.691E-01    0.828E-01
RMM:   2    -0.413166629588E+03   -0.10682E-03   -0.77616E-02  4316   0.780E-02    0.602E-01
RMM:   3    -0.413162522892E+03    0.41067E-02   -0.28671E-02  4901   0.522E-02    0.147E-01
RMM:   4    -0.413174997488E+03   -0.12475E-01   -0.14137E-02  5122   0.102E-01    0.481E-01
RMM:   5    -0.413161801095E+03    0.13196E-01   -0.65235E-03  4815   0.803E-02    0.443E-02
RMM:   6    -0.413161821281E+03   -0.20186E-04   -0.12356E-03  5605   0.349E-02    0.307E-02
RMM:   7    -0.413161830732E+03   -0.94502E-05   -0.25432E-04  5470   0.152E-02    0.166E-02
RMM:   8    -0.413161835219E+03   -0.44878E-05   -0.38194E-05  4977   0.682E-03    0.765E-03
RMM:   9    -0.413161837987E+03   -0.27679E-05   -0.54923E-06  2948   0.279E-03    0.411E-03
RMM:  10    -0.413161845226E+03   -0.72385E-05   -0.20618E-06  2544   0.209E-03    0.226E-03
RMM:  11    -0.413161850326E+03   -0.51000E-05   -0.12117E-06  2510   0.156E-03    0.102E-03
RMM:  12    -0.413161854169E+03   -0.38428E-05   -0.86757E-07  2337   0.127E-03    0.561E-04
RMM:  13    -0.413161856632E+03   -0.24633E-05   -0.54143E-07  2041   0.101E-03    0.345E-04
RMM:  14    -0.413161857977E+03   -0.13448E-05   -0.29516E-07  1517   0.804E-04    0.218E-04
RMM:  15    -0.413161859758E+03   -0.17819E-05   -0.49945E-07  1872   0.894E-04    0.201E-04
RMM:  16    -0.413161860355E+03   -0.59607E-06   -0.23877E-07  1357   0.694E-04
  142 T=    60. E= -.41286663E+03 F= -.41316186E+03 E0= -.41314118E+03  EK= 0.29523E+00 SP= 0.00E+00 SK= 0.00E+00
       N       E                     dE             d eps       ncg     rms          rms(c)
RMM:   1    -0.413166077112E+03   -0.42174E-02   -0.69142E+00  4264   0.713E-01    0.827E-01
RMM:   2    -0.413167299416E+03   -0.12223E-02   -0.80932E-02  4302   0.821E-02    0.607E-01
RMM:   3    -0.413163217345E+03    0.40821E-02   -0.26825E-02  4849   0.514E-02    0.138E-01
RMM:   4    -0.413172756837E+03   -0.95395E-02   -0.10808E-02  5127   0.899E-02    0.422E-01
RMM:   5    -0.413162636196E+03    0.10121E-01   -0.50386E-03  4823   0.706E-02    0.438E-02
RMM:   6    -0.413162652053E+03   -0.15857E-04   -0.10048E-03  5572   0.319E-02    0.304E-02
RMM:   7    -0.413162671723E+03   -0.19670E-04   -0.23426E-04  5447   0.142E-02    0.157E-02
RMM:   8    -0.413162678101E+03   -0.63781E-05   -0.34625E-05  4937   0.653E-03    0.735E-03
RMM:   9    -0.413162682746E+03   -0.46450E-05   -0.46572E-06  2849   0.261E-03    0.382E-03
RMM:  10    -0.413162694397E+03   -0.11651E-04   -0.19942E-06  2539   0.204E-03    0.210E-03
RMM:  11    -0.413162703040E+03   -0.86431E-05   -0.11029E-06  2488   0.150E-03    0.973E-04
RMM:  12    -0.413162709627E+03   -0.65867E-05   -0.75918E-07  2259   0.119E-03    0.516E-04
RMM:  13    -0.413162714918E+03   -0.52911E-05   -0.55463E-07  2054   0.991E-04    0.321E-04
RMM:  14    -0.413162717737E+03   -0.28193E-05   -0.29954E-07  1507   0.793E-04    0.223E-04
RMM:  15    -0.413162721339E+03   -0.36011E-05   -0.44169E-07  1838   0.863E-04    0.174E-04
RMM:  16    -0.413162722829E+03   -0.14905E-05   -0.21275E-07  1311   0.674E-04    0.113E-04
RMM:  17    -0.413162723137E+03   -0.30749E-06   -0.96146E-08  1013   0.570E-04
  143 T=    60. E= -.41286644E+03 F= -.41316272E+03 E0= -.41314205E+03  EK= 0.29628E+00 SP= 0.00E+00 SK= 0.00E+00
       N       E                     dE             d eps       ncg     rms          rms(c)
RMM:   1    -0.413165520554E+03   -0.27977E-02   -0.72860E+00  4264   0.733E-01    0.840E-01
RMM:   2    -0.413166923612E+03   -0.14031E-02   -0.83972E-02  4301   0.827E-02    0.603E-01
RMM:   3    -0.413163238312E+03    0.36853E-02   -0.20997E-02  4707   0.432E-02    0.765E-02
RMM:   4    -0.413164945580E+03   -0.17073E-02   -0.21649E-03  5150   0.425E-02    0.184E-01
RMM:   5    -0.413163100771E+03    0.18448E-02   -0.10125E-03  4851   0.319E-02    0.428E-02
RMM:   6    -0.413163110124E+03   -0.93525E-05   -0.44690E-04  5340   0.219E-02    0.313E-02
RMM:   7    -0.413163101676E+03    0.84477E-05   -0.17650E-04  4948   0.123E-02    0.160E-02
RMM:   8    -0.413163100355E+03    0.13208E-05   -0.20422E-05  4546   0.526E-03    0.736E-03
RMM:   9    -0.413163103736E+03   -0.33808E-05   -0.58529E-06  2643   0.239E-03    0.251E-03
RMM:  10    -0.413163111418E+03   -0.76821E-05   -0.20783E-06  2524   0.195E-03    0.126E-03
RMM:  11    -0.413163115774E+03   -0.43554E-05   -0.10783E-06  2460   0.145E-03    0.561E-04
RMM:  12    -0.413163118701E+03   -0.29278E-05   -0.62441E-07  2097   0.109E-03    0.454E-04
RMM:  13    -0.413163121668E+03   -0.29665E-05   -0.62569E-07  1932   0.963E-04    0.268E-04
RMM:  14    -0.413163123043E+03   -0.13752E-05   -0.33594E-07  1508   0.776E-04    0.151E-04
RMM:  15    -0.413163124275E+03   -0.12316E-05   -0.37822E-07  1631   0.795E-04    0.997E-05
RMM:  16    -0.413163124650E+03   -0.37555E-06   -0.16514E-07  1210   0.636E-04
  144 T=    60. E= -.41286675E+03 F= -.41316312E+03 E0= -.41314246E+03  EK= 0.29637E+00 SP= 0.00E+00 SK= 0.00E+00
       N       E                     dE             d eps       ncg     rms          rms(c)
RMM:   1    -0.413163455774E+03   -0.33150E-03   -0.76433E+00  4264   0.753E-01    0.831E-01
RMM:   2    -0.413165903006E+03   -0.24472E-02   -0.87131E-02  4303   0.849E-02    0.594E-01
RMM:   3    -0.413162679398E+03    0.32236E-02   -0.17511E-02  4617   0.426E-02    0.594E-02
RMM:   4    -0.413162859557E+03   -0.18016E-03   -0.59625E-04  5150   0.240E-02    0.739E-02
RMM:   5    -0.413162696533E+03    0.16302E-03   -0.26167E-04  4938   0.166E-02    0.509E-02
RMM:   6    -0.413162656374E+03    0.40158E-04   -0.33696E-04  5191   0.187E-02    0.316E-02
RMM:   7    -0.413162646611E+03    0.97637E-05   -0.17698E-04  4750   0.119E-02    0.163E-02
RMM:   8    -0.413162643504E+03    0.31064E-05   -0.13617E-05  3968   0.457E-03    0.784E-03
RMM:   9    -0.413162647558E+03   -0.40541E-05   -0.92790E-06  2704   0.277E-03    0.183E-03
RMM:  10    -0.413162655216E+03   -0.76575E-05   -0.24260E-06  2507   0.217E-03    0.984E-04
RMM:  11    -0.413162660149E+03   -0.49331E-05   -0.12364E-06  2454   0.156E-03    0.644E-04
RMM:  12    -0.413162662286E+03   -0.21373E-05   -0.45639E-07  2071   0.102E-03    0.517E-04
RMM:  13    -0.413162665833E+03   -0.35467E-05   -0.65275E-07  1952   0.966E-04    0.490E-04
RMM:  14    -0.413162667281E+03   -0.14477E-05   -0.33267E-07  1405   0.733E-04    0.282E-04
RMM:  15    -0.413162668119E+03   -0.83840E-06   -0.21843E-07  1257   0.673E-04
  145 T=    60. E= -.41286650E+03 F= -.41316267E+03 E0= -.41314201E+03  EK= 0.29616E+00 SP= 0.00E+00 SK= 0.00E+00
       N       E                     dE             d eps       ncg     rms          rms(c)
RMM:   1    -0.413162982012E+03   -0.31473E-03   -0.80923E+00  4264   0.773E-01    0.822E-01
RMM:   2    -0.413167107380E+03   -0.41254E-02   -0.92053E-02  4292   0.902E-02    0.598E-01
RMM:   3    -0.413163964340E+03    0.31430E-02   -0.15812E-02  4698   0.457E-02    0.635E-02
RMM:   4    -0.413168873218E+03   -0.49089E-02   -0.52669E-03  5158   0.627E-02    0.299E-01
RMM:   5    -0.413163893147E+03    0.49801E-02   -0.25848E-03  4838   0.500E-02    0.433E-02
RMM:   6    -0.413163889374E+03    0.37729E-05   -0.63519E-04  5482   0.254E-02    0.304E-02
RMM:   7    -0.413163912147E+03   -0.22773E-04   -0.21319E-04  5362   0.125E-02    0.161E-02
RMM:   8    -0.413163912785E+03   -0.63797E-06   -0.28386E-05  4861   0.596E-03    0.741E-03
RMM:   9    -0.413163917088E+03   -0.43022E-05   -0.50900E-06  2721   0.247E-03    0.314E-03
RMM:  10    -0.413163928206E+03   -0.11118E-04   -0.17480E-06  2532   0.189E-03    0.168E-03
RMM:  11    -0.413163938611E+03   -0.10405E-04   -0.12548E-06  2485   0.152E-03    0.819E-04
RMM:  12    -0.413163944072E+03   -0.54611E-05   -0.63003E-07  2172   0.112E-03    0.416E-04
RMM:  13    -0.413163949852E+03   -0.57797E-05   -0.60574E-07  2064   0.100E-03    0.350E-04
RMM:  14    -0.413163953796E+03   -0.39442E-05   -0.43047E-07  1656   0.843E-04    0.256E-04
RMM:  15    -0.413163956057E+03   -0.22609E-05   -0.28563E-07  1528   0.754E-04    0.967E-05
RMM:  16    -0.413163957310E+03   -0.12528E-05   -0.17995E-07  1318   0.669E-04    0.649E-05
RMM:  17    -0.413163957715E+03   -0.40507E-06   -0.10244E-07  1078   0.585E-04
  146 T=    61. E= -.41286668E+03 F= -.41316396E+03 E0= -.41314331E+03  EK= 0.29728E+00 SP= 0.00E+00 SK= 0.00E+00
       N       E                     dE             d eps       ncg     rms          rms(c)
RMM:   1    -0.413162093159E+03    0.18642E-02   -0.85297E+00  4264   0.794E-01    0.838E-01
RMM:   2    -0.413166936035E+03   -0.48429E-02   -0.95672E-02  4294   0.931E-02    0.596E-01
RMM:   3    -0.413164378659E+03    0.25574E-02   -0.12970E-02  4836   0.452E-02    0.826E-02
RMM:   4    -0.413177121289E+03   -0.12743E-01   -0.13248E-02  5143   0.969E-02    0.476E-01
RMM:   5    -0.413164227099E+03    0.12894E-01   -0.65013E-03  4830   0.785E-02    0.477E-02
RMM:   6    -0.413164231291E+03   -0.41927E-05   -0.12428E-03  5629   0.338E-02    0.309E-02
RMM:   7    -0.413164249411E+03   -0.18120E-04   -0.26048E-04  5670   0.139E-02    0.150E-02
RMM:   8    -0.413164253642E+03   -0.42312E-05   -0.40075E-05  5122   0.684E-03    0.749E-03
RMM:   9    -0.413164256475E+03   -0.28328E-05   -0.49110E-06  2920   0.279E-03    0.383E-03
RMM:  10    -0.413164264166E+03   -0.76906E-05   -0.21550E-06  2562   0.215E-03    0.217E-03
RMM:  11    -0.413164270926E+03   -0.67599E-05   -0.13243E-06  2517   0.165E-03    0.107E-03
RMM:  12    -0.413164275205E+03   -0.42799E-05   -0.77503E-07  2312   0.124E-03    0.557E-04
RMM:  13    -0.413164278355E+03   -0.31492E-05   -0.53361E-07  2052   0.101E-03    0.325E-04
RMM:  14    -0.413164280616E+03   -0.22611E-05   -0.37879E-07  1785   0.861E-04    0.276E-04
RMM:  15    -0.413164282784E+03   -0.21681E-05   -0.40893E-07  1662   0.839E-04    0.134E-04
RMM:  16    -0.413164283674E+03   -0.88983E-06   -0.22185E-07  1459   0.711E-04
  147 T=    61. E= -.41286673E+03 F= -.41316428E+03 E0= -.41314364E+03  EK= 0.29755E+00 SP= 0.00E+00 SK= 0.00E+00
       N       E                     dE             d eps       ncg     rms          rms(c)
RMM:   1    -0.413160258093E+03    0.40247E-02   -0.88898E+00  4264   0.811E-01    0.841E-01
RMM:   2    -0.413165776426E+03   -0.55183E-02   -0.98748E-02  4299   0.937E-02    0.587E-01
RMM:   3    -0.413163980611E+03    0.17958E-02   -0.10952E-02  4934   0.443E-02    0.111E-01
RMM:   4    -0.413185448381E+03   -0.21468E-01   -0.22582E-02  5141   0.126E-01    0.613E-01
RMM:   5    -0.413163672311E+03    0.21776E-01   -0.10828E-02  4828   0.102E-01    0.529E-02
RMM:   6    -0.413163692367E+03   -0.20056E-04   -0.19197E-03  5660   0.414E-02    0.305E-02
RMM:   7    -0.413163712360E+03   -0.19993E-04   -0.31888E-04  5898   0.150E-02    0.152E-02
RMM:   8    -0.413163716393E+03   -0.40336E-05   -0.50511E-05  5259   0.750E-03    0.789E-03
RMM:   9    -0.413163717704E+03   -0.13103E-05   -0.68525E-06  3186   0.319E-03    0.402E-03
RMM:  10    -0.413163722943E+03   -0.52393E-05   -0.26989E-06  2601   0.234E-03    0.250E-03
RMM:  11    -0.413163727080E+03   -0.41375E-05   -0.13566E-06  2513   0.174E-03    0.123E-03
RMM:  12    -0.413163730321E+03   -0.32405E-05   -0.94369E-07  2441   0.136E-03    0.623E-04
RMM:  13    -0.413163732125E+03   -0.18040E-05   -0.52008E-07  2071   0.102E-03    0.364E-04
RMM:  14    -0.413163733344E+03   -0.12186E-05   -0.34694E-07  1726   0.861E-04    0.264E-04
RMM:  15    -0.413163734584E+03   -0.12405E-05   -0.41108E-07  1771   0.858E-04    0.160E-04
RMM:  16    -0.413163735159E+03   -0.57528E-06   -0.30217E-07  1614   0.770E-04
  148 T=    60. E= -.41286657E+03 F= -.41316374E+03 E0= -.41314310E+03  EK= 0.29717E+00 SP= 0.00E+00 SK= 0.00E+00
       N       E                     dE             d eps       ncg     rms          rms(c)
RMM:   1    -0.413159888590E+03    0.38460E-02   -0.92182E+00  4264   0.826E-01    0.822E-01
RMM:   2    -0.413167043191E+03   -0.71546E-02   -0.10430E-01  4305   0.946E-02    0.589E-01
RMM:   3    -0.413165549090E+03    0.14941E-02   -0.95842E-03  4987   0.464E-02    0.130E-01
RMM:   4    -0.413194815655E+03   -0.29267E-01   -0.31566E-02  5136   0.148E-01    0.713E-01
RMM:   5    -0.413164994869E+03    0.29821E-01   -0.14732E-02  4824   0.119E-01    0.555E-02
RMM:   6    -0.413165027081E+03   -0.32212E-04   -0.23874E-03  5666   0.470E-02    0.271E-02
RMM:   7    -0.413165064276E+03   -0.37195E-04   -0.35037E-04  5983   0.154E-02    0.148E-02
RMM:   8    -0.413165076692E+03   -0.12416E-04   -0.58450E-05  5362   0.785E-03    0.802E-03
RMM:   9    -0.413165080833E+03   -0.41415E-05   -0.91564E-06  3407   0.355E-03    0.371E-03
RMM:  10    -0.413165089362E+03   -0.85284E-05   -0.30596E-06  2643   0.238E-03    0.253E-03
RMM:  11    -0.413165097164E+03   -0.78027E-05   -0.15149E-06  2521   0.182E-03    0.136E-03
RMM:  12    -0.413165103556E+03   -0.63916E-05   -0.98249E-07  2476   0.138E-03    0.571E-04
RMM:  13    -0.413165106625E+03   -0.30687E-05   -0.46333E-07  2007   0.981E-04    0.366E-04
RMM:  14    -0.413165109341E+03   -0.27160E-05   -0.35424E-07  1639   0.856E-04    0.230E-04
RMM:  15    -0.413165111372E+03   -0.20313E-05   -0.28584E-07  1626   0.792E-04    0.141E-04
RMM:  16    -0.413165113291E+03   -0.19191E-05   -0.32317E-07  1675   0.791E-04    0.977E-05
RMM:  17    -0.413165113628E+03   -0.33673E-06   -0.10746E-07  1113   0.602E-04
  149 T=    61. E= -.41286687E+03 F= -.41316511E+03 E0= -.41314448E+03  EK= 0.29825E+00 SP= 0.00E+00 SK= 0.00E+00
       N       E                     dE             d eps       ncg     rms          rms(c)
RMM:   1    -0.413159954018E+03    0.51593E-02   -0.95969E+00  4264   0.857E-01    0.834E-01
RMM:   2    -0.413166942613E+03   -0.69886E-02   -0.11055E-01  4303   0.996E-02    0.593E-01
RMM:   3    -0.413166001016E+03    0.94160E-03   -0.84214E-03  4985   0.479E-02    0.148E-01
RMM:   4    -0.413198577023E+03   -0.32576E-01   -0.35197E-02  5136   0.156E-01    0.751E-01
RMM:   5    -0.413165382961E+03    0.33194E-01   -0.16279E-02  4814   0.125E-01    0.569E-02
RMM:   6    -0.413165430198E+03   -0.47237E-04   -0.27359E-03  5659   0.496E-02    0.245E-02
RMM:   7    -0.413165469418E+03   -0.39221E-04   -0.37471E-04  6012   0.157E-02    0.145E-02
RMM:   8    -0.413165480431E+03   -0.11013E-04   -0.58184E-05  5360   0.775E-03    0.794E-03
RMM:   9    -0.413165484526E+03   -0.40945E-05   -0.97349E-06  3428   0.359E-03    0.358E-03
RMM:  10    -0.413165491403E+03   -0.68773E-05   -0.30080E-06  2634   0.234E-03    0.248E-03
RMM:  11    -0.413165498301E+03   -0.68976E-05   -0.15808E-06  2525   0.183E-03    0.138E-03
RMM:  12    -0.413165503516E+03   -0.52155E-05   -0.10038E-06  2488   0.140E-03    0.522E-04
RMM:  13    -0.413165505647E+03   -0.21308E-05   -0.42985E-07  1987   0.969E-04    0.347E-04
RMM:  14    -0.413165507796E+03   -0.21490E-05   -0.34968E-07  1644   0.858E-04    0.223E-04
RMM:  15    -0.413165509386E+03   -0.15902E-05   -0.29544E-07  1627   0.795E-04    0.123E-04
RMM:  16    -0.413165510472E+03   -0.10864E-05   -0.24765E-07  1486   0.745E-04    0.779E-05
RMM:  17    -0.413165510878E+03   -0.40529E-06   -0.14229E-07  1298   0.652E-04
  150 T=    61. E= -.41286667E+03 F= -.41316551E+03 E0= -.41314488E+03  EK= 0.29884E+00 SP= 0.00E+00 SK= 0.00E+00
