       N       E                     dE             d eps       ncg     rms          rms(c)
RMM:   1     0.220092932632E+04    0.22009E+04   -0.52444E+04  2132   0.654E+02
RMM:   2     0.705445696472E+03   -0.14955E+04   -0.16261E+04  2132   0.177E+02
RMM:   3     0.137821590739E+03   -0.56762E+03   -0.65653E+03  2132   0.117E+02
RMM:   4    -0.159276030871E+03   -0.29710E+03   -0.27873E+03  2132   0.936E+01
RMM:   5    -0.287454423788E+03   -0.12818E+03   -0.11441E+03  2132   0.595E+01
RMM:   6    -0.349805909376E+03   -0.62351E+02   -0.55155E+02  2132   0.423E+01
RMM:   7    -0.382736852580E+03   -0.32931E+02   -0.30463E+02  2132   0.293E+01
RMM:   8    -0.404314695404E+03   -0.21578E+02   -0.18450E+02  2132   0.234E+01
RMM:   9    -0.436088399630E+03   -0.31774E+02   -0.30689E+02  6103   0.173E+01
RMM:  10    -0.441310662313E+03   -0.52223E+01   -0.62718E+01  6389   0.538E+00
RMM:  11    -0.442522579016E+03   -0.12119E+01   -0.11137E+01  6213   0.173E+00
RMM:  12    -0.442892271249E+03   -0.36969E+00   -0.27267E+00  6364   0.601E-01    0.134E+02
RMM:  13    -0.425591842501E+03    0.17300E+02   -0.80873E+01  4671   0.119E+01    0.712E+01
RMM:  14    -0.498965560309E+03   -0.73374E+02   -0.53824E+02  5423   0.232E+01    0.306E+01
RMM:  15    -0.415659297693E+03    0.83306E+02   -0.19937E+02  5096   0.163E+01    0.681E+00
RMM:  16    -0.414034542398E+03    0.16248E+01   -0.39111E+01  6086   0.607E+00    0.428E+00
RMM:  17    -0.413217070383E+03    0.81747E+00   -0.24643E+00  5400   0.186E+00    0.245E+00
RMM:  18    -0.413170723250E+03    0.46347E-01   -0.79973E-01  5971   0.922E-01    0.164E+00
RMM:  19    -0.413167842139E+03    0.28811E-02   -0.27428E-01  5731   0.559E-01    0.858E-01
RMM:  20    -0.413184848844E+03   -0.17007E-01   -0.23442E-01  5523   0.512E-01    0.569E-01
RMM:  21    -0.413167457092E+03    0.17392E-01   -0.32483E-02  5013   0.226E-01    0.265E-01
RMM:  22    -0.413165097875E+03    0.23592E-02   -0.17539E-02  5966   0.120E-01    0.133E-01
RMM:  23    -0.413164082005E+03    0.10159E-02   -0.53818E-03  5995   0.657E-02    0.823E-02
RMM:  24    -0.413162918954E+03    0.11631E-02   -0.15907E-03  5296   0.398E-02    0.440E-02
RMM:  25    -0.413162578150E+03    0.34080E-03   -0.84100E-04  5326   0.267E-02    0.355E-02
RMM:  26    -0.413162764675E+03   -0.18653E-03   -0.85280E-04  5827   0.296E-02    0.333E-02
RMM:  27    -0.413163200864E+03   -0.43619E-03   -0.19503E-04  4550   0.199E-02    0.176E-02
RMM:  28    -0.413163677709E+03   -0.47684E-03   -0.17974E-04  5219   0.188E-02    0.829E-03
RMM:  29    -0.413164057537E+03   -0.37983E-03   -0.10537E-04  4388   0.148E-02    0.442E-03
RMM:  30    -0.413164282133E+03   -0.22460E-03   -0.77069E-05  4128   0.101E-02    0.348E-03
RMM:  31    -0.413164403255E+03   -0.12112E-03   -0.51798E-05  3173   0.660E-03    0.308E-03
RMM:  32    -0.413164426865E+03   -0.23610E-04   -0.20665E-05  2968   0.297E-03    0.152E-03
RMM:  33    -0.413164437895E+03   -0.11030E-04   -0.86417E-06  2787   0.217E-03    0.518E-04
RMM:  34    -0.413164440466E+03   -0.25704E-05   -0.46656E-06  2646   0.163E-03    0.799E-04
RMM:  35    -0.413164440034E+03    0.43173E-06   -0.21906E-06  2228   0.116E-03
    1 T=    61. E= -.41286662E+03 F= -.41316444E+03 E0= -.41314194E+03  EK= 0.29782E+00 SP= 0.00E+00 SK= 0.00E+00
       N       E                     dE             d eps       ncg     rms          rms(c)
RMM:   1    -0.413156346679E+03    0.80938E-02   -0.10715E+01  3992   0.686E-01    0.886E-01
RMM:   2    -0.413166231441E+03   -0.98848E-02   -0.13157E-01  3923   0.971E-02    0.643E-01
RMM:   3    -0.413164204821E+03    0.20266E-02   -0.77659E-03  4622   0.364E-02    0.133E-01
RMM:   4    -0.413176796885E+03   -0.12592E-01   -0.13264E-02  5221   0.957E-02    0.471E-01
RMM:   5    -0.413164016438E+03    0.12780E-01   -0.63760E-03  4862   0.787E-02    0.317E-02
RMM:   6    -0.413164093343E+03   -0.76905E-04   -0.10665E-03  5815   0.314E-02    0.213E-02
RMM:   7    -0.413164101553E+03   -0.82100E-05   -0.18226E-04  5711   0.123E-02    0.126E-02
RMM:   8    -0.413164106122E+03   -0.45684E-05   -0.23860E-05  4290   0.519E-03    0.535E-03
RMM:   9    -0.413164110673E+03   -0.45518E-05   -0.49856E-06  2936   0.256E-03    0.425E-03
RMM:  10    -0.413164115755E+03   -0.50815E-05   -0.11897E-06  2524   0.164E-03    0.272E-03
RMM:  11    -0.413164122977E+03   -0.72220E-05   -0.12099E-06  2515   0.154E-03    0.114E-03
RMM:  12    -0.413164128242E+03   -0.52648E-05   -0.81804E-07  2336   0.122E-03    0.492E-04
RMM:  13    -0.413164128812E+03   -0.57011E-06   -0.35112E-07  1707   0.820E-04
    2 T=    61. E= -.41286628E+03 F= -.41316413E+03 E0= -.41314163E+03  EK= 0.29785E+00 SP= 0.00E+00 SK= 0.00E+00
       N       E                     dE             d eps       ncg     rms          rms(c)
RMM:   1    -0.413157446190E+03    0.66821E-02   -0.10747E+01  4187   0.686E-01    0.909E-01
RMM:   2    -0.413166260167E+03   -0.88140E-02   -0.12924E-01  3918   0.949E-02    0.636E-01
RMM:   3    -0.413164845520E+03    0.14146E-02   -0.80758E-03  4826   0.376E-02    0.151E-01
RMM:   4    -0.413189413469E+03   -0.24568E-01   -0.25055E-02  5189   0.132E-01    0.654E-01
RMM:   5    -0.413164511754E+03    0.24902E-01   -0.12090E-02  4833   0.109E-01    0.395E-02
RMM:   6    -0.413164675749E+03   -0.16399E-03   -0.20588E-03  5812   0.436E-02    0.245E-02
RMM:   7    -0.413164681331E+03   -0.55819E-05   -0.28623E-04  5857   0.149E-02    0.159E-02
RMM:   8    -0.413164679489E+03    0.18417E-05   -0.45001E-05  4928   0.677E-03    0.766E-03
RMM:   9    -0.413164678511E+03    0.97778E-06   -0.92712E-06  3505   0.344E-03
    3 T=    61. E= -.41286652E+03 F= -.41316468E+03 E0= -.41314218E+03  EK= 0.29816E+00 SP= 0.00E+00 SK= 0.00E+00
       N       E                     dE             d eps       ncg     rms          rms(c)
RMM:   1    -0.413156848451E+03    0.78310E-02   -0.10661E+01  4227   0.687E-01    0.893E-01
RMM:   2    -0.413166228515E+03   -0.93801E-02   -0.12839E-01  4306   0.974E-02    0.630E-01
RMM:   3    -0.413172050395E+03   -0.58219E-02   -0.13943E-02  5190   0.868E-02    0.394E-01
RMM:   4    -0.413182512034E+03   -0.10462E-01   -0.34385E-02  5098   0.160E-01    0.562E-01
RMM:   5    -0.413164502569E+03    0.18009E-01   -0.64983E-03  4653   0.941E-02    0.545E-02
RMM:   6    -0.413164445194E+03    0.57375E-04   -0.12158E-03  5334   0.354E-02    0.235E-02
RMM:   7    -0.413164460474E+03   -0.15280E-04   -0.24020E-04  5979   0.151E-02    0.150E-02
RMM:   8    -0.413164460684E+03   -0.21005E-06   -0.44004E-05  5229   0.733E-03    0.659E-03
RMM:   9    -0.413164460519E+03    0.16512E-06   -0.98329E-06  3725   0.392E-03
    4 T=    61. E= -.41286625E+03 F= -.41316446E+03 E0= -.41314197E+03  EK= 0.29821E+00 SP= 0.00E+00 SK= 0.00E+00
       N       E                     dE             d eps       ncg     rms          rms(c)
RMM:   1    -0.413156832392E+03    0.76283E-02   -0.10709E+01  4235   0.699E-01    0.883E-01
RMM:   2    -0.413166705959E+03   -0.98736E-02   -0.13177E-01  4136   0.955E-02    0.642E-01
RMM:   3    -0.413165072730E+03    0.16332E-02   -0.79581E-03  4976   0.416E-02    0.156E-01
RMM:   4    -0.413201293665E+03   -0.36221E-01   -0.37706E-02  5161   0.162E-01    0.792E-01
RMM:   5    -0.413164386665E+03    0.36907E-01   -0.17726E-02  4818   0.133E-01    0.431E-02
RMM:   6    -0.413164610904E+03   -0.22424E-03   -0.29508E-03  5851   0.525E-02    0.243E-02
RMM:   7    -0.413164629839E+03   -0.18935E-04   -0.36950E-04  5974   0.165E-02    0.169E-02
RMM:   8    -0.413164634619E+03   -0.47799E-05   -0.60941E-05  5047   0.749E-03    0.924E-03
RMM:   9    -0.413164637363E+03   -0.27434E-05   -0.13095E-05  3864   0.399E-03    0.633E-03
RMM:  10    -0.413164642541E+03   -0.51781E-05   -0.23153E-06  2612   0.216E-03    0.403E-03
RMM:  11    -0.413164649555E+03   -0.70139E-05   -0.22199E-06  2615   0.217E-03    0.186E-03
RMM:  12    -0.413164654695E+03   -0.51406E-05   -0.12787E-06  2517   0.171E-03    0.651E-04
RMM:  13    -0.413164655402E+03   -0.70687E-06   -0.40898E-07  2173   0.106E-03
    5 T=    61. E= -.41286632E+03 F= -.41316466E+03 E0= -.41314218E+03  EK= 0.29833E+00 SP= 0.00E+00 SK= 0.00E+00
       N       E                     dE             d eps       ncg     rms          rms(c)
RMM:   1    -0.413157722128E+03    0.69326E-02   -0.10746E+01  4250   0.700E-01    0.905E-01
RMM:   2    -0.413166828737E+03   -0.91066E-02   -0.12942E-01  4059   0.960E-02    0.638E-01
RMM:   3    -0.413165356094E+03    0.14726E-02   -0.79817E-03  4794   0.390E-02    0.149E-01
RMM:   4    -0.413190086662E+03   -0.24731E-01   -0.25144E-02  5161   0.132E-01    0.657E-01
RMM:   5    -0.413164950321E+03    0.25136E-01   -0.12260E-02  4825   0.109E-01    0.388E-02
RMM:   6    -0.413165109559E+03   -0.15924E-03   -0.20217E-03  5793   0.432E-02    0.240E-02
RMM:   7    -0.413165114409E+03   -0.48498E-05   -0.27568E-04  5824   0.147E-02    0.157E-02
RMM:   8    -0.413165112565E+03    0.18437E-05   -0.45344E-05  4887   0.682E-03    0.773E-03
RMM:   9    -0.413165111448E+03    0.11177E-05   -0.93515E-06  3502   0.350E-03    0.569E-03
RMM:  10    -0.413165112206E+03   -0.75817E-06   -0.14895E-06  2554   0.191E-03
    6 T=    61. E= -.41286661E+03 F= -.41316511E+03 E0= -.41314265E+03  EK= 0.29850E+00 SP= 0.00E+00 SK= 0.00E+00
       N       E                     dE             d eps       ncg     rms          rms(c)
RMM:   1    -0.413157949057E+03    0.71624E-02   -0.10693E+01  4257   0.713E-01    0.900E-01
RMM:   2    -0.413166360935E+03   -0.84119E-02   -0.12830E-01  4163   0.962E-02    0.631E-01
RMM:   3    -0.413166774161E+03   -0.41323E-03   -0.93316E-03  5103   0.555E-02    0.231E-01
RMM:   4    -0.413203558805E+03   -0.36785E-01   -0.45734E-02  5136   0.179E-01    0.813E-01
RMM:   5    -0.413164699600E+03    0.38859E-01   -0.17478E-02  4781   0.136E-01    0.534E-02
RMM:   6    -0.413164850555E+03   -0.15096E-03   -0.28724E-03  5664   0.530E-02    0.241E-02
RMM:   7    -0.413164871242E+03   -0.20686E-04   -0.38941E-04  6026   0.163E-02    0.163E-02
RMM:   8    -0.413164870853E+03    0.38848E-06   -0.58955E-05  5232   0.766E-03    0.775E-03
RMM:   9    -0.413164867710E+03    0.31431E-05   -0.10869E-05  3473   0.362E-03    0.380E-03
RMM:  10    -0.413164867623E+03    0.86893E-07   -0.25291E-06  2607   0.215E-03
    7 T=    61. E= -.41286631E+03 F= -.41316487E+03 E0= -.41314242E+03  EK= 0.29856E+00 SP= 0.00E+00 SK= 0.00E+00
       N       E                     dE             d eps       ncg     rms          rms(c)
RMM:   1    -0.413157664096E+03    0.72036E-02   -0.10690E+01  4266   0.708E-01    0.882E-01
RMM:   2    -0.413167440594E+03   -0.97765E-02   -0.13108E-01  4143   0.945E-02    0.639E-01
RMM:   3    -0.413167181093E+03    0.25950E-03   -0.89934E-03  5097   0.548E-02    0.220E-01
RMM:   4    -0.413208726642E+03   -0.41546E-01   -0.50094E-02  5143   0.187E-01    0.857E-01
RMM:   5    -0.413165218129E+03    0.43509E-01   -0.19821E-02  4794   0.143E-01    0.525E-02
RMM:   6    -0.413165408986E+03   -0.19086E-03   -0.32335E-03  5709   0.560E-02    0.232E-02
RMM:   7    -0.413165437256E+03   -0.28271E-04   -0.42791E-04  6021   0.171E-02    0.169E-02
RMM:   8    -0.413165442506E+03   -0.52499E-05   -0.65621E-05  5246   0.784E-03    0.856E-03
RMM:   9    -0.413165443571E+03   -0.10647E-05   -0.12299E-05  3625   0.382E-03    0.428E-03
RMM:  10    -0.413165447180E+03   -0.36093E-05   -0.27654E-06  2622   0.219E-03    0.288E-03
RMM:  11    -0.413165450862E+03   -0.36811E-05   -0.11906E-06  2522   0.164E-03    0.144E-03
RMM:  12    -0.413165454084E+03   -0.32228E-05   -0.88878E-07  2460   0.137E-03    0.351E-04
RMM:  13    -0.413165455354E+03   -0.12691E-05   -0.41314E-07  2014   0.992E-04    0.263E-04
RMM:  14    -0.413165455895E+03   -0.54115E-06   -0.22723E-07  1515   0.791E-04
    8 T=    61. E= -.41286649E+03 F= -.41316546E+03 E0= -.41314303E+03  EK= 0.29897E+00 SP= 0.00E+00 SK= 0.00E+00
       N       E                     dE             d eps       ncg     rms          rms(c)
RMM:   1    -0.413158079342E+03    0.73760E-02   -0.10751E+01  4283   0.715E-01    0.899E-01
RMM:   2    -0.413167468498E+03   -0.93892E-02   -0.13042E-01  4163   0.987E-02    0.641E-01
RMM:   3    -0.413165994686E+03    0.14738E-02   -0.80669E-03  4894   0.411E-02    0.154E-01
RMM:   4    -0.413197805586E+03   -0.31811E-01   -0.32826E-02  5147   0.150E-01    0.743E-01
RMM:   5    -0.413165409794E+03    0.32396E-01   -0.15741E-02  4812   0.124E-01    0.426E-02
RMM:   6    -0.413165609270E+03   -0.19948E-03   -0.25943E-03  5764   0.491E-02    0.248E-02
RMM:   7    -0.413165620071E+03   -0.10801E-04   -0.34534E-04  5880   0.158E-02    0.167E-02
RMM:   8    -0.413165619286E+03    0.78472E-06   -0.51187E-05  5008   0.709E-03    0.828E-03
RMM:   9    -0.413165618014E+03    0.12720E-05   -0.11263E-05  3650   0.369E-03    0.576E-03
RMM:  10    -0.413165618903E+03   -0.88930E-06   -0.17835E-06  2565   0.198E-03
    9 T=    61. E= -.41286635E+03 F= -.41316562E+03 E0= -.41314321E+03  EK= 0.29927E+00 SP= 0.00E+00 SK= 0.00E+00
       N       E                     dE             d eps       ncg     rms          rms(c)
RMM:   1    -0.413160875044E+03    0.47430E-02   -0.10758E+01  4294   0.734E-01    0.907E-01
RMM:   2    -0.413167141941E+03   -0.62669E-02   -0.13447E-01  4254   0.986E-02    0.634E-01
RMM:   3    -0.413168099343E+03   -0.95740E-03   -0.97898E-03  5104   0.609E-02    0.257E-01
RMM:   4    -0.413201573418E+03   -0.33474E-01   -0.44686E-02  5121   0.177E-01    0.785E-01
RMM:   5    -0.413165532839E+03    0.36041E-01   -0.15938E-02  4767   0.131E-01    0.539E-02
RMM:   6    -0.413165659239E+03   -0.12640E-03   -0.26269E-03  5648   0.509E-02    0.241E-02
RMM:   7    -0.413165676141E+03   -0.16901E-04   -0.36607E-04  6025   0.161E-02    0.162E-02
RMM:   8    -0.413165673943E+03    0.21974E-05   -0.58283E-05  5233   0.775E-03    0.767E-03
RMM:   9    -0.413165669198E+03    0.47457E-05   -0.10267E-05  3413   0.360E-03    0.354E-03
RMM:  10    -0.413165668022E+03    0.11754E-05   -0.23550E-06  2590   0.213E-03    0.245E-03
RMM:  11    -0.413165666295E+03    0.17276E-05   -0.11470E-06  2517   0.165E-03    0.127E-03
RMM:  12    -0.413165664558E+03    0.17365E-05   -0.67566E-07  2413   0.127E-03    0.394E-04
RMM:  13    -0.413165663772E+03    0.78596E-06   -0.33123E-07  1899   0.919E-04
   10 T=    61. E= -.41286617E+03 F= -.41316566E+03 E0= -.41314328E+03  EK= 0.29950E+00 SP= 0.00E+00 SK= 0.00E+00
       N       E                     dE             d eps       ncg     rms          rms(c)
RMM:   1    -0.413158626121E+03    0.70384E-02   -0.10682E+01  4290   0.723E-01    0.883E-01
RMM:   2    -0.413168313060E+03   -0.96869E-02   -0.13036E-01  4186   0.959E-02    0.637E-01
RMM:   3    -0.413166764104E+03    0.15490E-02   -0.78004E-03  4898   0.413E-02    0.152E-01
RMM:   4    -0.413198128569E+03   -0.31364E-01   -0.32383E-02  5146   0.149E-01    0.738E-01
RMM:   5    -0.413166173724E+03    0.31955E-01   -0.15613E-02  4808   0.123E-01    0.417E-02
RMM:   6    -0.413166366716E+03   -0.19299E-03   -0.25209E-03  5772   0.485E-02    0.244E-02
RMM:   7    -0.413166377136E+03   -0.10420E-04   -0.33721E-04  5853   0.158E-02    0.165E-02
RMM:   8    -0.413166377293E+03   -0.15751E-06   -0.52549E-05  5003   0.716E-03    0.834E-03
RMM:   9    -0.413166376435E+03    0.85825E-06   -0.11516E-05  3695   0.377E-03    0.578E-03
RMM:  10    -0.413166377893E+03   -0.14577E-05   -0.18528E-06  2570   0.200E-03    0.375E-03
RMM:  11    -0.413166380114E+03   -0.22211E-05   -0.17793E-06  2566   0.200E-03    0.160E-03
RMM:  12    -0.413166381435E+03   -0.13215E-05   -0.10416E-06  2488   0.157E-03    0.619E-04
RMM:  13    -0.413166381537E+03   -0.10171E-06   -0.32382E-07  2048   0.973E-04
   11 T=    61. E= -.41286649E+03 F= -.41316638E+03 E0= -.41314402E+03  EK= 0.29989E+00 SP= 0.00E+00 SK= 0.00E+00
       N       E                     dE             d eps       ncg     rms          rms(c)
RMM:   1    -0.413158706097E+03    0.76753E-02   -0.10758E+01  4295   0.727E-01    0.895E-01
RMM:   2    -0.413168298589E+03   -0.95925E-02   -0.13166E-01  4234   0.970E-02    0.644E-01
RMM:   3    -0.413166627359E+03    0.16712E-02   -0.79720E-03  4850   0.402E-02    0.148E-01
RMM:   4    -0.413194781311E+03   -0.28154E-01   -0.28878E-02  5150   0.141E-01    0.700E-01
RMM:   5    -0.413166158489E+03    0.28623E-01   -0.14004E-02  4809   0.117E-01    0.399E-02
RMM:   6    -0.413166338739E+03   -0.18025E-03   -0.22863E-03  5815   0.459E-02    0.239E-02
RMM:   7    -0.413166349146E+03   -0.10407E-04   -0.29978E-04  5841   0.152E-02    0.159E-02
RMM:   8    -0.413166349063E+03    0.82287E-07   -0.50636E-05  4968   0.708E-03    0.827E-03
RMM:   9    -0.413166347771E+03    0.12926E-05   -0.10707E-05  3658   0.372E-03    0.587E-03
RMM:  10    -0.413166348927E+03   -0.11561E-05   -0.16753E-06  2563   0.196E-03    0.382E-03
RMM:  11    -0.413166350696E+03   -0.17692E-05   -0.18691E-06  2574   0.206E-03    0.164E-03
RMM:  12    -0.413166351628E+03   -0.93149E-06   -0.10040E-06  2484   0.156E-03
   12 T=    61. E= -.41286631E+03 F= -.41316635E+03 E0= -.41314402E+03  EK= 0.30005E+00 SP= 0.00E+00 SK= 0.00E+00
       N       E                     dE             d eps       ncg     rms          rms(c)
RMM:   1    -0.413159836603E+03    0.65141E-02   -0.10764E+01  4295   0.733E-01    0.912E-01
RMM:   2    -0.413168392203E+03   -0.85556E-02   -0.12909E-01  4227   0.931E-02    0.635E-01
RMM:   3    -0.413167246970E+03    0.11452E-02   -0.81606E-03  4880   0.373E-02    0.155E-01
RMM:   4    -0.413194041787E+03   -0.26795E-01   -0.27430E-02  5145   0.138E-01    0.683E-01
RMM:   5    -0.413166804265E+03    0.27238E-01   -0.13359E-02  4807   0.114E-01    0.406E-02
RMM:   6    -0.413166969989E+03   -0.16572E-03   -0.22107E-03  5813   0.447E-02    0.247E-02
RMM:   7    -0.413166972745E+03   -0.27561E-05   -0.28293E-04  5836   0.151E-02    0.158E-02
RMM:   8    -0.413166967321E+03    0.54235E-05   -0.53075E-05  4979   0.723E-03    0.859E-03
RMM:   9    -0.413166961973E+03    0.53483E-05   -0.11000E-05  3752   0.379E-03    0.623E-03
RMM:  10    -0.413166959302E+03    0.26713E-05   -0.16158E-06  2553   0.199E-03    0.403E-03
RMM:  11    -0.413166955507E+03    0.37945E-05   -0.18404E-06  2577   0.208E-03    0.181E-03
RMM:  12    -0.413166951970E+03    0.35368E-05   -0.10391E-06  2478   0.162E-03    0.643E-04
RMM:  13    -0.413166951619E+03    0.35146E-06   -0.33514E-07  2092   0.988E-04
   13 T=    61. E= -.41286648E+03 F= -.41316695E+03 E0= -.41314465E+03  EK= 0.30047E+00 SP= 0.00E+00 SK= 0.00E+00
       N       E                     dE             d eps       ncg     rms          rms(c)
RMM:   1    -0.413159965181E+03    0.69868E-02   -0.10683E+01  4296   0.730E-01    0.887E-01
RMM:   2    -0.413169424692E+03   -0.94595E-02   -0.13011E-01  4231   0.953E-02    0.635E-01
RMM:   3    -0.413167907337E+03    0.15174E-02   -0.78064E-03  4845   0.389E-02    0.150E-01
RMM:   4    -0.413194967265E+03   -0.27060E-01   -0.27738E-02  5145   0.138E-01    0.686E-01
RMM:   5    -0.413167462762E+03    0.27505E-01   -0.13456E-02  4808   0.114E-01    0.396E-02
RMM:   6    -0.413167633291E+03   -0.17053E-03   -0.22421E-03  5809   0.448E-02    0.240E-02
RMM:   7    -0.413167640060E+03   -0.67688E-05   -0.29002E-04  5837   0.150E-02    0.158E-02
RMM:   8    -0.413167637578E+03    0.24819E-05   -0.50651E-05  4944   0.710E-03    0.828E-03
RMM:   9    -0.413167634656E+03    0.29227E-05   -0.10788E-05  3687   0.374E-03    0.596E-03
RMM:  10    -0.413167634357E+03    0.29869E-06   -0.16133E-06  2548   0.196E-03
   14 T=    61. E= -.41286659E+03 F= -.41316763E+03 E0= -.41314537E+03  EK= 0.30104E+00 SP= 0.00E+00 SK= 0.00E+00
       N       E                     dE             d eps       ncg     rms          rms(c)
RMM:   1    -0.413164293236E+03    0.33414E-02   -0.10816E+01  4304   0.774E-01    0.891E-01
RMM:   2    -0.413169880281E+03   -0.55870E-02   -0.13216E-01  4281   0.989E-02    0.646E-01
RMM:   3    -0.413170093247E+03   -0.21297E-03   -0.97573E-03  5095   0.599E-02    0.247E-01
RMM:   4    -0.413207995809E+03   -0.37903E-01   -0.49437E-02  5124   0.186E-01    0.828E-01
RMM:   5    -0.413167469442E+03    0.40526E-01   -0.18112E-02  4767   0.137E-01    0.533E-02
RMM:   6    -0.413167616392E+03   -0.14695E-03   -0.29121E-03  5665   0.534E-02    0.229E-02
RMM:   7    -0.413167638943E+03   -0.22551E-04   -0.39052E-04  6014   0.164E-02    0.160E-02
RMM:   8    -0.413167641338E+03   -0.23956E-05   -0.60189E-05  5223   0.771E-03    0.781E-03
RMM:   9    -0.413167640194E+03    0.11447E-05   -0.11495E-05  3501   0.370E-03    0.362E-03
RMM:  10    -0.413167641615E+03   -0.14217E-05   -0.25910E-06  2604   0.215E-03    0.249E-03
RMM:  11    -0.413167642871E+03   -0.12560E-05   -0.11304E-06  2513   0.161E-03    0.127E-03
RMM:  12    -0.413167643607E+03   -0.73610E-06   -0.72223E-07  2398   0.127E-03
   15 T=    61. E= -.41286618E+03 F= -.41316764E+03 E0= -.41314541E+03  EK= 0.30146E+00 SP= 0.00E+00 SK= 0.00E+00
       N       E                     dE             d eps       ncg     rms          rms(c)
RMM:   1    -0.413161530734E+03    0.61121E-02   -0.10804E+01  4301   0.742E-01    0.914E-01
RMM:   2    -0.413170217993E+03   -0.86873E-02   -0.12992E-01  4250   0.980E-02    0.639E-01
RMM:   3    -0.413169098561E+03    0.11194E-02   -0.83998E-03  4933   0.424E-02    0.165E-01
RMM:   4    -0.413204702675E+03   -0.35604E-01   -0.37091E-02  5144   0.160E-01    0.785E-01
RMM:   5    -0.413168412866E+03    0.36290E-01   -0.17632E-02  4799   0.131E-01    0.453E-02
RMM:   6    -0.413168623725E+03   -0.21086E-03   -0.29321E-03  5781   0.519E-02    0.267E-02
RMM:   7    -0.413168628400E+03   -0.46749E-05   -0.37789E-04  5867   0.169E-02    0.179E-02
RMM:   8    -0.413168622209E+03    0.61909E-05   -0.60642E-05  5059   0.770E-03    0.943E-03
RMM:   9    -0.413168615612E+03    0.65970E-05   -0.12897E-05  3843   0.399E-03    0.641E-03
RMM:  10    -0.413168611842E+03    0.37706E-05   -0.20937E-06  2582   0.212E-03    0.410E-03
RMM:  11    -0.413168607518E+03    0.43241E-05   -0.16910E-06  2549   0.200E-03    0.187E-03
RMM:  12    -0.413168602995E+03    0.45229E-05   -0.12047E-06  2507   0.172E-03    0.653E-04
RMM:  13    -0.413168602287E+03    0.70818E-06   -0.38337E-07  2200   0.108E-03
   16 T=    62. E= -.41286636E+03 F= -.41316860E+03 E0= -.41314640E+03  EK= 0.30225E+00 SP= 0.00E+00 SK= 0.00E+00
       N       E                     dE             d eps       ncg     rms          rms(c)
RMM:   1    -0.413161580904E+03    0.70221E-02   -0.10726E+01  4299   0.747E-01    0.894E-01
RMM:   2    -0.413170881773E+03   -0.93009E-02   -0.13047E-01  4258   0.973E-02    0.635E-01
RMM:   3    -0.413169369041E+03    0.15127E-02   -0.79400E-03  4886   0.411E-02    0.157E-01
RMM:   4    -0.413201106630E+03   -0.31738E-01   -0.32705E-02  5142   0.150E-01    0.742E-01
RMM:   5    -0.413168847838E+03    0.32259E-01   -0.15737E-02  4797   0.124E-01    0.424E-02
RMM:   6    -0.413169041341E+03   -0.19350E-03   -0.26433E-03  5798   0.490E-02    0.253E-02
RMM:   7    -0.413169047075E+03   -0.57346E-05   -0.33589E-04  5844   0.160E-02    0.168E-02
RMM:   8    -0.413169042436E+03    0.46396E-05   -0.57176E-05  5027   0.746E-03    0.900E-03
RMM:   9    -0.413169037214E+03    0.52213E-05   -0.12434E-05  3827   0.394E-03    0.631E-03
RMM:  10    -0.413169034875E+03    0.23392E-05   -0.18933E-06  2566   0.206E-03    0.407E-03
RMM:  11    -0.413169031717E+03    0.31582E-05   -0.19057E-06  2571   0.210E-03    0.182E-03
RMM:  12    -0.413169028701E+03    0.30157E-05   -0.10803E-06  2487   0.166E-03    0.637E-04
RMM:  13    -0.413169028302E+03    0.39856E-06   -0.35067E-07  2143   0.102E-03
   17 T=    62. E= -.41286616E+03 F= -.41316903E+03 E0= -.41314687E+03  EK= 0.30286E+00 SP= 0.00E+00 SK= 0.00E+00
       N       E                     dE             d eps       ncg     rms          rms(c)
RMM:   1    -0.413161957829E+03    0.70709E-02   -0.10800E+01  4297   0.763E-01    0.889E-01
RMM:   2    -0.413171836301E+03   -0.98785E-02   -0.13320E-01  4261   0.100E-01    0.647E-01
RMM:   3    -0.413170004005E+03    0.18323E-02   -0.80112E-03  4880   0.416E-02    0.151E-01
RMM:   4    -0.413202035136E+03   -0.32031E-01   -0.33195E-02  5147   0.151E-01    0.745E-01
RMM:   5    -0.413169392528E+03    0.32643E-01   -0.15924E-02  4792   0.125E-01    0.420E-02
RMM:   6    -0.413169588160E+03   -0.19563E-03   -0.26576E-03  5789   0.493E-02    0.245E-02
RMM:   7    -0.413169597847E+03   -0.96868E-05   -0.33237E-04  5835   0.159E-02    0.165E-02
RMM:   8    -0.413169596715E+03    0.11312E-05   -0.56751E-05  5028   0.742E-03    0.886E-03
RMM:   9    -0.413169594057E+03    0.26580E-05   -0.12557E-05  3835   0.396E-03    0.612E-03
RMM:  10    -0.413169594330E+03   -0.27295E-06   -0.19723E-06  2573   0.207E-03
   18 T=    62. E= -.41286614E+03 F= -.41316959E+03 E0= -.41314748E+03  EK= 0.30346E+00 SP= 0.00E+00 SK= 0.00E+00
       N       E                     dE             d eps       ncg     rms          rms(c)
RMM:   1    -0.413163828382E+03    0.57657E-02   -0.10845E+01  4304   0.760E-01    0.913E-01
RMM:   2    -0.413172488774E+03   -0.86604E-02   -0.13134E-01  4303   0.979E-02    0.643E-01
RMM:   3    -0.413174033247E+03   -0.15445E-02   -0.10583E-02  5107   0.659E-02    0.278E-01
RMM:   4    -0.413204172051E+03   -0.30139E-01   -0.44074E-02  5100   0.176E-01    0.756E-01
RMM:   5    -0.413170702573E+03    0.33469E-01   -0.14395E-02  4733   0.125E-01    0.528E-02
RMM:   6    -0.413170801272E+03   -0.98699E-04   -0.24044E-03  5619   0.489E-02    0.242E-02
RMM:   7    -0.413170813593E+03   -0.12321E-04   -0.33748E-04  5998   0.157E-02    0.161E-02
RMM:   8    -0.413170809506E+03    0.40871E-05   -0.56115E-05  5205   0.771E-03    0.754E-03
RMM:   9    -0.413170802569E+03    0.69366E-05   -0.99809E-06  3386   0.362E-03    0.341E-03
RMM:  10    -0.413170800008E+03    0.25613E-05   -0.21886E-06  2570   0.209E-03    0.233E-03
RMM:  11    -0.413170796122E+03    0.38856E-05   -0.11152E-06  2514   0.165E-03    0.125E-03
RMM:  12    -0.413170792713E+03    0.34094E-05   -0.60371E-07  2383   0.125E-03    0.405E-04
RMM:  13    -0.413170790975E+03    0.17378E-05   -0.29541E-07  1865   0.899E-04    0.232E-04
RMM:  14    -0.413170789311E+03    0.16647E-05   -0.18488E-07  1445   0.758E-04    0.154E-04
RMM:  15    -0.413170786402E+03    0.29083E-05   -0.18504E-07  1464   0.746E-04    0.934E-05
RMM:  16    -0.413170784814E+03    0.15882E-05   -0.11160E-07  1259   0.657E-04    0.780E-05
RMM:  17    -0.413170782002E+03    0.28123E-05   -0.12438E-07  1420   0.666E-04    0.484E-05
RMM:  18    -0.413170780682E+03    0.13196E-05   -0.61980E-08   982   0.564E-04    0.317E-05
RMM:  19    -0.413170780381E+03    0.30137E-06   -0.30123E-08   801   0.527E-04
   19 T=    62. E= -.41286654E+03 F= -.41317078E+03 E0= -.41314870E+03  EK= 0.30424E+00 SP= 0.00E+00 SK= 0.00E+00
       N       E                     dE             d eps       ncg     rms          rms(c)
RMM:   1    -0.413163816953E+03    0.69637E-02   -0.10779E+01  4297   0.755E-01    0.903E-01
RMM:   2    -0.413172819778E+03   -0.90028E-02   -0.13051E-01  4269   0.987E-02    0.636E-01
RMM:   3    -0.413171704834E+03    0.11149E-02   -0.82143E-03  4948   0.432E-02    0.170E-01
RMM:   4    -0.413209862292E+03   -0.38157E-01   -0.40250E-02  5143   0.166E-01    0.812E-01
RMM:   5    -0.413170937132E+03    0.38925E-01   -0.18918E-02  4791   0.136E-01    0.468E-02
RMM:   6    -0.413171148483E+03   -0.21135E-03   -0.31331E-03  5750   0.541E-02    0.269E-02
RMM:   7    -0.413171154800E+03   -0.63169E-05   -0.41151E-04  5850   0.173E-02    0.182E-02
RMM:   8    -0.413171148608E+03    0.61925E-05   -0.63345E-05  5118   0.785E-03    0.948E-03
RMM:   9    -0.413171141661E+03    0.69467E-05   -0.13875E-05  3920   0.409E-03    0.625E-03
RMM:  10    -0.413171137932E+03    0.37290E-05   -0.22727E-06  2592   0.214E-03    0.403E-03
RMM:  11    -0.413171133918E+03    0.40139E-05   -0.15182E-06  2526   0.193E-03    0.188E-03
RMM:  12    -0.413171129715E+03    0.42028E-05   -0.11063E-06  2497   0.168E-03    0.584E-04
RMM:  13    -0.413171128900E+03    0.81561E-06   -0.38546E-07  2207   0.109E-03
   20 T=    62. E= -.41286633E+03 F= -.41317113E+03 E0= -.41314910E+03  EK= 0.30480E+00 SP= 0.00E+00 SK= 0.00E+00
       N       E                     dE             d eps       ncg     rms          rms(c)
RMM:   1    -0.413166428043E+03    0.47017E-02   -0.10835E+01  4300   0.793E-01    0.889E-01
RMM:   2    -0.413174438511E+03   -0.80105E-02   -0.13637E-01  4277   0.102E-01    0.647E-01
RMM:   3    -0.413172603299E+03    0.18352E-02   -0.80035E-03  4899   0.422E-02    0.156E-01
RMM:   4    -0.413205842306E+03   -0.33239E-01   -0.34443E-02  5137   0.154E-01    0.758E-01
RMM:   5    -0.413172004991E+03    0.33837E-01   -0.16618E-02  4799   0.127E-01    0.425E-02
RMM:   6    -0.413172196606E+03   -0.19162E-03   -0.27239E-03  5793   0.503E-02    0.248E-02
RMM:   7    -0.413172208099E+03   -0.11493E-04   -0.34724E-04  5851   0.162E-02    0.166E-02
RMM:   8    -0.413172206288E+03    0.18111E-05   -0.60738E-05  5045   0.763E-03    0.921E-03
RMM:   9    -0.413172202215E+03    0.40730E-05   -0.13297E-05  3919   0.408E-03    0.625E-03
RMM:  10    -0.413172201474E+03    0.74122E-06   -0.20822E-06  2577   0.211E-03
   21 T=    62. E= -.41286649E+03 F= -.41317220E+03 E0= -.41315021E+03  EK= 0.30572E+00 SP= 0.00E+00 SK= 0.00E+00
       N       E                     dE             d eps       ncg     rms          rms(c)
RMM:   1    -0.413165964864E+03    0.62374E-02   -0.10885E+01  4302   0.766E-01    0.910E-01
RMM:   2    -0.413175195179E+03   -0.92303E-02   -0.13287E-01  4304   0.984E-02    0.647E-01
RMM:   3    -0.413176677589E+03   -0.14824E-02   -0.10749E-02  5094   0.673E-02    0.283E-01
RMM:   4    -0.413207294682E+03   -0.30617E-01   -0.45205E-02  5097   0.179E-01    0.762E-01
RMM:   5    -0.413173183936E+03    0.34111E-01   -0.14597E-02  4729   0.126E-01    0.529E-02
RMM:   6    -0.413173278778E+03   -0.94842E-04   -0.24453E-03  5623   0.495E-02    0.240E-02
RMM:   7    -0.413173290740E+03   -0.11962E-04   -0.34291E-04  6004   0.159E-02    0.162E-02
RMM:   8    -0.413173286544E+03    0.41964E-05   -0.57666E-05  5207   0.779E-03    0.768E-03
RMM:   9    -0.413173279389E+03    0.71545E-05   -0.10258E-05  3435   0.367E-03    0.342E-03
RMM:  10    -0.413173276872E+03    0.25170E-05   -0.21996E-06  2576   0.209E-03    0.232E-03
RMM:  11    -0.413173273039E+03    0.38327E-05   -0.11016E-06  2511   0.164E-03    0.124E-03
RMM:  12    -0.413173269617E+03    0.34223E-05   -0.59186E-07  2383   0.125E-03    0.392E-04
RMM:  13    -0.413173267778E+03    0.18389E-05   -0.28942E-07  1860   0.895E-04    0.220E-04
RMM:  14    -0.413173265629E+03    0.21496E-05   -0.19148E-07  1462   0.768E-04    0.132E-04
RMM:  15    -0.413173263009E+03    0.26191E-05   -0.15971E-07  1406   0.727E-04    0.863E-05
RMM:  16    -0.413173261373E+03    0.16366E-05   -0.10866E-07  1308   0.659E-04    0.756E-05
RMM:  17    -0.413173258509E+03    0.28639E-05   -0.11112E-07  1381   0.657E-04    0.432E-05
RMM:  18    -0.413173257356E+03    0.11527E-05   -0.54239E-08   966   0.560E-04    0.280E-05
RMM:  19    -0.413173256900E+03    0.45663E-06   -0.27706E-08   796   0.530E-04
   22 T=    62. E= -.41286649E+03 F= -.41317326E+03 E0= -.41315131E+03  EK= 0.30677E+00 SP= 0.00E+00 SK= 0.00E+00
       N       E                     dE             d eps       ncg     rms          rms(c)
RMM:   1    -0.413167244803E+03    0.60126E-02   -0.10873E+01  4294   0.782E-01    0.913E-01
RMM:   2    -0.413175796145E+03   -0.85513E-02   -0.13287E-01  4274   0.106E-01    0.640E-01
RMM:   3    -0.413174488419E+03    0.13077E-02   -0.83807E-03  4879   0.456E-02    0.167E-01
RMM:   4    -0.413210028795E+03   -0.35540E-01   -0.36943E-02  5143   0.160E-01    0.784E-01
RMM:   5    -0.413173823054E+03    0.36206E-01   -0.17713E-02  4792   0.131E-01    0.455E-02
RMM:   6    -0.413174024124E+03   -0.20107E-03   -0.29814E-03  5772   0.524E-02    0.272E-02
RMM:   7    -0.413174028971E+03   -0.48466E-05   -0.38018E-04  5801   0.170E-02    0.179E-02
RMM:   8    -0.413174021618E+03    0.73531E-05   -0.65046E-05  5099   0.796E-03    0.982E-03
RMM:   9    -0.413174013307E+03    0.83104E-05   -0.13805E-05  3997   0.417E-03    0.666E-03
RMM:  10    -0.413174008302E+03    0.50052E-05   -0.21549E-06  2588   0.215E-03    0.429E-03
RMM:  11    -0.413174002480E+03    0.58217E-05   -0.17204E-06  2540   0.205E-03    0.196E-03
RMM:  12    -0.413173996730E+03    0.57504E-05   -0.11046E-06  2485   0.173E-03    0.609E-04
RMM:  13    -0.413173995696E+03    0.10337E-05   -0.39084E-07  2217   0.110E-03    0.440E-04
RMM:  14    -0.413173995181E+03    0.51557E-06   -0.18498E-07  1695   0.784E-04
   23 T=    63. E= -.41286615E+03 F= -.41317400E+03 E0= -.41315210E+03  EK= 0.30785E+00 SP= 0.00E+00 SK= 0.00E+00
       N       E                     dE             d eps       ncg     rms          rms(c)
RMM:   1    -0.413167868558E+03    0.61271E-02   -0.10870E+01  4296   0.783E-01    0.893E-01
RMM:   2    -0.413177877548E+03   -0.10009E-01   -0.13459E-01  4281   0.103E-01    0.647E-01
RMM:   3    -0.413175731942E+03    0.21456E-02   -0.80165E-03  4749   0.435E-02    0.148E-01
RMM:   4    -0.413201665196E+03   -0.25933E-01   -0.26375E-02  5141   0.135E-01    0.671E-01
RMM:   5    -0.413175376766E+03    0.26288E-01   -0.12999E-02  4803   0.112E-01    0.392E-02
RMM:   6    -0.413175522283E+03   -0.14552E-03   -0.21154E-03  5803   0.440E-02    0.240E-02
RMM:   7    -0.413175527475E+03   -0.51923E-05   -0.27410E-04  5798   0.150E-02    0.152E-02
RMM:   8    -0.413175523749E+03    0.37256E-05   -0.52831E-05  4979   0.730E-03    0.838E-03
RMM:   9    -0.413175518844E+03    0.49054E-05   -0.11069E-05  3769   0.384E-03    0.592E-03
RMM:  10    -0.413175517072E+03    0.17722E-05   -0.15695E-06  2546   0.198E-03    0.389E-03
RMM:  11    -0.413175514264E+03    0.28073E-05   -0.18849E-06  2561   0.214E-03    0.166E-03
RMM:  12    -0.413175511982E+03    0.22828E-05   -0.87494E-07  2461   0.154E-03    0.662E-04
RMM:  13    -0.413175511702E+03    0.27997E-06   -0.29514E-07  2029   0.942E-04
   24 T=    63. E= -.41286633E+03 F= -.41317551E+03 E0= -.41315366E+03  EK= 0.30918E+00 SP= 0.00E+00 SK= 0.00E+00
       N       E                     dE             d eps       ncg     rms          rms(c)
RMM:   1    -0.413169176110E+03    0.63359E-02   -0.10965E+01  4295   0.797E-01    0.908E-01
RMM:   2    -0.413178697119E+03   -0.95210E-02   -0.13483E-01  4276   0.106E-01    0.652E-01
RMM:   3    -0.413176668791E+03    0.20283E-02   -0.81774E-03  4673   0.438E-02    0.146E-01
RMM:   4    -0.413197305057E+03   -0.20636E-01   -0.20980E-02  5148   0.121E-01    0.601E-01
RMM:   5    -0.413176342575E+03    0.20962E-01   -0.10363E-02  4812   0.998E-02    0.369E-02
RMM:   6    -0.413176448495E+03   -0.10592E-03   -0.16993E-03  5821   0.388E-02    0.221E-02
RMM:   7    -0.413176449483E+03   -0.98752E-06   -0.18085E-04  5627   0.127E-02    0.106E-02
RMM:   8    -0.413176444282E+03    0.52005E-05   -0.30013E-05  4612   0.547E-03    0.681E-03
RMM:   9    -0.413176440712E+03    0.35701E-05   -0.52474E-06  2960   0.264E-03    0.495E-03
RMM:  10    -0.413176439656E+03    0.10561E-05   -0.12184E-06  2515   0.174E-03    0.369E-03
RMM:  11    -0.413176434598E+03    0.50579E-05   -0.17993E-06  2532   0.219E-03    0.167E-03
RMM:  12    -0.413176432187E+03    0.24110E-05   -0.79816E-07  2431   0.151E-03    0.955E-04
RMM:  13    -0.413176431603E+03    0.58395E-06   -0.24800E-07  2012   0.910E-04
   25 T=    63. E= -.41286616E+03 F= -.41317643E+03 E0= -.41315463E+03  EK= 0.31027E+00 SP= 0.00E+00 SK= 0.00E+00
       N       E                     dE             d eps       ncg     rms          rms(c)
RMM:   1    -0.413175387432E+03    0.10448E-02   -0.11028E+01  4293   0.836E-01    0.923E-01
RMM:   2    -0.413179405942E+03   -0.40185E-02   -0.13699E-01  4277   0.109E-01    0.645E-01
RMM:   3    -0.413177839843E+03    0.15661E-02   -0.83112E-03  4588   0.434E-02    0.153E-01
RMM:   4    -0.413192974163E+03   -0.15134E-01   -0.15376E-02  5159   0.105E-01    0.516E-01
RMM:   5    -0.413177698703E+03    0.15275E-01   -0.76518E-03  4826   0.850E-02    0.356E-02
RMM:   6    -0.413177752619E+03   -0.53916E-04   -0.11869E-03  5832   0.328E-02    0.211E-02
RMM:   7    -0.413177748092E+03    0.45272E-05   -0.14556E-04  5631   0.118E-02    0.104E-02
RMM:   8    -0.413177738523E+03    0.95689E-05   -0.28683E-05  4683   0.555E-03    0.663E-03
RMM:   9    -0.413177735443E+03    0.30801E-05   -0.71505E-06  3385   0.319E-03    0.540E-03
RMM:  10    -0.413177730264E+03    0.51786E-05   -0.98246E-07  2510   0.182E-03    0.333E-03
RMM:  11    -0.413177722732E+03    0.75317E-05   -0.11601E-06  2503   0.176E-03    0.158E-03
RMM:  12    -0.413177715644E+03    0.70882E-05   -0.66873E-07  2377   0.135E-03    0.519E-04
RMM:  13    -0.413177714302E+03    0.13418E-05   -0.23184E-07  1847   0.851E-04    0.359E-04
RMM:  14    -0.413177713042E+03    0.12601E-05   -0.10975E-07  1276   0.674E-04    0.280E-04
RMM:  15    -0.413177707500E+03    0.55426E-05   -0.15671E-07  1789   0.765E-04    0.285E-04
RMM:  16    -0.413177706763E+03    0.73668E-06   -0.45124E-08   903   0.558E-04
   26 T=    63. E= -.41286621E+03 F= -.41317771E+03 E0= -.41315596E+03  EK= 0.31150E+00 SP= 0.00E+00 SK= 0.00E+00
       N       E                     dE             d eps       ncg     rms          rms(c)
RMM:   1    -0.413171802726E+03    0.59048E-02   -0.10936E+01  4291   0.794E-01    0.899E-01
RMM:   2    -0.413181522570E+03   -0.97198E-02   -0.13506E-01  4274   0.104E-01    0.647E-01
RMM:   3    -0.413179801054E+03    0.17215E-02   -0.81714E-03  4646   0.445E-02    0.147E-01
RMM:   4    -0.413199571314E+03   -0.19770E-01   -0.20037E-02  5150   0.118E-01    0.589E-01
RMM:   5    -0.413179516163E+03    0.20055E-01   -0.10047E-02  4818   0.975E-02    0.364E-02
RMM:   6    -0.413179607978E+03   -0.91814E-04   -0.15604E-03  5829   0.375E-02    0.220E-02
RMM:   7    -0.413179609065E+03   -0.10878E-05   -0.17710E-04  5595   0.126E-02    0.105E-02
RMM:   8    -0.413179604390E+03    0.46755E-05   -0.28487E-05  4549   0.538E-03    0.657E-03
RMM:   9    -0.413179601111E+03    0.32790E-05   -0.59163E-06  3079   0.280E-03    0.499E-03
RMM:  10    -0.413179599887E+03    0.12244E-05   -0.12816E-06  2524   0.182E-03    0.353E-03
RMM:  11    -0.413179595335E+03    0.45512E-05   -0.16829E-06  2534   0.210E-03    0.160E-03
RMM:  12    -0.413179592577E+03    0.27581E-05   -0.78293E-07  2426   0.149E-03    0.900E-04
RMM:  13    -0.413179592077E+03    0.50084E-06   -0.23630E-07  2006   0.897E-04
   27 T=    64. E= -.41286660E+03 F= -.41317959E+03 E0= -.41315789E+03  EK= 0.31300E+00 SP= 0.00E+00 SK= 0.00E+00
       N       E                     dE             d eps       ncg     rms          rms(c)
RMM:   1    -0.413179525325E+03    0.67253E-04   -0.11118E+01  4291   0.860E-01    0.907E-01
RMM:   2    -0.413182917872E+03   -0.33925E-02   -0.14348E-01  4273   0.112E-01    0.659E-01
RMM:   3    -0.413180810789E+03    0.21071E-02   -0.81438E-03  4401   0.424E-02    0.145E-01
RMM:   4    -0.413186035706E+03   -0.52249E-02   -0.58790E-03  5134   0.659E-02    0.306E-01
RMM:   5    -0.413180752522E+03    0.52832E-02   -0.26152E-03  4821   0.501E-02    0.296E-02
RMM:   6    -0.413180759769E+03   -0.72472E-05   -0.46334E-04  5792   0.206E-02    0.186E-02
RMM:   7    -0.413180757494E+03    0.22752E-05   -0.13731E-04  5314   0.116E-02    0.117E-02
RMM:   8    -0.413180747079E+03    0.10415E-04   -0.12526E-05  3898   0.466E-03    0.483E-03
RMM:   9    -0.413180745482E+03    0.15976E-05   -0.27994E-06  2729   0.226E-03    0.340E-03
RMM:  10    -0.413180743133E+03    0.23490E-05   -0.11296E-06  2479   0.174E-03    0.188E-03
RMM:  11    -0.413180740312E+03    0.28210E-05   -0.65264E-07  2408   0.136E-03    0.818E-04
RMM:  12    -0.413180738261E+03    0.20510E-05   -0.31383E-07  2006   0.950E-04    0.363E-04
RMM:  13    -0.413180737018E+03    0.12427E-05   -0.15940E-07  1379   0.726E-04    0.194E-04
RMM:  14    -0.413180735142E+03    0.18763E-05   -0.11285E-07  1242   0.683E-04    0.127E-04
RMM:  15    -0.413180732734E+03    0.24076E-05   -0.10421E-07  1308   0.672E-04    0.804E-05
RMM:  16    -0.413180731242E+03    0.14919E-05   -0.59749E-08  1065   0.595E-04    0.455E-05
RMM:  17    -0.413180728939E+03    0.23033E-05   -0.60795E-08  1111   0.592E-04    0.325E-05
RMM:  18    -0.413180728444E+03    0.49496E-06   -0.19133E-08   725   0.520E-04
   28 T=    64. E= -.41286636E+03 F= -.41318073E+03 E0= -.41315908E+03  EK= 0.31437E+00 SP= 0.00E+00 SK= 0.00E+00
       N       E                     dE             d eps       ncg     rms          rms(c)
RMM:   1    -0.413177429250E+03    0.32997E-02   -0.11121E+01  4292   0.841E-01    0.930E-01
RMM:   2    -0.413184447082E+03   -0.70178E-02   -0.13870E-01  4273   0.112E-01    0.651E-01
RMM:   3    -0.413182821182E+03    0.16259E-02   -0.85987E-03  4511   0.442E-02    0.153E-01
RMM:   4    -0.413194608870E+03   -0.11788E-01   -0.12081E-02  5161   0.922E-02    0.456E-01
RMM:   5    -0.413182744586E+03    0.11864E-01   -0.59985E-03  4828   0.750E-02    0.345E-02
RMM:   6    -0.413182781361E+03   -0.36775E-04   -0.97564E-04  5856   0.292E-02    0.213E-02
RMM:   7    -0.413182779181E+03    0.21797E-05   -0.16866E-04  5545   0.127E-02    0.131E-02
RMM:   8    -0.413182764695E+03    0.14486E-04   -0.28280E-05  4628   0.599E-03    0.602E-03
RMM:   9    -0.413182761160E+03    0.35351E-05   -0.56068E-06  3075   0.296E-03    0.479E-03
RMM:  10    -0.413182756138E+03    0.50222E-05   -0.98627E-07  2497   0.179E-03    0.289E-03
RMM:  11    -0.413182750077E+03    0.60605E-05   -0.74550E-07  2468   0.147E-03    0.144E-03
RMM:  12    -0.413182743782E+03    0.62951E-05   -0.54777E-07  2347   0.122E-03    0.604E-04
RMM:  13    -0.413182741963E+03    0.18188E-05   -0.21065E-07  1820   0.829E-04    0.292E-04
RMM:  14    -0.413182740399E+03    0.15649E-05   -0.10300E-07  1214   0.661E-04    0.189E-04
RMM:  15    -0.413182735474E+03    0.49249E-05   -0.10988E-07  1385   0.701E-04    0.147E-04
RMM:  16    -0.413182734741E+03    0.73278E-06   -0.42626E-08   890   0.587E-04
   29 T=    64. E= -.41286657E+03 F= -.41318273E+03 E0= -.41316114E+03  EK= 0.31617E+00 SP= 0.00E+00 SK= 0.00E+00
       N       E                     dE             d eps       ncg     rms          rms(c)
RMM:   1    -0.413177042398E+03    0.56931E-02   -0.11053E+01  4290   0.820E-01    0.908E-01
RMM:   2    -0.413186682565E+03   -0.96402E-02   -0.13741E-01  4270   0.111E-01    0.650E-01
RMM:   3    -0.413184697198E+03    0.19854E-02   -0.83396E-03  4446   0.458E-02    0.145E-01
RMM:   4    -0.413192794664E+03   -0.80975E-02   -0.85782E-03  5160   0.786E-02    0.380E-01
RMM:   5    -0.413184617897E+03    0.81768E-02   -0.41296E-03  4832   0.624E-02    0.322E-02
RMM:   6    -0.413184634433E+03   -0.16536E-04   -0.68444E-04  5816   0.249E-02    0.215E-02
RMM:   7    -0.413184629891E+03    0.45421E-05   -0.16541E-04  5426   0.125E-02    0.125E-02
RMM:   8    -0.413184617669E+03    0.12222E-04   -0.18862E-05  4272   0.532E-03    0.524E-03
RMM:   9    -0.413184615075E+03    0.25940E-05   -0.33884E-06  2811   0.245E-03    0.387E-03
RMM:  10    -0.413184611161E+03    0.39142E-05   -0.10042E-06  2489   0.168E-03    0.222E-03
RMM:  11    -0.413184606402E+03    0.47583E-05   -0.69790E-07  2445   0.140E-03    0.105E-03
RMM:  12    -0.413184602593E+03    0.38087E-05   -0.39274E-07  2184   0.105E-03    0.449E-04
RMM:  13    -0.413184601133E+03    0.14607E-05   -0.16954E-07  1527   0.748E-04    0.214E-04
RMM:  14    -0.413184598929E+03    0.22038E-05   -0.10607E-07  1165   0.669E-04    0.122E-04
RMM:  15    -0.413184595632E+03    0.32966E-05   -0.96299E-08  1241   0.673E-04    0.872E-05
RMM:  16    -0.413184594635E+03    0.99782E-06   -0.49879E-08   964   0.597E-04
   30 T=    65. E= -.41286649E+03 F= -.41318459E+03 E0= -.41316305E+03  EK= 0.31810E+00 SP= 0.00E+00 SK= 0.00E+00
       N       E                     dE             d eps       ncg     rms          rms(c)
RMM:   1    -0.413191921809E+03   -0.73262E-02   -0.11316E+01  4292   0.927E-01    0.907E-01
RMM:   2    -0.413189159911E+03    0.27619E-02   -0.16080E-01  4274   0.123E-01    0.666E-01
RMM:   3    -0.413186318594E+03    0.28413E-02   -0.78838E-03  4331   0.437E-02    0.167E-01
RMM:   4    -0.413189893454E+03   -0.35749E-02   -0.46107E-03  5123   0.575E-02    0.253E-01
RMM:   5    -0.413186309301E+03    0.35842E-02   -0.17656E-03  4818   0.416E-02    0.296E-02
RMM:   6    -0.413186311539E+03   -0.22379E-05   -0.34807E-04  5746   0.184E-02    0.208E-02
RMM:   7    -0.413186304363E+03    0.71756E-05   -0.13390E-04  5170   0.113E-02    0.103E-02
RMM:   8    -0.413186297460E+03    0.69035E-05   -0.97079E-06  3636   0.420E-03    0.455E-03
RMM:   9    -0.413186296237E+03    0.12223E-05   -0.15170E-06  2557   0.192E-03    0.293E-03
RMM:  10    -0.413186293450E+03    0.27877E-05   -0.97686E-07  2472   0.154E-03    0.145E-03
RMM:  11    -0.413186291232E+03    0.22181E-05   -0.48535E-07  2237   0.113E-03    0.656E-04
RMM:  12    -0.413186289225E+03    0.20067E-05   -0.26727E-07  1834   0.864E-04    0.278E-04
RMM:  13    -0.413186287870E+03    0.13547E-05   -0.13478E-07  1211   0.688E-04    0.170E-04
RMM:  14    -0.413186286263E+03    0.16073E-05   -0.10289E-07  1145   0.656E-04    0.113E-04
RMM:  15    -0.413186283916E+03    0.23471E-05   -0.99964E-08  1242   0.656E-04    0.630E-05
RMM:  16    -0.413186283173E+03    0.74324E-06   -0.48503E-08   925   0.579E-04
   31 T=    65. E= -.41286616E+03 F= -.41318628E+03 E0= -.41316479E+03  EK= 0.32013E+00 SP= 0.00E+00 SK= 0.00E+00
       N       E                     dE             d eps       ncg     rms          rms(c)
RMM:   1    -0.413181930087E+03    0.43538E-02   -0.11266E+01  4292   0.848E-01    0.936E-01
RMM:   2    -0.413190977528E+03   -0.90474E-02   -0.14070E-01  4279   0.121E-01    0.659E-01
RMM:   3    -0.413189053148E+03    0.19244E-02   -0.88604E-03  4403   0.524E-02    0.150E-01
RMM:   4    -0.413195785908E+03   -0.67328E-02   -0.72541E-03  5158   0.731E-02    0.346E-01
RMM:   5    -0.413189036563E+03    0.67493E-02   -0.33726E-03  4822   0.567E-02    0.331E-02
RMM:   6    -0.413189049694E+03   -0.13130E-04   -0.62040E-04  5790   0.236E-02    0.229E-02
RMM:   7    -0.413189038752E+03    0.10941E-04   -0.16959E-04  5335   0.128E-02    0.123E-02
RMM:   8    -0.413189027026E+03    0.11726E-04   -0.15113E-05  4051   0.498E-03    0.529E-03
RMM:   9    -0.413189023580E+03    0.34462E-05   -0.25813E-06  2711   0.224E-03    0.369E-03
RMM:  10    -0.413189017734E+03    0.58463E-05   -0.99037E-07  2480   0.166E-03    0.199E-03
RMM:  11    -0.413189011447E+03    0.62864E-05   -0.65082E-07  2425   0.135E-03    0.904E-04
RMM:  12    -0.413189006616E+03    0.48314E-05   -0.34035E-07  2113   0.100E-03    0.389E-04
RMM:  13    -0.413189004515E+03    0.21008E-05   -0.15965E-07  1443   0.737E-04    0.199E-04
RMM:  14    -0.413189001125E+03    0.33898E-05   -0.10086E-07  1172   0.674E-04    0.112E-04
RMM:  15    -0.413188997073E+03    0.40528E-05   -0.88278E-08  1263   0.668E-04    0.815E-05
RMM:  16    -0.413188995421E+03    0.16517E-05   -0.51131E-08  1033   0.595E-04    0.685E-05
RMM:  17    -0.413188991604E+03    0.38174E-05   -0.62086E-08  1235   0.615E-04    0.417E-05
RMM:  18    -0.413188990171E+03    0.14329E-05   -0.28501E-08   838   0.537E-04    0.265E-05
RMM:  19    -0.413188989752E+03    0.41844E-06   -0.15534E-08   717   0.514E-04
   32 T=    66. E= -.41286646E+03 F= -.41318899E+03 E0= -.41316754E+03  EK= 0.32253E+00 SP= 0.00E+00 SK= 0.00E+00
       N       E                     dE             d eps       ncg     rms          rms(c)
RMM:   1    -0.413183613460E+03    0.53767E-02   -0.11238E+01  4293   0.864E-01    0.923E-01
RMM:   2    -0.413193125213E+03   -0.95118E-02   -0.14229E-01  4283   0.128E-01    0.656E-01
RMM:   3    -0.413190810568E+03    0.23146E-02   -0.85153E-03  4184   0.446E-02    0.150E-01
RMM:   4    -0.413191076856E+03   -0.26629E-03   -0.12561E-03  4891   0.270E-02    0.632E-02
RMM:   5    -0.413190898598E+03    0.17826E-03   -0.14594E-04  4719   0.123E-02    0.332E-02
RMM:   6    -0.413190884953E+03    0.13645E-04   -0.14570E-04  5263   0.123E-02    0.227E-02
RMM:   7    -0.413190861380E+03    0.23573E-04   -0.11611E-04  4696   0.100E-02    0.109E-02
RMM:   8    -0.413190858890E+03    0.24896E-05   -0.72779E-06  3108   0.349E-03    0.403E-03
RMM:   9    -0.413190857356E+03    0.15343E-05   -0.15539E-06  2390   0.176E-03    0.190E-03
RMM:  10    -0.413190848828E+03    0.85281E-05   -0.69590E-07  2196   0.125E-03    0.588E-04
RMM:  11    -0.413190844391E+03    0.44373E-05   -0.23643E-07  1633   0.805E-04    0.276E-04
RMM:  12    -0.413190841576E+03    0.28146E-05   -0.12504E-07  1388   0.687E-04    0.172E-04
RMM:  13    -0.413190837360E+03    0.42159E-05   -0.83838E-08  1126   0.641E-04    0.105E-04
RMM:  14    -0.413190832280E+03    0.50805E-05   -0.70495E-08  1132   0.623E-04    0.838E-05
RMM:  15    -0.413190830276E+03    0.20037E-05   -0.30723E-08   795   0.536E-04    0.578E-05
RMM:  16    -0.413190827107E+03    0.31688E-05   -0.36565E-08   866   0.550E-04    0.405E-05
RMM:  17    -0.413190826685E+03    0.42264E-06   -0.11638E-08   611   0.505E-04
   33 T=    66. E= -.41286612E+03 F= -.41319083E+03 E0= -.41316943E+03  EK= 0.32470E+00 SP= 0.00E+00 SK= 0.00E+00
       N       E                     dE             d eps       ncg     rms          rms(c)
RMM:   1    -0.413198379822E+03   -0.75527E-02   -0.11470E+01  4297   0.965E-01    0.914E-01
RMM:   2    -0.413195665438E+03    0.27144E-02   -0.16121E-01  4279   0.137E-01    0.671E-01
RMM:   3    -0.413193229998E+03    0.24354E-02   -0.81852E-03  4299   0.510E-02    0.164E-01
RMM:   4    -0.413196029669E+03   -0.27997E-02   -0.37655E-03  5103   0.547E-02    0.222E-01
RMM:   5    -0.413193289519E+03    0.27401E-02   -0.13203E-03  4783   0.367E-02    0.308E-02
RMM:   6    -0.413193280289E+03    0.92301E-05   -0.28899E-04  5663   0.177E-02    0.222E-02
RMM:   7    -0.413193271709E+03    0.85805E-05   -0.13893E-04  5060   0.113E-02    0.110E-02
RMM:   8    -0.413193265400E+03    0.63084E-05   -0.10977E-05  3813   0.435E-03    0.497E-03
RMM:   9    -0.413193264292E+03    0.11076E-05   -0.16227E-06  2518   0.190E-03    0.270E-03
RMM:  10    -0.413193260994E+03    0.32987E-05   -0.88403E-07  2453   0.149E-03    0.131E-03
RMM:  11    -0.413193258564E+03    0.24301E-05   -0.42392E-07  2162   0.104E-03    0.692E-04
RMM:  12    -0.413193256103E+03    0.24607E-05   -0.25660E-07  1713   0.840E-04    0.263E-04
RMM:  13    -0.413193254374E+03    0.17293E-05   -0.13293E-07  1183   0.684E-04    0.162E-04
RMM:  14    -0.413193252348E+03    0.20256E-05   -0.10064E-07  1090   0.650E-04    0.127E-04
RMM:  15    -0.413193249593E+03    0.27546E-05   -0.95526E-08  1160   0.648E-04    0.604E-05
RMM:  16    -0.413193248770E+03    0.82347E-06   -0.42871E-08   794   0.560E-04
   34 T=    67. E= -.41286616E+03 F= -.41319325E+03 E0= -.41317190E+03  EK= 0.32709E+00 SP= 0.00E+00 SK= 0.00E+00
       N       E                     dE             d eps       ncg     rms          rms(c)
RMM:   1    -0.413191499663E+03    0.17499E-02   -0.11471E+01  4299   0.919E-01    0.940E-01
RMM:   2    -0.413198167960E+03   -0.66683E-02   -0.14675E-01  4262   0.131E-01    0.669E-01
RMM:   3    -0.413196037656E+03    0.21303E-02   -0.88260E-03  4405   0.508E-02    0.153E-01
RMM:   4    -0.413201225442E+03   -0.51878E-02   -0.58441E-03  5165   0.650E-02    0.306E-01
RMM:   5    -0.413196010624E+03    0.52148E-02   -0.26304E-03  4818   0.507E-02    0.336E-02
RMM:   6    -0.413195999921E+03    0.10704E-04   -0.50122E-04  5727   0.224E-02    0.241E-02
RMM:   7    -0.413195988748E+03    0.11173E-04   -0.16604E-04  5264   0.123E-02    0.117E-02
RMM:   8    -0.413195979654E+03    0.90942E-05   -0.16302E-05  4188   0.489E-03    0.528E-03
RMM:   9    -0.413195977170E+03    0.24839E-05   -0.23510E-06  2664   0.214E-03    0.314E-03
RMM:  10    -0.413195971324E+03    0.58461E-05   -0.87160E-07  2473   0.155E-03    0.162E-03
RMM:  11    -0.413195965392E+03    0.59322E-05   -0.52785E-07  2331   0.119E-03    0.767E-04
RMM:  12    -0.413195960649E+03    0.47429E-05   -0.28509E-07  1951   0.908E-04    0.334E-04
RMM:  13    -0.413195958052E+03    0.25968E-05   -0.14270E-07  1289   0.707E-04    0.180E-04
RMM:  14    -0.413195954985E+03    0.30666E-05   -0.89823E-08  1080   0.651E-04    0.124E-04
RMM:  15    -0.413195949842E+03    0.51437E-05   -0.89722E-08  1193   0.665E-04    0.705E-05
RMM:  16    -0.413195948260E+03    0.15818E-05   -0.48028E-08   978   0.598E-04    0.628E-05
RMM:  17    -0.413195944961E+03    0.32992E-05   -0.53836E-08  1179   0.607E-04    0.378E-05
RMM:  18    -0.413195943277E+03    0.16831E-05   -0.29125E-08   873   0.539E-04    0.179E-05
RMM:  19    -0.413195943015E+03    0.26292E-06   -0.13491E-08   658   0.502E-04
   35 T=    67. E= -.41286645E+03 F= -.41319594E+03 E0= -.41317464E+03  EK= 0.32949E+00 SP= 0.00E+00 SK= 0.00E+00
       N       E                     dE             d eps       ncg     rms          rms(c)
RMM:   1    -0.413202259320E+03   -0.63160E-02   -0.11556E+01  4298   0.100E+00    0.939E-01
RMM:   2    -0.413200037112E+03    0.22222E-02   -0.15763E-01  4260   0.132E-01    0.664E-01
RMM:   3    -0.413198312997E+03    0.17241E-02   -0.87902E-03  4744   0.513E-02    0.184E-01
RMM:   4    -0.413230027057E+03   -0.31714E-01   -0.32038E-02  5162   0.150E-01    0.742E-01
RMM:   5    -0.413197957705E+03    0.32069E-01   -0.16212E-02  4803   0.124E-01    0.446E-02
RMM:   6    -0.413198012000E+03   -0.54296E-04   -0.25471E-03  5858   0.477E-02    0.271E-02
RMM:   7    -0.413198017019E+03   -0.50187E-05   -0.28912E-04  5706   0.156E-02    0.144E-02
RMM:   8    -0.413198008207E+03    0.88123E-05   -0.48025E-05  4923   0.698E-03    0.875E-03
RMM:   9    -0.413198005103E+03    0.31035E-05   -0.18133E-05  4396   0.456E-03    0.674E-03
RMM:  10    -0.413197997950E+03    0.71532E-05   -0.24740E-06  2616   0.250E-03    0.386E-03
RMM:  11    -0.413197993263E+03    0.46875E-05   -0.14121E-06  2506   0.189E-03    0.234E-03
RMM:  12    -0.413197982704E+03    0.10559E-04   -0.14780E-06  2497   0.205E-03    0.104E-03
RMM:  13    -0.413197979028E+03    0.36761E-05   -0.50857E-07  2338   0.130E-03    0.663E-04
RMM:  14    -0.413197978857E+03    0.17055E-06   -0.20773E-07  1815   0.835E-04
   36 T=    68. E= -.41286623E+03 F= -.41319798E+03 E0= -.41317672E+03  EK= 0.33175E+00 SP= 0.00E+00 SK= 0.00E+00
       N       E                     dE             d eps       ncg     rms          rms(c)
RMM:   1    -0.413199329821E+03   -0.13508E-02   -0.11557E+01  4305   0.102E+00    0.923E-01
RMM:   2    -0.413203936096E+03   -0.46063E-02   -0.15598E-01  4258   0.137E-01    0.674E-01
RMM:   3    -0.413201454229E+03    0.24819E-02   -0.86771E-03  4664   0.548E-02    0.168E-01
RMM:   4    -0.413227832178E+03   -0.26378E-01   -0.26588E-02  5163   0.137E-01    0.679E-01
RMM:   5    -0.413201181373E+03    0.26651E-01   -0.13492E-02  4807   0.113E-01    0.420E-02
RMM:   6    -0.413201212678E+03   -0.31306E-04   -0.21316E-03  5852   0.436E-02    0.258E-02
RMM:   7    -0.413201221135E+03   -0.84567E-05   -0.27709E-04  5736   0.151E-02    0.148E-02
RMM:   8    -0.413201211833E+03    0.93025E-05   -0.55434E-05  5014   0.762E-03    0.876E-03
RMM:   9    -0.413201208875E+03    0.29581E-05   -0.14264E-05  4159   0.441E-03    0.554E-03
RMM:  10    -0.413201204385E+03    0.44896E-05   -0.19933E-06  2582   0.220E-03    0.338E-03
RMM:  11    -0.413201200689E+03    0.36955E-05   -0.11245E-06  2494   0.170E-03    0.189E-03
RMM:  12    -0.413201193998E+03    0.66919E-05   -0.11342E-06  2492   0.171E-03    0.826E-04
RMM:  13    -0.413201191473E+03    0.25247E-05   -0.40068E-07  2220   0.112E-03    0.514E-04
RMM:  14    -0.413201191121E+03    0.35136E-06   -0.17999E-07  1578   0.765E-04
   37 T=    68. E= -.41286672E+03 F= -.41320119E+03 E0= -.41317997E+03  EK= 0.33447E+00 SP= 0.00E+00 SK= 0.00E+00
       N       E                     dE             d eps       ncg     rms          rms(c)
RMM:   1    -0.413200224081E+03    0.96739E-03   -0.11665E+01  4306   0.101E+00    0.943E-01
RMM:   2    -0.413206540726E+03   -0.63166E-02   -0.15454E-01  4258   0.129E-01    0.679E-01
RMM:   3    -0.413203875363E+03    0.26654E-02   -0.90426E-03  4739   0.530E-02    0.172E-01
RMM:   4    -0.413234086178E+03   -0.30211E-01   -0.30539E-02  5153   0.146E-01    0.725E-01
RMM:   5    -0.413203531783E+03    0.30554E-01   -0.15519E-02  4807   0.121E-01    0.440E-02
RMM:   6    -0.413203573205E+03   -0.41422E-04   -0.23785E-03  5839   0.463E-02    0.270E-02
RMM:   7    -0.413203582633E+03   -0.94280E-05   -0.31612E-04  5769   0.161E-02    0.159E-02
RMM:   8    -0.413203571597E+03    0.11036E-04   -0.60599E-05  5049   0.796E-03    0.918E-03
RMM:   9    -0.413203567534E+03    0.40635E-05   -0.15340E-05  4231   0.454E-03    0.567E-03
RMM:  10    -0.413203561949E+03    0.55844E-05   -0.22574E-06  2610   0.227E-03    0.347E-03
RMM:  11    -0.413203557463E+03    0.44865E-05   -0.11467E-06  2502   0.172E-03    0.196E-03
RMM:  12    -0.413203549147E+03    0.83163E-05   -0.11200E-06  2489   0.174E-03    0.851E-04
RMM:  13    -0.413203545774E+03    0.33720E-05   -0.41976E-07  2259   0.115E-03    0.562E-04
RMM:  14    -0.413203545384E+03    0.39022E-06   -0.18732E-07  1661   0.782E-04
   38 T=    69. E= -.41286655E+03 F= -.41320355E+03 E0= -.41318237E+03  EK= 0.33700E+00 SP= 0.00E+00 SK= 0.00E+00
       N       E                     dE             d eps       ncg     rms          rms(c)
RMM:   1    -0.413221065093E+03   -0.17519E-01   -0.11883E+01  4306   0.113E+00    0.956E-01
RMM:   2    -0.413208522457E+03    0.12543E-01   -0.17095E-01  4263   0.129E-01    0.674E-01
RMM:   3    -0.413206762870E+03    0.17596E-02   -0.91536E-03  4952   0.523E-02    0.216E-01
RMM:   4    -0.413256283877E+03   -0.49521E-01   -0.52064E-02  5142   0.190E-01    0.922E-01
RMM:   5    -0.413205873425E+03    0.50410E-01   -0.25159E-02  4790   0.155E-01    0.537E-02
RMM:   6    -0.413206017617E+03   -0.14419E-03   -0.40040E-03  5839   0.592E-02    0.308E-02
RMM:   7    -0.413206029077E+03   -0.11460E-04   -0.43042E-04  5757   0.184E-02    0.173E-02
RMM:   8    -0.413206021263E+03    0.78137E-05   -0.62761E-05  4984   0.742E-03    0.964E-03
RMM:   9    -0.413206012748E+03    0.85151E-05   -0.22166E-05  4494   0.482E-03    0.685E-03
RMM:  10    -0.413206006955E+03    0.57927E-05   -0.50859E-06  2967   0.297E-03    0.395E-03
RMM:  11    -0.413206000463E+03    0.64928E-05   -0.18290E-06  2526   0.216E-03    0.234E-03
RMM:  12    -0.413205988619E+03    0.11843E-04   -0.13253E-06  2493   0.198E-03    0.748E-04
RMM:  13    -0.413205984545E+03    0.40741E-05   -0.50165E-07  2378   0.128E-03    0.630E-04
RMM:  14    -0.413205983945E+03    0.60043E-06   -0.22040E-07  1942   0.859E-04
   39 T=    69. E= -.41286642E+03 F= -.41320598E+03 E0= -.41318485E+03  EK= 0.33956E+00 SP= 0.00E+00 SK= 0.00E+00
       N       E                     dE             d eps       ncg     rms          rms(c)
RMM:   1    -0.413207226556E+03   -0.12420E-02   -0.11726E+01  4307   0.110E+00    0.934E-01
RMM:   2    -0.413211959384E+03   -0.47328E-02   -0.15917E-01  4263   0.131E-01    0.678E-01
RMM:   3    -0.413209930338E+03    0.20290E-02   -0.93646E-03  4980   0.557E-02    0.210E-01
RMM:   4    -0.413261856982E+03   -0.51927E-01   -0.56160E-02  5133   0.197E-01    0.945E-01
RMM:   5    -0.413208749188E+03    0.53108E-01   -0.26155E-02  4786   0.159E-01    0.543E-02
RMM:   6    -0.413208906159E+03   -0.15697E-03   -0.41535E-03  5825   0.604E-02    0.302E-02
RMM:   7    -0.413208921411E+03   -0.15251E-04   -0.45451E-04  5800   0.187E-02    0.178E-02
RMM:   8    -0.413208920435E+03    0.97528E-06   -0.83429E-05  5203   0.854E-03    0.115E-02
RMM:   9    -0.413208910418E+03    0.10018E-04   -0.26176E-05  4634   0.544E-03    0.667E-03
RMM:  10    -0.413208905611E+03    0.48071E-05   -0.44670E-06  2801   0.292E-03    0.389E-03
RMM:  11    -0.413208901387E+03    0.42239E-05   -0.17365E-06  2515   0.213E-03    0.229E-03
RMM:  12    -0.413208893852E+03    0.75351E-05   -0.12429E-06  2497   0.189E-03    0.720E-04
RMM:  13    -0.413208890534E+03    0.33178E-05   -0.51277E-07  2363   0.127E-03    0.532E-04
RMM:  14    -0.413208889311E+03    0.12228E-05   -0.22674E-07  1924   0.862E-04    0.344E-04
RMM:  15    -0.413208885582E+03    0.37291E-05   -0.13301E-07  1415   0.722E-04    0.153E-04
RMM:  16    -0.413208883029E+03    0.25533E-05   -0.80384E-08  1143   0.644E-04    0.121E-04
RMM:  17    -0.413208880585E+03    0.24435E-05   -0.59174E-08  1070   0.618E-04    0.918E-05
RMM:  18    -0.413208876855E+03    0.37298E-05   -0.60971E-08  1228   0.633E-04    0.711E-05
RMM:  19    -0.413208875372E+03    0.14837E-05   -0.33907E-08   985   0.570E-04    0.514E-05
RMM:  20    -0.413208874738E+03    0.63349E-06   -0.19153E-08   799   0.535E-04
   40 T=    70. E= -.41286664E+03 F= -.41320887E+03 E0= -.41318777E+03  EK= 0.34223E+00 SP= 0.00E+00 SK= 0.00E+00
       N       E                     dE             d eps       ncg     rms          rms(c)
RMM:   1    -0.413232688540E+03   -0.23813E-01   -0.12099E+01  4308   0.127E+00    0.945E-01
RMM:   2    -0.413213840412E+03    0.18848E-01   -0.18064E-01  4273   0.144E-01    0.691E-01
RMM:   3    -0.413212718087E+03    0.11223E-02   -0.98868E-03  5047   0.617E-02    0.264E-01
RMM:   4    -0.413268428576E+03   -0.55710E-01   -0.64911E-02  5127   0.212E-01    0.985E-01
RMM:   5    -0.413210608825E+03    0.57820E-01   -0.27841E-02  4778   0.166E-01    0.595E-02
RMM:   6    -0.413210775461E+03   -0.16664E-03   -0.44664E-03  5803   0.630E-02    0.309E-02
RMM:   7    -0.413210793766E+03   -0.18306E-04   -0.52837E-04  5882   0.199E-02    0.210E-02
RMM:   8    -0.413210793645E+03    0.12122E-06   -0.11169E-04  5280   0.101E-02    0.129E-02
RMM:   9    -0.413210781651E+03    0.11994E-04   -0.23843E-05  4555   0.564E-03    0.552E-03
RMM:  10    -0.413210777899E+03    0.37515E-05   -0.53178E-06  2894   0.288E-03    0.340E-03
RMM:  11    -0.413210774707E+03    0.31920E-05   -0.14444E-06  2505   0.196E-03    0.194E-03
RMM:  12    -0.413210769721E+03    0.49861E-05   -0.88819E-07  2477   0.160E-03    0.663E-04
RMM:  13    -0.413210766914E+03    0.28072E-05   -0.43135E-07  2273   0.113E-03    0.336E-04
RMM:  14    -0.413210765197E+03    0.17174E-05   -0.22238E-07  1789   0.832E-04    0.237E-04
RMM:  15    -0.413210762180E+03    0.30170E-05   -0.13598E-07  1303   0.706E-04    0.112E-04
RMM:  16    -0.413210760430E+03    0.17496E-05   -0.85529E-08  1118   0.651E-04    0.758E-05
RMM:  17    -0.413210758470E+03    0.19601E-05   -0.66749E-08  1102   0.634E-04    0.613E-05
RMM:  18    -0.413210756378E+03    0.20917E-05   -0.52644E-08  1060   0.620E-04    0.303E-05
RMM:  19    -0.413210754795E+03    0.15838E-05   -0.38720E-08  1006   0.598E-04    0.262E-05
RMM:  20    -0.413210754257E+03    0.53788E-06   -0.21100E-08   810   0.562E-04
   41 T=    70. E= -.41286631E+03 F= -.41321075E+03 E0= -.41318969E+03  EK= 0.34445E+00 SP= 0.00E+00 SK= 0.00E+00
       N       E                     dE             d eps       ncg     rms          rms(c)
RMM:   1    -0.413220847366E+03   -0.10093E-01   -0.11999E+01  4309   0.126E+00    0.970E-01
RMM:   2    -0.413215550388E+03    0.52970E-02   -0.16538E-01  4287   0.142E-01    0.683E-01
RMM:   3    -0.413216960094E+03   -0.14097E-02   -0.12229E-02  5096   0.745E-02    0.315E-01
RMM:   4    -0.413252967545E+03   -0.36007E-01   -0.52120E-02  5096   0.192E-01    0.826E-01
RMM:   5    -0.413213139308E+03    0.39828E-01   -0.17784E-02  4737   0.138E-01    0.567E-02
RMM:   6    -0.413213201516E+03   -0.62208E-04   -0.30325E-03  5757   0.522E-02    0.303E-02
RMM:   7    -0.413213209308E+03   -0.77916E-05   -0.40846E-04  5813   0.180E-02    0.205E-02
RMM:   8    -0.413213204591E+03    0.47169E-05   -0.10102E-04  5187   0.999E-03    0.114E-02
RMM:   9    -0.413213190594E+03    0.13997E-04   -0.19292E-05  4369   0.534E-03    0.446E-03
RMM:  10    -0.413213185272E+03    0.53221E-05   -0.39378E-06  2772   0.255E-03    0.276E-03
RMM:  11    -0.413213179287E+03    0.59855E-05   -0.12163E-06  2499   0.181E-03    0.149E-03
RMM:  12    -0.413213171709E+03    0.75773E-05   -0.64912E-07  2426   0.141E-03    0.564E-04
RMM:  13    -0.413213167615E+03    0.40939E-05   -0.32240E-07  2025   0.980E-04    0.271E-04
RMM:  14    -0.413213164485E+03    0.31303E-05   -0.17766E-07  1490   0.766E-04    0.163E-04
RMM:  15    -0.413213158344E+03    0.61410E-05   -0.13620E-07  1353   0.722E-04    0.127E-04
RMM:  16    -0.413213156313E+03    0.20308E-05   -0.85712E-08  1168   0.655E-04    0.791E-05
RMM:  17    -0.413213152368E+03    0.39455E-05   -0.80889E-08  1351   0.660E-04    0.647E-05
RMM:  18    -0.413213149855E+03    0.25132E-05   -0.53344E-08  1103   0.598E-04    0.350E-05
RMM:  19    -0.413213148593E+03    0.12616E-05   -0.34249E-08   921   0.559E-04    0.266E-05
RMM:  20    -0.413213148317E+03    0.27569E-06   -0.20487E-08   764   0.534E-04
   42 T=    71. E= -.41286639E+03 F= -.41321315E+03 E0= -.41319211E+03  EK= 0.34676E+00 SP= 0.00E+00 SK= 0.00E+00
       N       E                     dE             d eps       ncg     rms          rms(c)
RMM:   1    -0.413217110673E+03   -0.39621E-02   -0.11895E+01  4311   0.128E+00    0.946E-01
RMM:   2    -0.413217462797E+03   -0.35212E-03   -0.16546E-01  4291   0.149E-01    0.682E-01
RMM:   3    -0.413220128575E+03   -0.26658E-02   -0.13109E-02  5095   0.831E-02    0.350E-01
RMM:   4    -0.413250564086E+03   -0.30436E-01   -0.50279E-02  5070   0.190E-01    0.782E-01
RMM:   5    -0.413215035313E+03    0.35529E-01   -0.15313E-02  4710   0.130E-01    0.555E-02
RMM:   6    -0.413215067987E+03   -0.32674E-04   -0.26415E-03  5728   0.491E-02    0.293E-02
RMM:   7    -0.413215072698E+03   -0.47111E-05   -0.35661E-04  5800   0.172E-02    0.202E-02
RMM:   8    -0.413215068342E+03    0.43565E-05   -0.93101E-05  5152   0.971E-03    0.105E-02
RMM:   9    -0.413215056673E+03    0.11669E-04   -0.18129E-05  4296   0.523E-03    0.405E-03
RMM:  10    -0.413215053069E+03    0.36043E-05   -0.34540E-06  2746   0.242E-03    0.246E-03
RMM:  11    -0.413215048322E+03    0.47462E-05   -0.12138E-06  2496   0.178E-03    0.134E-03
RMM:  12    -0.413215043177E+03    0.51451E-05   -0.59774E-07  2416   0.134E-03    0.546E-04
RMM:  13    -0.413215040226E+03    0.29513E-05   -0.29453E-07  1882   0.924E-04    0.252E-04
RMM:  14    -0.413215037492E+03    0.27337E-05   -0.17380E-07  1428   0.751E-04    0.143E-04
RMM:  15    -0.413215032963E+03    0.45294E-05   -0.14051E-07  1323   0.717E-04    0.108E-04
RMM:  16    -0.413215031300E+03    0.16628E-05   -0.84318E-08  1123   0.648E-04    0.783E-05
RMM:  17    -0.413215027828E+03    0.34725E-05   -0.81929E-08  1306   0.658E-04    0.605E-05
RMM:  18    -0.413215025857E+03    0.19707E-05   -0.52062E-08  1075   0.593E-04    0.390E-05
RMM:  19    -0.413215024937E+03    0.92012E-06   -0.29446E-08   844   0.549E-04
   43 T=    71. E= -.41286628E+03 F= -.41321502E+03 E0= -.41319402E+03  EK= 0.34874E+00 SP= 0.00E+00 SK= 0.00E+00
       N       E                     dE             d eps       ncg     rms          rms(c)
RMM:   1    -0.413246492110E+03   -0.31466E-01   -0.12291E+01  4311   0.147E+00    0.946E-01
RMM:   2    -0.413218960157E+03    0.27532E-01   -0.20203E-01  4294   0.172E-01    0.701E-01
RMM:   3    -0.413222424179E+03   -0.34640E-02   -0.13374E-02  5092   0.902E-02    0.402E-01
RMM:   4    -0.413252256822E+03   -0.29833E-01   -0.53154E-02  5062   0.196E-01    0.794E-01
RMM:   5    -0.413216140541E+03    0.36116E-01   -0.15758E-02  4706   0.134E-01    0.596E-02
RMM:   6    -0.413216156779E+03   -0.16238E-04   -0.26840E-03  5694   0.495E-02    0.299E-02
RMM:   7    -0.413216162313E+03   -0.55333E-05   -0.36684E-04  5866   0.173E-02    0.212E-02
RMM:   8    -0.413216158416E+03    0.38969E-05   -0.91916E-05  5166   0.965E-03    0.107E-02
RMM:   9    -0.413216147862E+03    0.10553E-04   -0.20936E-05  4390   0.555E-03    0.415E-03
RMM:  10    -0.413216145276E+03    0.25867E-05   -0.37168E-06  2746   0.244E-03    0.240E-03
RMM:  11    -0.413216141558E+03    0.37177E-05   -0.16806E-06  2545   0.195E-03    0.143E-03
RMM:  12    -0.413216138430E+03    0.31280E-05   -0.61564E-07  2452   0.139E-03    0.642E-04
RMM:  13    -0.413216136097E+03    0.23334E-05   -0.31616E-07  1764   0.926E-04    0.288E-04
RMM:  14    -0.413216133725E+03    0.23718E-05   -0.20556E-07  1442   0.783E-04    0.152E-04
RMM:  15    -0.413216130905E+03    0.28199E-05   -0.15852E-07  1361   0.726E-04    0.960E-05
RMM:  16    -0.413216129016E+03    0.18894E-05   -0.10619E-07  1224   0.663E-04    0.682E-05
RMM:  17    -0.413216126867E+03    0.21486E-05   -0.85113E-08  1229   0.636E-04    0.486E-05
RMM:  18    -0.413216124727E+03    0.21403E-05   -0.63032E-08  1081   0.598E-04    0.379E-05
RMM:  19    -0.413216124177E+03    0.54985E-06   -0.32266E-08   818   0.546E-04
   44 T=    71. E= -.41286590E+03 F= -.41321612E+03 E0= -.41319514E+03  EK= 0.35022E+00 SP= 0.00E+00 SK= 0.00E+00
       N       E                     dE             d eps       ncg     rms          rms(c)
RMM:   1    -0.413226764596E+03   -0.10640E-01   -0.12094E+01  4310   0.147E+00    0.975E-01
RMM:   2    -0.413219796090E+03    0.69685E-02   -0.17073E-01  4328   0.173E-01    0.691E-01
RMM:   3    -0.413229472115E+03   -0.96760E-02   -0.19561E-02  5134   0.113E-01    0.495E-01
RMM:   4    -0.413236629471E+03   -0.71574E-02   -0.40959E-02  5023   0.176E-01    0.583E-01
RMM:   5    -0.413217761019E+03    0.18868E-01   -0.70065E-03  4601   0.993E-02    0.515E-02
RMM:   6    -0.413217725931E+03    0.35087E-04   -0.13749E-03  5471   0.360E-02    0.277E-02
RMM:   7    -0.413217722919E+03    0.30124E-05   -0.21024E-04  5611   0.142E-02    0.189E-02
RMM:   8    -0.413217714550E+03    0.83689E-05   -0.92498E-05  5080   0.986E-03    0.911E-03
RMM:   9    -0.413217700745E+03    0.13805E-04   -0.14255E-05  4162   0.510E-03    0.369E-03
RMM:  10    -0.413217697000E+03    0.37450E-05   -0.23128E-06  2645   0.211E-03    0.210E-03
RMM:  11    -0.413217689937E+03    0.70626E-05   -0.11291E-06  2488   0.171E-03    0.119E-03
RMM:  12    -0.413217684221E+03    0.57159E-05   -0.49328E-07  2386   0.124E-03    0.586E-04
RMM:  13    -0.413217680530E+03    0.36910E-05   -0.22637E-07  1680   0.831E-04    0.286E-04
RMM:  14    -0.413217676801E+03    0.37291E-05   -0.13092E-07  1266   0.685E-04    0.148E-04
RMM:  15    -0.413217671561E+03    0.52396E-05   -0.10890E-07  1220   0.674E-04    0.119E-04
RMM:  16    -0.413217668969E+03    0.25921E-05   -0.68984E-08  1088   0.618E-04    0.105E-04
RMM:  17    -0.413217665365E+03    0.36043E-05   -0.60828E-08  1159   0.614E-04    0.586E-05
RMM:  18    -0.413217661976E+03    0.33884E-05   -0.49436E-08  1117   0.590E-04    0.497E-05
RMM:  19    -0.413217661509E+03    0.46736E-06   -0.20958E-08   751   0.514E-04
   45 T=    72. E= -.41286618E+03 F= -.41321766E+03 E0= -.41319670E+03  EK= 0.35148E+00 SP= 0.00E+00 SK= 0.00E+00
       N       E                     dE             d eps       ncg     rms          rms(c)
RMM:   1    -0.413237025731E+03   -0.19364E-01   -0.12087E+01  4309   0.159E+00    0.957E-01
RMM:   2    -0.413219784557E+03    0.17241E-01   -0.17790E-01  4350   0.186E-01    0.687E-01
RMM:   3    -0.413232152634E+03   -0.12368E-01   -0.21595E-02  5133   0.123E-01    0.548E-01
RMM:   4    -0.413233426230E+03   -0.12736E-02   -0.40032E-02  5013   0.175E-01    0.540E-01
RMM:   5    -0.413217695023E+03    0.15731E-01   -0.58738E-03  4571   0.945E-02    0.514E-02
RMM:   6    -0.413217637666E+03    0.57357E-04   -0.10605E-03  5282   0.328E-02    0.269E-02
RMM:   7    -0.413217632714E+03    0.49524E-05   -0.16375E-04  5601   0.127E-02    0.173E-02
RMM:   8    -0.413217627812E+03    0.49019E-05   -0.10227E-04  5139   0.102E-02    0.101E-02
RMM:   9    -0.413217612701E+03    0.15111E-04   -0.17430E-05  4348   0.554E-03    0.385E-03
RMM:  10    -0.413217609810E+03    0.28910E-05   -0.27720E-06  2691   0.221E-03    0.218E-03
RMM:  11    -0.413217603612E+03    0.61972E-05   -0.12469E-06  2482   0.180E-03    0.120E-03
RMM:  12    -0.413217599106E+03    0.45064E-05   -0.52391E-07  2391   0.129E-03    0.663E-04
RMM:  13    -0.413217595482E+03    0.36236E-05   -0.24016E-07  1707   0.872E-04    0.332E-04
RMM:  14    -0.413217591853E+03    0.36295E-05   -0.12868E-07  1293   0.698E-04    0.168E-04
RMM:  15    -0.413217587599E+03    0.42540E-05   -0.97804E-08  1164   0.661E-04    0.118E-04
RMM:  16    -0.413217585319E+03    0.22801E-05   -0.58510E-08   976   0.601E-04    0.106E-04
RMM:  17    -0.413217582102E+03    0.32164E-05   -0.56014E-08  1068   0.599E-04    0.577E-05
RMM:  18    -0.413217579000E+03    0.31028E-05   -0.47590E-08  1042   0.584E-04    0.460E-05
RMM:  19    -0.413217578425E+03    0.57494E-06   -0.18135E-08   683   0.510E-04
   46 T=    72. E= -.41286598E+03 F= -.41321758E+03 E0= -.41319664E+03  EK= 0.35160E+00 SP= 0.00E+00 SK= 0.00E+00
       N       E                     dE             d eps       ncg     rms          rms(c)
RMM:   1    -0.413240764844E+03   -0.23186E-01   -0.12140E+01  4310   0.168E+00    0.945E-01
RMM:   2    -0.413219368890E+03    0.21396E-01   -0.19210E-01  4360   0.200E-01    0.701E-01
RMM:   3    -0.413232222751E+03   -0.12854E-01   -0.22072E-02  5138   0.129E-01    0.571E-01
RMM:   4    -0.413233630271E+03   -0.14075E-02   -0.42709E-02  5006   0.181E-01    0.560E-01
RMM:   5    -0.413216645911E+03    0.16984E-01   -0.65212E-03  4572   0.995E-02    0.540E-02
RMM:   6    -0.413216577119E+03    0.68792E-04   -0.11379E-03  5272   0.343E-02    0.274E-02
RMM:   7    -0.413216572066E+03    0.50528E-05   -0.17721E-04  5678   0.131E-02    0.185E-02
RMM:   8    -0.413216567469E+03    0.45971E-05   -0.10639E-04  5168   0.104E-02    0.104E-02
RMM:   9    -0.413216553234E+03    0.14235E-04   -0.19086E-05  4409   0.579E-03    0.400E-03
RMM:  10    -0.413216551210E+03    0.20241E-05   -0.29864E-06  2717   0.227E-03    0.228E-03
RMM:  11    -0.413216547101E+03    0.41087E-05   -0.14398E-06  2498   0.189E-03    0.131E-03
RMM:  12    -0.413216544115E+03    0.29868E-05   -0.57176E-07  2410   0.135E-03    0.711E-04
RMM:  13    -0.413216541392E+03    0.27227E-05   -0.27595E-07  1752   0.917E-04    0.343E-04
RMM:  14    -0.413216538802E+03    0.25899E-05   -0.16110E-07  1408   0.736E-04    0.182E-04
RMM:  15    -0.413216535856E+03    0.29457E-05   -0.11728E-07  1169   0.667E-04    0.115E-04
RMM:  16    -0.413216533960E+03    0.18965E-05   -0.74426E-08  1030   0.613E-04    0.982E-05
RMM:  17    -0.413216531989E+03    0.19712E-05   -0.58648E-08  1010   0.592E-04    0.566E-05
RMM:  18    -0.413216529662E+03    0.23262E-05   -0.52555E-08   982   0.586E-04    0.395E-05
RMM:  19    -0.413216529196E+03    0.46639E-06   -0.20836E-08   680   0.525E-04
   47 T=    71. E= -.41286593E+03 F= -.41321653E+03 E0= -.41319560E+03  EK= 0.35060E+00 SP= 0.00E+00 SK= 0.00E+00
       N       E                     dE             d eps       ncg     rms          rms(c)
RMM:   1    -0.413261613734E+03   -0.45084E-01   -0.12288E+01  4304   0.186E+00    0.968E-01
RMM:   2    -0.413216757286E+03    0.44856E-01   -0.19958E-01  4426   0.207E-01    0.696E-01
RMM:   3    -0.413237934209E+03   -0.21177E-01   -0.29339E-02  5150   0.150E-01    0.687E-01
RMM:   4    -0.413224540419E+03    0.13394E-01   -0.39591E-02  4968   0.179E-01    0.453E-01
RMM:   5    -0.413214617763E+03    0.99227E-02   -0.47234E-03  4528   0.901E-02    0.575E-02
RMM:   6    -0.413214475681E+03    0.14208E-03   -0.52206E-04  4775   0.288E-02    0.287E-02
RMM:   7    -0.413214475560E+03    0.12079E-06   -0.20512E-04  5913   0.146E-02    0.187E-02
RMM:   8    -0.413214457541E+03    0.18019E-04   -0.90734E-05  5124   0.104E-02    0.102E-02
RMM:   9    -0.413214447092E+03    0.10449E-04   -0.14300E-05  4149   0.509E-03    0.479E-03
RMM:  10    -0.413214442928E+03    0.41641E-05   -0.23026E-06  2584   0.240E-03    0.239E-03
RMM:  11    -0.413214437293E+03    0.56348E-05   -0.18252E-06  2543   0.207E-03    0.170E-03
RMM:  12    -0.413214433408E+03    0.38854E-05   -0.55830E-07  2395   0.139E-03    0.891E-04
RMM:  13    -0.413214429175E+03    0.42331E-05   -0.27857E-07  1805   0.920E-04    0.464E-04
RMM:  14    -0.413214423620E+03    0.55542E-05   -0.23877E-07  1980   0.847E-04    0.451E-04
RMM:  15    -0.413214420098E+03    0.35219E-05   -0.10474E-07  1060   0.600E-04    0.205E-04
RMM:  16    -0.413214417141E+03    0.29577E-05   -0.76824E-08  1023   0.588E-04    0.995E-05
RMM:  17    -0.413214414340E+03    0.28012E-05   -0.62941E-08  1041   0.586E-04    0.596E-05
RMM:  18    -0.413214411924E+03    0.24152E-05   -0.48801E-08  1003   0.568E-04    0.814E-05
RMM:  19    -0.413214410859E+03    0.10650E-05   -0.24137E-08   741   0.519E-04    0.689E-05
RMM:  20    -0.413214409916E+03    0.94371E-06   -0.21035E-08   774   0.519E-04
   48 T=    71. E= -.41286623E+03 F= -.41321441E+03 E0= -.41319350E+03  EK= 0.34818E+00 SP= 0.00E+00 SK= 0.00E+00
       N       E                     dE             d eps       ncg     rms          rms(c)
RMM:   1    -0.413261019463E+03   -0.46609E-01   -0.12090E+01  4304   0.199E+00    0.957E-01
RMM:   2    -0.413211935301E+03    0.49084E-01   -0.19509E-01  4488   0.218E-01    0.685E-01
RMM:   3    -0.413240629625E+03   -0.28694E-01   -0.35972E-02  5155   0.168E-01    0.775E-01
RMM:   4    -0.413216476329E+03    0.24153E-01   -0.39359E-02  4938   0.181E-01    0.387E-01
RMM:   5    -0.413209965967E+03    0.65104E-02   -0.48403E-03  4740   0.911E-02    0.685E-02
RMM:   6    -0.413209724979E+03    0.24099E-03   -0.49840E-04  4663   0.312E-02    0.325E-02
RMM:   7    -0.413209722507E+03    0.24716E-05   -0.19444E-04  5738   0.151E-02    0.227E-02
RMM:   8    -0.413209696591E+03    0.25917E-04   -0.65108E-05  4954   0.902E-03    0.913E-03
RMM:   9    -0.413209686596E+03    0.99943E-05   -0.13721E-05  3794   0.455E-03    0.414E-03
RMM:  10    -0.413209681516E+03    0.50803E-05   -0.20766E-06  2584   0.225E-03    0.247E-03
RMM:  11    -0.413209674366E+03    0.71504E-05   -0.86439E-07  2487   0.154E-03    0.140E-03
RMM:  12    -0.413209670532E+03    0.38337E-05   -0.36104E-07  2232   0.104E-03    0.687E-04
RMM:  13    -0.413209664426E+03    0.61061E-05   -0.34036E-07  1978   0.938E-04    0.398E-04
RMM:  14    -0.413209660509E+03    0.39171E-05   -0.17574E-07  1298   0.731E-04    0.260E-04
RMM:  15    -0.413209655719E+03    0.47902E-05   -0.14970E-07  1273   0.708E-04    0.124E-04
RMM:  16    -0.413209653187E+03    0.25320E-05   -0.98016E-08  1212   0.644E-04    0.985E-05
RMM:  17    -0.413209649362E+03    0.38247E-05   -0.91247E-08  1353   0.645E-04    0.824E-05
RMM:  18    -0.413209648649E+03    0.71309E-06   -0.43521E-08   930   0.535E-04
   49 T=    70. E= -.41286598E+03 F= -.41320965E+03 E0= -.41318875E+03  EK= 0.34367E+00 SP= 0.00E+00 SK= 0.00E+00
       N       E                     dE             d eps       ncg     rms          rms(c)
RMM:   1    -0.413230842940E+03   -0.21194E-01   -0.11630E+01  4304   0.198E+00    0.926E-01
RMM:   2    -0.413206632790E+03    0.24210E-01   -0.19338E-01  4505   0.227E-01    0.689E-01
RMM:   3    -0.413234932411E+03   -0.28300E-01   -0.35571E-02  5154   0.169E-01    0.781E-01
RMM:   4    -0.413210929079E+03    0.24003E-01   -0.40344E-02  4935   0.184E-01    0.392E-01
RMM:   5    -0.413204066641E+03    0.68624E-02   -0.52942E-03  4778   0.944E-02    0.720E-02
RMM:   6    -0.413203789076E+03    0.27756E-03   -0.52886E-04  4649   0.326E-02    0.331E-02
RMM:   7    -0.413203784660E+03    0.44158E-05   -0.19618E-04  5736   0.152E-02    0.227E-02
RMM:   8    -0.413203760644E+03    0.24016E-04   -0.65012E-05  5007   0.884E-03    0.954E-03
RMM:   9    -0.413203752428E+03    0.82159E-05   -0.14726E-05  3822   0.467E-03    0.416E-03
RMM:  10    -0.413203748424E+03    0.40045E-05   -0.22924E-06  2603   0.232E-03    0.255E-03
RMM:  11    -0.413203743388E+03    0.50356E-05   -0.85305E-07  2491   0.154E-03    0.138E-03
[...]
RMM:   2    -0.413163328708E+03   -0.50782E-02   -0.10088E-01  4328   0.926E-02    0.614E-01
RMM:   3    -0.413161829652E+03    0.14991E-02   -0.13865E-02  5064   0.563E-02    0.167E-01
RMM:   4    -0.413194427890E+03   -0.32598E-01   -0.39068E-02  5123   0.166E-01    0.761E-01
RMM:   5    -0.413160500049E+03    0.33928E-01   -0.15910E-02  4788   0.127E-01    0.577E-02
RMM:   6    -0.413160508277E+03   -0.82283E-05   -0.26801E-03  5666   0.504E-02    0.308E-02
RMM:   7    -0.413160544494E+03   -0.36217E-04   -0.42340E-04  5938   0.183E-02    0.197E-02
RMM:   8    -0.413160552914E+03   -0.84198E-05   -0.86956E-05  5264   0.997E-03    0.954E-03
RMM:   9    -0.413160556708E+03   -0.37936E-05   -0.11213E-05  3467   0.399E-03    0.442E-03
RMM:  10    -0.413160562721E+03   -0.60133E-05   -0.26216E-06  2629   0.229E-03    0.285E-03
RMM:  11    -0.413160569795E+03   -0.70738E-05   -0.14608E-06  2519   0.184E-03    0.147E-03
RMM:  12    -0.413160575019E+03   -0.52244E-05   -0.90161E-07  2460   0.144E-03    0.527E-04
RMM:  13    -0.413160577546E+03   -0.25267E-05   -0.46213E-07  2167   0.107E-03    0.319E-04
RMM:  14    -0.413160579175E+03   -0.16290E-05   -0.26032E-07  1698   0.842E-04    0.213E-04
RMM:  15    -0.413160581584E+03   -0.24095E-05   -0.23240E-07  1539   0.784E-04    0.122E-04
RMM:  16    -0.413160582799E+03   -0.12141E-05   -0.14037E-07  1348   0.692E-04    0.802E-05
RMM:  17    -0.413160583732E+03   -0.93388E-06   -0.10550E-07  1301   0.645E-04
  138 T=    60. E= -.41286659E+03 F= -.41316058E+03 E0= -.41313985E+03  EK= 0.29400E+00 SP= 0.00E+00 SK= 0.00E+00
       N       E                     dE             d eps       ncg     rms          rms(c)
RMM:   1    -0.413156733693E+03    0.38491E-02   -0.90545E+00  4267   0.823E-01    0.863E-01
RMM:   2    -0.413162514169E+03   -0.57805E-02   -0.10266E-01  4330   0.927E-02    0.604E-01
RMM:   3    -0.413160798958E+03    0.17152E-02   -0.11786E-02  5014   0.534E-02    0.156E-01
RMM:   4    -0.413193298260E+03   -0.32499E-01   -0.36912E-02  5132   0.161E-01    0.756E-01
RMM:   5    -0.413159872911E+03    0.33425E-01   -0.16053E-02  4801   0.126E-01    0.566E-02
RMM:   6    -0.413159894536E+03   -0.21625E-04   -0.27049E-03  5686   0.503E-02    0.312E-02
RMM:   7    -0.413159928489E+03   -0.33953E-04   -0.41953E-04  5946   0.180E-02    0.191E-02
RMM:   8    -0.413159935215E+03   -0.67263E-05   -0.83291E-05  5288   0.955E-03    0.943E-03
RMM:   9    -0.413159936352E+03   -0.11374E-05   -0.10219E-05  3427   0.384E-03    0.447E-03
RMM:  10    -0.413159940287E+03   -0.39341E-05   -0.27951E-06  2643   0.231E-03    0.289E-03
RMM:  11    -0.413159944005E+03   -0.37189E-05   -0.13737E-06  2510   0.180E-03    0.147E-03
RMM:  12    -0.413159946825E+03   -0.28190E-05   -0.91148E-07  2458   0.144E-03    0.527E-04
RMM:  13    -0.413159948057E+03   -0.12322E-05   -0.45150E-07  2155   0.107E-03    0.324E-04
RMM:  14    -0.413159948811E+03   -0.75463E-06   -0.25608E-07  1699   0.843E-04
  139 T=    60. E= -.41286656E+03 F= -.41315995E+03 E0= -.41313922E+03  EK= 0.29339E+00 SP= 0.00E+00 SK= 0.00E+00
       N       E                     dE             d eps       ncg     rms          rms(c)
RMM:   1    -0.413155644712E+03    0.43033E-02   -0.92604E+00  4269   0.833E-01    0.840E-01
RMM:   2    -0.413162950806E+03   -0.73061E-02   -0.10635E-01  4319   0.973E-02    0.603E-01
RMM:   3    -0.413160694315E+03    0.22565E-02   -0.10108E-02  4978   0.471E-02    0.126E-01
RMM:   4    -0.413189875944E+03   -0.29182E-01   -0.31220E-02  5140   0.147E-01    0.714E-01
RMM:   5    -0.413160201392E+03    0.29675E-01   -0.14593E-02  4812   0.119E-01    0.513E-02
RMM:   6    -0.413160224207E+03   -0.22815E-04   -0.24250E-03  5713   0.473E-02    0.284E-02
RMM:   7    -0.413160255277E+03   -0.31070E-04   -0.36630E-04  5941   0.168E-02    0.172E-02
RMM:   8    -0.413160266168E+03   -0.10891E-04   -0.71276E-05  5244   0.882E-03    0.863E-03
RMM:   9    -0.413160270363E+03   -0.41956E-05   -0.90720E-06  3307   0.356E-03    0.420E-03
RMM:  10    -0.413160277852E+03   -0.74883E-05   -0.25517E-06  2614   0.221E-03    0.275E-03
RMM:  11    -0.413160284846E+03   -0.69944E-05   -0.12512E-06  2509   0.171E-03    0.139E-03
RMM:  12    -0.413160291114E+03   -0.62680E-05   -0.91437E-07  2443   0.140E-03    0.507E-04
RMM:  13    -0.413160293803E+03   -0.26890E-05   -0.44429E-07  2085   0.103E-03    0.325E-04
RMM:  14    -0.413160295406E+03   -0.16034E-05   -0.24907E-07  1590   0.819E-04    0.196E-04
RMM:  15    -0.413160297435E+03   -0.20282E-05   -0.21221E-07  1431   0.766E-04    0.106E-04
RMM:  16    -0.413160298911E+03   -0.14759E-05   -0.16938E-07  1478   0.719E-04    0.975E-05
RMM:  17    -0.413160299445E+03   -0.53421E-06   -0.95758E-08  1167   0.618E-04
  140 T=    60. E= -.41286686E+03 F= -.41316030E+03 E0= -.41313958E+03  EK= 0.29344E+00 SP= 0.00E+00 SK= 0.00E+00
       N       E                     dE             d eps       ncg     rms          rms(c)
RMM:   1    -0.413154433697E+03    0.58652E-02   -0.95683E+00  4264   0.848E-01    0.848E-01
RMM:   2    -0.413162166053E+03   -0.77324E-02   -0.11041E-01  4322   0.972E-02    0.609E-01
RMM:   3    -0.413160318435E+03    0.18476E-02   -0.91339E-03  4992   0.421E-02    0.121E-01
RMM:   4    -0.413185559995E+03   -0.25242E-01   -0.26489E-02  5149   0.136E-01    0.664E-01
RMM:   5    -0.413159992297E+03    0.25568E-01   -0.12732E-02  4819   0.111E-01    0.475E-02
RMM:   6    -0.413160008099E+03   -0.15802E-04   -0.20786E-03  5713   0.440E-02    0.262E-02
RMM:   7    -0.413160040773E+03   -0.32674E-04   -0.31202E-04  5925   0.154E-02    0.156E-02
RMM:   8    -0.413160052879E+03   -0.12106E-04   -0.60601E-05  5191   0.809E-03    0.787E-03
RMM:   9    -0.413160057546E+03   -0.46667E-05   -0.75875E-06  3172   0.329E-03    0.388E-03
RMM:  10    -0.413160064867E+03   -0.73210E-05   -0.22436E-06  2587   0.211E-03    0.254E-03
RMM:  11    -0.413160072078E+03   -0.72115E-05   -0.11840E-06  2496   0.165E-03    0.127E-03
RMM:  12    -0.413160078297E+03   -0.62191E-05   -0.83610E-07  2418   0.134E-03    0.468E-04
RMM:  13    -0.413160080863E+03   -0.25662E-05   -0.39991E-07  1998   0.978E-04    0.307E-04
RMM:  14    -0.413160082620E+03   -0.17561E-05   -0.23519E-07  1510   0.796E-04    0.178E-04
RMM:  15    -0.413160084581E+03   -0.19620E-05   -0.20815E-07  1408   0.754E-04    0.987E-05
RMM:  16    -0.413160085987E+03   -0.14059E-05   -0.16424E-07  1416   0.717E-04    0.929E-05
RMM:  17    -0.413160086440E+03   -0.45210E-06   -0.94443E-08  1162   0.619E-04
  141 T=    60. E= -.41286650E+03 F= -.41316009E+03 E0= -.41313938E+03  EK= 0.29359E+00 SP= 0.00E+00 SK= 0.00E+00
       N       E                     dE             d eps       ncg     rms          rms(c)
RMM:   1    -0.413154084212E+03    0.60018E-02   -0.98028E+00  4264   0.856E-01    0.866E-01
RMM:   2    -0.413161640878E+03   -0.75567E-02   -0.11099E-01  4321   0.974E-02    0.599E-01
RMM:   3    -0.413160252811E+03    0.13881E-02   -0.82278E-03  4909   0.409E-02    0.130E-01
RMM:   4    -0.413179035983E+03   -0.18783E-01   -0.19324E-02  5160   0.116E-01    0.574E-01
RMM:   5    -0.413160105968E+03    0.18930E-01   -0.95886E-03  4826   0.958E-02    0.437E-02
RMM:   6    -0.413160107905E+03   -0.19370E-05   -0.15756E-03  5708   0.387E-02    0.253E-02
RMM:   7    -0.413160127562E+03   -0.19658E-04   -0.24425E-04  5848   0.139E-02    0.140E-02
RMM:   8    -0.413160133562E+03   -0.59997E-05   -0.48071E-05  5074   0.724E-03    0.697E-03
RMM:   9    -0.413160135048E+03   -0.14857E-05   -0.55746E-06  3006   0.287E-03    0.360E-03
RMM:  10    -0.413160138539E+03   -0.34913E-05   -0.17024E-06  2535   0.192E-03    0.227E-03
RMM:  11    -0.413160141679E+03   -0.31401E-05   -0.10490E-06  2477   0.153E-03    0.110E-03
RMM:  12    -0.413160143754E+03   -0.20746E-05   -0.70723E-07  2343   0.123E-03    0.414E-04
RMM:  13    -0.413160144477E+03   -0.72283E-06   -0.33493E-07  1879   0.915E-04
  142 T=    60. E= -.41286665E+03 F= -.41316014E+03 E0= -.41313945E+03  EK= 0.29349E+00 SP= 0.00E+00 SK= 0.00E+00
       N       E                     dE             d eps       ncg     rms          rms(c)
RMM:   1    -0.413153122616E+03    0.70211E-02   -0.98966E+00  4265   0.862E-01    0.843E-01
RMM:   2    -0.413161940125E+03   -0.88175E-02   -0.11371E-01  4310   0.101E-01    0.596E-01
RMM:   3    -0.413160301591E+03    0.16385E-02   -0.70990E-03  4693   0.396E-02    0.121E-01
RMM:   4    -0.413163902254E+03   -0.36007E-02   -0.41766E-03  5174   0.546E-02    0.255E-01
RMM:   5    -0.413160283237E+03    0.36190E-02   -0.18961E-03  4842   0.432E-02    0.318E-02
RMM:   6    -0.413160275633E+03    0.76039E-05   -0.38945E-04  5550   0.204E-02    0.206E-02
RMM:   7    -0.413160294532E+03   -0.18899E-04   -0.10084E-04  5507   0.957E-03    0.105E-02
RMM:   8    -0.413160300750E+03   -0.62183E-05   -0.23776E-05  4586   0.556E-03    0.476E-03
RMM:   9    -0.413160303479E+03   -0.27290E-05   -0.19644E-06  2629   0.200E-03    0.263E-03
RMM:  10    -0.413160308789E+03   -0.53094E-05   -0.89117E-07  2493   0.144E-03    0.145E-03
RMM:  11    -0.413160316153E+03   -0.73644E-05   -0.97268E-07  2421   0.131E-03    0.700E-04
RMM:  12    -0.413160318771E+03   -0.26179E-05   -0.38810E-07  1951   0.927E-04    0.327E-04
RMM:  13    -0.413160320643E+03   -0.18723E-05   -0.24011E-07  1407   0.764E-04    0.180E-04
RMM:  14    -0.413160322820E+03   -0.21772E-05   -0.29437E-07  1548   0.791E-04    0.157E-04
RMM:  15    -0.413160323712E+03   -0.89125E-06   -0.16374E-07  1374   0.682E-04
  143 T=    60. E= -.41286669E+03 F= -.41316032E+03 E0= -.41313964E+03  EK= 0.29364E+00 SP= 0.00E+00 SK= 0.00E+00
       N       E                     dE             d eps       ncg     rms          rms(c)
RMM:   1    -0.413152349736E+03    0.79731E-02   -0.10113E+01  4264   0.871E-01    0.843E-01
RMM:   2    -0.413161943656E+03   -0.95939E-02   -0.11816E-01  4314   0.102E-01    0.606E-01
RMM:   3    -0.413160212528E+03    0.17311E-02   -0.66723E-03  4684   0.385E-02    0.120E-01
RMM:   4    -0.413161467200E+03   -0.12547E-02   -0.19454E-03  5190   0.374E-02    0.152E-01
RMM:   5    -0.413160211063E+03    0.12561E-02   -0.69254E-04  4858   0.267E-02    0.280E-02
RMM:   6    -0.413160201655E+03    0.94073E-05   -0.19242E-04  5382   0.148E-02    0.169E-02
RMM:   7    -0.413160228996E+03   -0.27340E-04   -0.59821E-05  5288   0.779E-03    0.931E-03
RMM:   8    -0.413160238781E+03   -0.97855E-05   -0.15165E-05  4039   0.464E-03    0.414E-03
RMM:   9    -0.413160242005E+03   -0.32242E-05   -0.15628E-06  2538   0.198E-03    0.235E-03
RMM:  10    -0.413160248141E+03   -0.61354E-05   -0.99391E-07  2472   0.152E-03    0.130E-03
RMM:  11    -0.413160259469E+03   -0.11328E-04   -0.11796E-06  2447   0.141E-03    0.672E-04
RMM:  12    -0.413160262847E+03   -0.33779E-05   -0.38821E-07  1950   0.928E-04    0.323E-04
RMM:  13    -0.413160265396E+03   -0.25494E-05   -0.23115E-07  1377   0.745E-04    0.216E-04
RMM:  14    -0.413160269541E+03   -0.41446E-05   -0.42485E-07  1827   0.852E-04    0.199E-04
RMM:  15    -0.413160270282E+03   -0.74103E-06   -0.12828E-07  1178   0.597E-04
  144 T=    60. E= -.41286633E+03 F= -.41316027E+03 E0= -.41313959E+03  EK= 0.29394E+00 SP= 0.00E+00 SK= 0.00E+00
       N       E                     dE             d eps       ncg     rms          rms(c)
RMM:   1    -0.413152661293E+03    0.76082E-02   -0.10246E+01  4264   0.879E-01    0.865E-01
RMM:   2    -0.413161413262E+03   -0.87520E-02   -0.11715E-01  4316   0.102E-01    0.598E-01
RMM:   3    -0.413160479755E+03    0.93351E-03   -0.65073E-03  4725   0.366E-02    0.135E-01
RMM:   4    -0.413160926370E+03   -0.44661E-03   -0.11614E-03  5194   0.287E-02    0.911E-02
RMM:   5    -0.413160502950E+03    0.42342E-03   -0.28206E-04  4899   0.178E-02    0.297E-02
RMM:   6    -0.413160483991E+03    0.18959E-04   -0.13487E-04  5217   0.126E-02    0.165E-02
RMM:   7    -0.413160498258E+03   -0.14267E-04   -0.41190E-05  5024   0.699E-03    0.833E-03
RMM:   8    -0.413160502311E+03   -0.40539E-05   -0.93112E-06  3467   0.386E-03    0.370E-03
RMM:   9    -0.413160504450E+03   -0.21381E-05   -0.15184E-06  2513   0.201E-03    0.204E-03
RMM:  10    -0.413160507325E+03   -0.28757E-05   -0.10814E-06  2449   0.158E-03    0.110E-03
RMM:  11    -0.413160511120E+03   -0.37950E-05   -0.97465E-07  2361   0.133E-03    0.571E-04
RMM:  12    -0.413160511996E+03   -0.87525E-06   -0.30018E-07  1793   0.847E-04
  145 T=    60. E= -.41286668E+03 F= -.41316051E+03 E0= -.41313984E+03  EK= 0.29383E+00 SP= 0.00E+00 SK= 0.00E+00
       N       E                     dE             d eps       ncg     rms          rms(c)
RMM:   1    -0.413151618204E+03    0.88929E-02   -0.10221E+01  4264   0.881E-01    0.848E-01
RMM:   2    -0.413161047021E+03   -0.94288E-02   -0.11792E-01  4317   0.102E-01    0.592E-01
RMM:   3    -0.413160054331E+03    0.99269E-03   -0.60481E-03  4810   0.381E-02    0.140E-01
RMM:   4    -0.413166311527E+03   -0.62572E-02   -0.67001E-03  5177   0.700E-02    0.334E-01
RMM:   5    -0.413160009485E+03    0.63020E-02   -0.32154E-03  4843   0.556E-02    0.297E-02
RMM:   6    -0.413159994708E+03    0.14778E-04   -0.55617E-04  5664   0.234E-02    0.144E-02
RMM:   7    -0.413160011063E+03   -0.16356E-04   -0.78220E-05  5226   0.834E-03    0.840E-03
RMM:   8    -0.413160018523E+03   -0.74600E-05   -0.13626E-05  3775   0.410E-03    0.409E-03
RMM:   9    -0.413160024147E+03   -0.56235E-05   -0.20887E-06  2558   0.216E-03    0.199E-03
RMM:  10    -0.413160028519E+03   -0.43717E-05   -0.95491E-07  2496   0.148E-03    0.111E-03
RMM:  11    -0.413160032416E+03   -0.38974E-05   -0.76425E-07  2351   0.121E-03    0.561E-04
RMM:  12    -0.413160034460E+03   -0.20443E-05   -0.47590E-07  1983   0.955E-04    0.232E-04
RMM:  13    -0.413160035198E+03   -0.73812E-06   -0.25015E-07  1506   0.777E-04
  146 T=    60. E= -.41286642E+03 F= -.41316004E+03 E0= -.41313937E+03  EK= 0.29362E+00 SP= 0.00E+00 SK= 0.00E+00
       N       E                     dE             d eps       ncg     rms          rms(c)
RMM:   1    -0.413151715103E+03    0.83194E-02   -0.10280E+01  4264   0.889E-01    0.837E-01
RMM:   2    -0.413161764887E+03   -0.10050E-01   -0.12218E-01  4317   0.104E-01    0.604E-01
RMM:   3    -0.413160541428E+03    0.12235E-02   -0.58476E-03  4923   0.390E-02    0.140E-01
RMM:   4    -0.413175211025E+03   -0.14670E-01   -0.15076E-02  5167   0.103E-01    0.508E-01
RMM:   5    -0.413160381612E+03    0.14829E-01   -0.74911E-03  4836   0.840E-02    0.341E-02
RMM:   6    -0.413160391310E+03   -0.96978E-05   -0.12050E-03  5736   0.329E-02    0.114E-02
RMM:   7    -0.413160418558E+03   -0.27249E-04   -0.14221E-04  5509   0.103E-02    0.849E-03
RMM:   8    -0.413160431171E+03   -0.12612E-04   -0.18073E-05  3810   0.417E-03    0.521E-03
RMM:   9    -0.413160444440E+03   -0.13269E-04   -0.29958E-06  2606   0.240E-03    0.237E-03
RMM:  10    -0.413160454137E+03   -0.96969E-05   -0.14278E-06  2530   0.167E-03    0.120E-03
RMM:  11    -0.413160461104E+03   -0.69676E-05   -0.83810E-07  2384   0.128E-03    0.634E-04
RMM:  12    -0.413160466459E+03   -0.53551E-05   -0.61453E-07  2081   0.105E-03    0.269E-04
RMM:  13    -0.413160469083E+03   -0.26235E-05   -0.35666E-07  1697   0.860E-04    0.201E-04
RMM:  14    -0.413160471979E+03   -0.28960E-05   -0.47934E-07  1907   0.900E-04    0.130E-04
RMM:  15    -0.413160472969E+03   -0.98978E-06   -0.25412E-07  1410   0.729E-04
  147 T=    60. E= -.41286640E+03 F= -.41316047E+03 E0= -.41313981E+03  EK= 0.29408E+00 SP= 0.00E+00 SK= 0.00E+00
       N       E                     dE             d eps       ncg     rms          rms(c)
RMM:   1    -0.413152338607E+03    0.81334E-02   -0.10296E+01  4264   0.885E-01    0.858E-01
RMM:   2    -0.413161574259E+03   -0.92357E-02   -0.11991E-01  4321   0.998E-02    0.600E-01
RMM:   3    -0.413161027895E+03    0.54636E-03   -0.61947E-03  5027   0.393E-02    0.155E-01
RMM:   4    -0.413187255470E+03   -0.26228E-01   -0.27061E-02  5162   0.137E-01    0.674E-01
RMM:   5    -0.413160675598E+03    0.26580E-01   -0.13292E-02  4828   0.112E-01    0.442E-02
RMM:   6    -0.413160719997E+03   -0.44399E-04   -0.20869E-03  5731   0.439E-02    0.141E-02
RMM:   7    -0.413160747721E+03   -0.27724E-04   -0.25310E-04  5769   0.131E-02    0.104E-02
RMM:   8    -0.413160754833E+03   -0.71117E-05   -0.29916E-05  4091   0.483E-03    0.650E-03
RMM:   9    -0.413160760521E+03   -0.56884E-05   -0.45082E-06  2739   0.262E-03    0.311E-03
RMM:  10    -0.413160765617E+03   -0.50955E-05   -0.18401E-06  2541   0.184E-03    0.158E-03
RMM:  11    -0.413160769122E+03   -0.35046E-05   -0.93389E-07  2457   0.138E-03    0.765E-04
RMM:  12    -0.413160771291E+03   -0.21697E-05   -0.59630E-07  2194   0.109E-03    0.288E-04
RMM:  13    -0.413160772004E+03   -0.71290E-06   -0.29827E-07  1704   0.856E-04
  148 T=    60. E= -.41286670E+03 F= -.41316077E+03 E0= -.41314011E+03  EK= 0.29408E+00 SP= 0.00E+00 SK= 0.00E+00
       N       E                     dE             d eps       ncg     rms          rms(c)
RMM:   1    -0.413151842067E+03    0.89292E-02   -0.10170E+01  4264   0.881E-01    0.853E-01
RMM:   2    -0.413160879953E+03   -0.90379E-02   -0.11837E-01  4328   0.102E-01    0.593E-01
RMM:   3    -0.413160367679E+03    0.51227E-03   -0.63188E-03  5048   0.396E-02    0.158E-01
RMM:   4    -0.413188302257E+03   -0.27935E-01   -0.28979E-02  5167   0.142E-01    0.696E-01
RMM:   5    -0.413159970994E+03    0.28331E-01   -0.14174E-02  4825   0.116E-01    0.468E-02
RMM:   6    -0.413160014261E+03   -0.43268E-04   -0.22160E-03  5717   0.456E-02    0.158E-02
RMM:   7    -0.413160041704E+03   -0.27443E-04   -0.27379E-04  5833   0.137E-02    0.111E-02
RMM:   8    -0.413160048491E+03   -0.67874E-05   -0.33186E-05  4310   0.529E-03    0.635E-03
RMM:   9    -0.413160052273E+03   -0.37821E-05   -0.55642E-06  2867   0.280E-03    0.303E-03
RMM:  10    -0.413160055585E+03   -0.33119E-05   -0.18959E-06  2553   0.186E-03    0.170E-03
RMM:  11    -0.413160058104E+03   -0.25182E-05   -0.96758E-07  2454   0.140E-03    0.916E-04
RMM:  12    -0.413160059472E+03   -0.13686E-05   -0.66701E-07  2234   0.113E-03    0.316E-04
RMM:  13    -0.413160059748E+03   -0.27581E-06   -0.31747E-07  1738   0.871E-04
  149 T=    60. E= -.41286637E+03 F= -.41316006E+03 E0= -.41313940E+03  EK= 0.29369E+00 SP= 0.00E+00 SK= 0.00E+00
       N       E                     dE             d eps       ncg     rms          rms(c)
RMM:   1    -0.413152528159E+03    0.75313E-02   -0.10054E+01  4264   0.881E-01    0.833E-01
RMM:   2    -0.413162186666E+03   -0.96585E-02   -0.12020E-01  4329   0.990E-02    0.602E-01
RMM:   3    -0.413161281624E+03    0.90504E-03   -0.64230E-03  5071   0.417E-02    0.156E-01
RMM:   4    -0.413194891647E+03   -0.33610E-01   -0.35623E-02  5160   0.157E-01    0.761E-01
RMM:   5    -0.413160687151E+03    0.34204E-01   -0.16941E-02  4821   0.128E-01    0.502E-02
RMM:   6    -0.413160756268E+03   -0.69117E-04   -0.26631E-03  5699   0.500E-02    0.153E-02
RMM:   7    -0.413160794099E+03   -0.37831E-04   -0.33426E-04  5924   0.148E-02    0.115E-02
RMM:   8    -0.413160807260E+03   -0.13161E-04   -0.40805E-05  4741   0.597E-03    0.638E-03
RMM:   9    -0.413160816133E+03   -0.88722E-05   -0.73549E-06  3050   0.300E-03    0.313E-03
RMM:  10    -0.413160823823E+03   -0.76901E-05   -0.21695E-06  2560   0.196E-03    0.191E-03
RMM:  11    -0.413160830733E+03   -0.69107E-05   -0.11108E-06  2496   0.148E-03    0.111E-03
RMM:  12    -0.413160836461E+03   -0.57272E-05   -0.80502E-07  2278   0.120E-03    0.398E-04
RMM:  13    -0.413160838554E+03   -0.20935E-05   -0.38145E-07  1877   0.907E-04    0.253E-04
RMM:  14    -0.413160841142E+03   -0.25877E-05   -0.45145E-07  1773   0.897E-04    0.181E-04
RMM:  15    -0.413160842308E+03   -0.11665E-05   -0.29525E-07  1604   0.784E-04    0.118E-04
RMM:  16    -0.413160842496E+03   -0.18729E-06   -0.16467E-07  1284   0.678E-04
  150 T=    60. E= -.41286656E+03 F= -.41316084E+03 E0= -.41314018E+03  EK= 0.29428E+00 SP= 0.00E+00 SK= 0.00E+00
