       N       E                     dE             d eps       ncg     rms          rms(c)
RMM:   1     0.220110465059E+04    0.22011E+04   -0.52445E+04  2132   0.654E+02
RMM:   2     0.705555729013E+03   -0.14955E+04   -0.16265E+04  2132   0.177E+02
RMM:   3     0.137665012393E+03   -0.56789E+03   -0.65734E+03  2132   0.117E+02
RMM:   4    -0.159119963957E+03   -0.29678E+03   -0.27859E+03  2132   0.936E+01
RMM:   5    -0.287525987942E+03   -0.12841E+03   -0.11441E+03  2132   0.595E+01
RMM:   6    -0.349811710768E+03   -0.62286E+02   -0.55119E+02  2132   0.423E+01
RMM:   7    -0.382638082269E+03   -0.32826E+02   -0.30395E+02  2132   0.293E+01
RMM:   8    -0.404159422400E+03   -0.21521E+02   -0.18432E+02  2132   0.233E+01
RMM:   9    -0.435958571330E+03   -0.31799E+02   -0.30743E+02  6098   0.173E+01
RMM:  10    -0.441270037111E+03   -0.53115E+01   -0.62963E+01  6393   0.540E+00
RMM:  11    -0.442522537841E+03   -0.12525E+01   -0.11064E+01  6222   0.173E+00
RMM:  12    -0.442898366733E+03   -0.37583E+00   -0.28538E+00  6367   0.605E-01    0.134E+02
RMM:  13    -0.425622979637E+03    0.17275E+02   -0.80981E+01  4672   0.119E+01    0.712E+01
RMM:  14    -0.499415890025E+03   -0.73793E+02   -0.54018E+02  5419   0.232E+01    0.307E+01
RMM:  15    -0.416657128035E+03    0.82759E+02   -0.20140E+02  5119   0.164E+01    0.752E+00
RMM:  16    -0.414009048322E+03    0.26481E+01   -0.39750E+01  6093   0.612E+00    0.428E+00
RMM:  17    -0.413204981012E+03    0.80407E+00   -0.26122E+00  5410   0.191E+00    0.242E+00
RMM:  18    -0.413176204903E+03    0.28776E-01   -0.73951E-01  5990   0.881E-01    0.169E+00
RMM:  19    -0.413171159605E+03    0.50453E-02   -0.26113E-01  5669   0.557E-01    0.891E-01
RMM:  20    -0.413189857048E+03   -0.18697E-01   -0.29222E-01  5598   0.558E-01    0.636E-01
RMM:  21    -0.413168316146E+03    0.21541E-01   -0.35427E-02  4986   0.243E-01    0.297E-01
RMM:  22    -0.413164937127E+03    0.33790E-02   -0.23580E-02  5886   0.147E-01    0.136E-01
RMM:  23    -0.413164183465E+03    0.75366E-03   -0.55372E-03  6011   0.646E-02    0.850E-02
RMM:  24    -0.413163071994E+03    0.11115E-02   -0.17326E-03  5313   0.416E-02    0.525E-02
RMM:  25    -0.413162576488E+03    0.49551E-03   -0.90250E-04  5019   0.290E-02    0.429E-02
RMM:  26    -0.413162718764E+03   -0.14228E-03   -0.11355E-03  5785   0.340E-02    0.342E-02
RMM:  27    -0.413163155311E+03   -0.43655E-03   -0.20920E-04  4566   0.200E-02    0.199E-02
RMM:  28    -0.413163600842E+03   -0.44553E-03   -0.16662E-04  5094   0.174E-02    0.947E-03
RMM:  29    -0.413163999799E+03   -0.39896E-03   -0.11156E-04  4585   0.154E-02    0.447E-03
RMM:  30    -0.413164245402E+03   -0.24560E-03   -0.83230E-05  4498   0.108E-02    0.463E-03
RMM:  31    -0.413164397384E+03   -0.15198E-03   -0.61330E-05  3294   0.775E-03    0.358E-03
RMM:  32    -0.413164426192E+03   -0.28808E-04   -0.23775E-05  2995   0.326E-03    0.214E-03
RMM:  33    -0.413164439792E+03   -0.13600E-04   -0.97330E-06  2833   0.244E-03    0.654E-04
RMM:  34    -0.413164442063E+03   -0.22710E-05   -0.51789E-06  2627   0.160E-03    0.527E-04
RMM:  35    -0.413164442788E+03   -0.72475E-06   -0.23506E-06  2419   0.134E-03
    1 T=    61. E= -.41286664E+03 F= -.41316444E+03 E0= -.41314195E+03  EK= 0.29780E+00 SP= 0.00E+00 SK= 0.00E+00
       N       E                     dE             d eps       ncg     rms          rms(c)
RMM:   1    -0.413156892514E+03    0.75495E-02   -0.10583E+01  3997   0.678E-01    0.885E-01
RMM:   2    -0.413166452511E+03   -0.95600E-02   -0.12988E-01  3914   0.956E-02    0.643E-01
RMM:   3    -0.413164371409E+03    0.20811E-02   -0.83069E-03  4776   0.392E-02    0.135E-01
RMM:   4    -0.413186736662E+03   -0.22365E-01   -0.23471E-02  5209   0.127E-01    0.624E-01
RMM:   5    -0.413163994498E+03    0.22742E-01   -0.11258E-02  4852   0.105E-01    0.383E-02
RMM:   6    -0.413164146977E+03   -0.15248E-03   -0.18519E-03  5812   0.418E-02    0.243E-02
RMM:   7    -0.413164158942E+03   -0.11965E-04   -0.28436E-04  5847   0.147E-02    0.155E-02
RMM:   8    -0.413164163139E+03   -0.41975E-05   -0.41870E-05  4858   0.653E-03    0.691E-03
RMM:   9    -0.413164167040E+03   -0.39010E-05   -0.92107E-06  3400   0.327E-03    0.524E-03
RMM:  10    -0.413164172191E+03   -0.51513E-05   -0.16863E-06  2575   0.184E-03    0.345E-03
RMM:  11    -0.413164179428E+03   -0.72368E-05   -0.14424E-06  2537   0.173E-03    0.155E-03
RMM:  12    -0.413164186151E+03   -0.67229E-05   -0.12049E-06  2492   0.150E-03    0.694E-04
RMM:  13    -0.413164186723E+03   -0.57206E-06   -0.42882E-07  2021   0.955E-04
    2 T=    61. E= -.41286640E+03 F= -.41316419E+03 E0= -.41314169E+03  EK= 0.29779E+00 SP= 0.00E+00 SK= 0.00E+00
       N       E                     dE             d eps       ncg     rms          rms(c)
RMM:   1    -0.413157957221E+03    0.62289E-02   -0.10612E+01  4189   0.682E-01    0.909E-01
RMM:   2    -0.413166477412E+03   -0.85202E-02   -0.12762E-01  3927   0.943E-02    0.637E-01
RMM:   3    -0.413164864783E+03    0.16126E-02   -0.84730E-03  4813   0.374E-02    0.145E-01
RMM:   4    -0.413187952519E+03   -0.23088E-01   -0.23547E-02  5188   0.128E-01    0.635E-01
RMM:   5    -0.413164565485E+03    0.23387E-01   -0.11434E-02  4838   0.106E-01    0.395E-02
RMM:   6    -0.413164716874E+03   -0.15139E-03   -0.18934E-03  5813   0.423E-02    0.252E-02
RMM:   7    -0.413164720101E+03   -0.32265E-05   -0.27912E-04  5802   0.152E-02    0.160E-02
RMM:   8    -0.413164717202E+03    0.28989E-05   -0.46572E-05  4944   0.701E-03    0.764E-03
RMM:   9    -0.413164716278E+03    0.92413E-06   -0.92594E-06  3514   0.348E-03
    3 T=    61. E= -.41286668E+03 F= -.41316472E+03 E0= -.41314222E+03  EK= 0.29804E+00 SP= 0.00E+00 SK= 0.00E+00
       N       E                     dE             d eps       ncg     rms          rms(c)
RMM:   1    -0.413157384247E+03    0.73330E-02   -0.10526E+01  4223   0.683E-01    0.892E-01
RMM:   2    -0.413166353228E+03   -0.89690E-02   -0.12673E-01  4318   0.965E-02    0.631E-01
RMM:   3    -0.413172265270E+03   -0.59120E-02   -0.14492E-02  5198   0.877E-02    0.396E-01
RMM:   4    -0.413182348000E+03   -0.10083E-01   -0.34408E-02  5100   0.160E-01    0.558E-01
RMM:   5    -0.413164529324E+03    0.17819E-01   -0.63936E-03  4656   0.935E-02    0.554E-02
RMM:   6    -0.413164466808E+03    0.62516E-04   -0.12092E-03  5342   0.354E-02    0.246E-02
RMM:   7    -0.413164482254E+03   -0.15446E-04   -0.24721E-04  5983   0.154E-02    0.156E-02
RMM:   8    -0.413164481482E+03    0.77250E-06   -0.47497E-05  5238   0.769E-03    0.667E-03
RMM:   9    -0.413164481012E+03    0.46990E-06   -0.10227E-05  3817   0.398E-03    0.362E-03
RMM:  10    -0.413164482147E+03   -0.11356E-05   -0.12527E-06  2531   0.193E-03    0.222E-03
RMM:  11    -0.413164484340E+03   -0.21924E-05   -0.12366E-06  2530   0.175E-03    0.136E-03
RMM:  12    -0.413164485501E+03   -0.11607E-05   -0.56535E-07  2378   0.122E-03    0.462E-04
RMM:  13    -0.413164486326E+03   -0.82546E-06   -0.30432E-07  1636   0.816E-04
    4 T=    61. E= -.41286650E+03 F= -.41316449E+03 E0= -.41314200E+03  EK= 0.29798E+00 SP= 0.00E+00 SK= 0.00E+00
       N       E                     dE             d eps       ncg     rms          rms(c)
RMM:   1    -0.413157257649E+03    0.72279E-02   -0.10570E+01  4235   0.689E-01    0.883E-01
RMM:   2    -0.413166865138E+03   -0.96075E-02   -0.13000E-01  4021   0.947E-02    0.642E-01
RMM:   3    -0.413164934355E+03    0.19308E-02   -0.83289E-03  4882   0.405E-02    0.143E-01
RMM:   4    -0.413194685147E+03   -0.29751E-01   -0.30556E-02  5162   0.146E-01    0.719E-01
RMM:   5    -0.413164434850E+03    0.30250E-01   -0.14642E-02  4817   0.120E-01    0.418E-02
RMM:   6    -0.413164625599E+03   -0.19075E-03   -0.24152E-03  5765   0.476E-02    0.250E-02
RMM:   7    -0.413164638949E+03   -0.13350E-04   -0.33115E-04  5849   0.157E-02    0.165E-02
RMM:   8    -0.413164642589E+03   -0.36400E-05   -0.51205E-05  5006   0.716E-03    0.795E-03
RMM:   9    -0.413164645302E+03   -0.27130E-05   -0.11027E-05  3655   0.369E-03    0.566E-03
RMM:  10    -0.413164649788E+03   -0.44865E-05   -0.17562E-06  2575   0.196E-03    0.373E-03
RMM:  11    -0.413164655978E+03   -0.61893E-05   -0.16088E-06  2571   0.189E-03    0.164E-03
RMM:  12    -0.413164661116E+03   -0.51386E-05   -0.11507E-06  2501   0.158E-03    0.671E-04
RMM:  13    -0.413164661495E+03   -0.37923E-06   -0.34247E-07  2076   0.989E-04
    5 T=    61. E= -.41286659E+03 F= -.41316466E+03 E0= -.41314218E+03  EK= 0.29807E+00 SP= 0.00E+00 SK= 0.00E+00
       N       E                     dE             d eps       ncg     rms          rms(c)
RMM:   1    -0.413158220469E+03    0.64406E-02   -0.10608E+01  4250   0.695E-01    0.904E-01
RMM:   2    -0.413166989535E+03   -0.87691E-02   -0.12781E-01  4110   0.967E-02    0.639E-01
RMM:   3    -0.413165365019E+03    0.16245E-02   -0.83977E-03  4763   0.396E-02    0.143E-01
RMM:   4    -0.413188369345E+03   -0.23004E-01   -0.23350E-02  5159   0.128E-01    0.635E-01
RMM:   5    -0.413164981956E+03    0.23387E-01   -0.11428E-02  4825   0.105E-01    0.391E-02
RMM:   6    -0.413165132543E+03   -0.15059E-03   -0.19065E-03  5801   0.419E-02    0.247E-02
RMM:   7    -0.413165136064E+03   -0.35218E-05   -0.27231E-04  5780   0.149E-02    0.158E-02
RMM:   8    -0.413165132998E+03    0.30665E-05   -0.46952E-05  4927   0.705E-03    0.775E-03
RMM:   9    -0.413165131757E+03    0.12407E-05   -0.92917E-06  3530   0.354E-03    0.587E-03
RMM:  10    -0.413165132487E+03   -0.73019E-06   -0.13791E-06  2541   0.192E-03
    6 T=    61. E= -.41286679E+03 F= -.41316513E+03 E0= -.41314267E+03  EK= 0.29834E+00 SP= 0.00E+00 SK= 0.00E+00
       N       E                     dE             d eps       ncg     rms          rms(c)
RMM:   1    -0.413157995725E+03    0.71360E-02   -0.10553E+01  4257   0.697E-01    0.900E-01
RMM:   2    -0.413166589475E+03   -0.85938E-02   -0.12694E-01  4176   0.944E-02    0.632E-01
RMM:   3    -0.413166906783E+03   -0.31731E-03   -0.97944E-03  5091   0.568E-02    0.233E-01
RMM:   4    -0.413203022149E+03   -0.36115E-01   -0.45481E-02  5134   0.178E-01    0.807E-01
RMM:   5    -0.413164743701E+03    0.38278E-01   -0.17151E-02  4779   0.134E-01    0.547E-02
RMM:   6    -0.413164885077E+03   -0.14138E-03   -0.28346E-03  5651   0.528E-02    0.254E-02
RMM:   7    -0.413164904332E+03   -0.19255E-04   -0.39319E-04  6029   0.165E-02    0.167E-02
RMM:   8    -0.413164903535E+03    0.79697E-06   -0.61851E-05  5257   0.796E-03    0.780E-03
RMM:   9    -0.413164900319E+03    0.32157E-05   -0.11071E-05  3530   0.368E-03    0.384E-03
RMM:  10    -0.413164900459E+03   -0.13986E-06   -0.25501E-06  2618   0.218E-03
    7 T=    61. E= -.41286652E+03 F= -.41316490E+03 E0= -.41314245E+03  EK= 0.29838E+00 SP= 0.00E+00 SK= 0.00E+00
       N       E                     dE             d eps       ncg     rms          rms(c)
RMM:   1    -0.413158206605E+03    0.66937E-02   -0.10553E+01  4265   0.707E-01    0.882E-01
RMM:   2    -0.413167594888E+03   -0.93883E-02   -0.12939E-01  4153   0.947E-02    0.640E-01
RMM:   3    -0.413167032579E+03    0.56231E-03   -0.93087E-03  5091   0.541E-02    0.210E-01
RMM:   4    -0.413209171845E+03   -0.42139E-01   -0.49844E-02  5142   0.186E-01    0.861E-01
RMM:   5    -0.413165217300E+03    0.43955E-01   -0.20135E-02  4798   0.144E-01    0.528E-02
RMM:   6    -0.413165409176E+03   -0.19188E-03   -0.32266E-03  5718   0.564E-02    0.248E-02
RMM:   7    -0.413165434221E+03   -0.25045E-04   -0.43718E-04  6009   0.175E-02    0.176E-02
RMM:   8    -0.413165438384E+03   -0.41626E-05   -0.69401E-05  5233   0.820E-03    0.878E-03
RMM:   9    -0.413165438979E+03   -0.59488E-06   -0.13031E-05  3722   0.394E-03    0.452E-03
RMM:  10    -0.413165442608E+03   -0.36293E-05   -0.28144E-06  2631   0.220E-03    0.307E-03
RMM:  11    -0.413165446292E+03   -0.36842E-05   -0.11989E-06  2519   0.167E-03    0.153E-03
RMM:  12    -0.413165449750E+03   -0.34583E-05   -0.99752E-07  2499   0.143E-03    0.381E-04
RMM:  13    -0.413165451007E+03   -0.12570E-05   -0.43769E-07  2082   0.103E-03    0.305E-04
RMM:  14    -0.413165451340E+03   -0.33225E-06   -0.21813E-07  1560   0.787E-04
    8 T=    61. E= -.41286677E+03 F= -.41316545E+03 E0= -.41314302E+03  EK= 0.29868E+00 SP= 0.00E+00 SK= 0.00E+00
       N       E                     dE             d eps       ncg     rms          rms(c)
RMM:   1    -0.413161070184E+03    0.43808E-02   -0.10633E+01  4281   0.727E-01    0.899E-01
RMM:   2    -0.413167638003E+03   -0.65678E-02   -0.12893E-01  4180   0.973E-02    0.642E-01
RMM:   3    -0.413165982885E+03    0.16551E-02   -0.85172E-03  4883   0.416E-02    0.149E-01
RMM:   4    -0.413197376226E+03   -0.31393E-01   -0.32380E-02  5148   0.149E-01    0.738E-01
RMM:   5    -0.413165409351E+03    0.31967E-01   -0.15544E-02  4809   0.123E-01    0.435E-02
RMM:   6    -0.413165604617E+03   -0.19527E-03   -0.25490E-03  5755   0.488E-02    0.261E-02
RMM:   7    -0.413165613747E+03   -0.91299E-05   -0.35390E-04  5849   0.162E-02    0.172E-02
RMM:   8    -0.413165612066E+03    0.16808E-05   -0.53541E-05  5037   0.736E-03    0.835E-03
RMM:   9    -0.413165610570E+03    0.14961E-05   -0.11501E-05  3699   0.376E-03    0.589E-03
RMM:  10    -0.413165611459E+03   -0.88974E-06   -0.17498E-06  2566   0.199E-03
    9 T=    61. E= -.41286666E+03 F= -.41316561E+03 E0= -.41314320E+03  EK= 0.29896E+00 SP= 0.00E+00 SK= 0.00E+00
       N       E                     dE             d eps       ncg     rms          rms(c)
RMM:   1    -0.413158923358E+03    0.66872E-02   -0.10590E+01  4295   0.712E-01    0.907E-01
RMM:   2    -0.413167344161E+03   -0.84208E-02   -0.12709E-01  4257   0.952E-02    0.634E-01
RMM:   3    -0.413168280190E+03   -0.93603E-03   -0.10431E-02  5088   0.625E-02    0.255E-01
RMM:   4    -0.413200099231E+03   -0.31819E-01   -0.43434E-02  5117   0.175E-01    0.768E-01
RMM:   5    -0.413165572747E+03    0.34526E-01   -0.15102E-02  4754   0.127E-01    0.542E-02
RMM:   6    -0.413165692611E+03   -0.11986E-03   -0.25396E-03  5626   0.499E-02    0.254E-02
RMM:   7    -0.413165707299E+03   -0.14688E-04   -0.36144E-04  6004   0.161E-02    0.166E-02
RMM:   8    -0.413165704227E+03    0.30724E-05   -0.59663E-05  5247   0.797E-03    0.766E-03
RMM:   9    -0.413165699314E+03    0.49126E-05   -0.10188E-05  3440   0.363E-03    0.364E-03
RMM:  10    -0.413165698220E+03    0.10942E-05   -0.23030E-06  2588   0.214E-03    0.253E-03
RMM:  11    -0.413165696621E+03    0.15990E-05   -0.11757E-06  2517   0.168E-03    0.131E-03
RMM:  12    -0.413165694897E+03    0.17242E-05   -0.71594E-07  2446   0.131E-03    0.404E-04
RMM:  13    -0.413165694082E+03    0.81499E-06   -0.34654E-07  1949   0.941E-04
   10 T=    61. E= -.41286649E+03 F= -.41316569E+03 E0= -.41314331E+03  EK= 0.29920E+00 SP= 0.00E+00 SK= 0.00E+00
       N       E                     dE             d eps       ncg     rms          rms(c)
RMM:   1    -0.413159332516E+03    0.63624E-02   -0.10542E+01  4288   0.721E-01    0.883E-01
RMM:   2    -0.413168524875E+03   -0.91924E-02   -0.12855E-01  4224   0.950E-02    0.637E-01
RMM:   3    -0.413166861884E+03    0.16630E-02   -0.82614E-03  4882   0.423E-02    0.148E-01
RMM:   4    -0.413198384866E+03   -0.31523E-01   -0.32611E-02  5147   0.150E-01    0.740E-01
RMM:   5    -0.413166255925E+03    0.32129E-01   -0.15694E-02  4800   0.124E-01    0.428E-02
RMM:   6    -0.413166447629E+03   -0.19170E-03   -0.25296E-03  5765   0.488E-02    0.257E-02
RMM:   7    -0.413166457165E+03   -0.95355E-05   -0.34881E-04  5827   0.163E-02    0.170E-02
RMM:   8    -0.413166456409E+03    0.75547E-06   -0.55921E-05  5031   0.749E-03    0.850E-03
RMM:   9    -0.413166455095E+03    0.13139E-05   -0.12045E-05  3773   0.388E-03    0.595E-03
RMM:  10    -0.413166456541E+03   -0.14456E-05   -0.18771E-06  2578   0.201E-03    0.388E-03
RMM:  11    -0.413166458690E+03   -0.21493E-05   -0.17576E-06  2569   0.201E-03    0.166E-03
RMM:  12    -0.413166460143E+03   -0.14531E-05   -0.11345E-06  2496   0.162E-03    0.686E-04
RMM:  13    -0.413166460245E+03   -0.10208E-06   -0.34667E-07  2118   0.101E-03
   11 T=    61. E= -.41286684E+03 F= -.41316646E+03 E0= -.41314410E+03  EK= 0.29962E+00 SP= 0.00E+00 SK= 0.00E+00
       N       E                     dE             d eps       ncg     rms          rms(c)
RMM:   1    -0.413159321191E+03    0.71390E-02   -0.10617E+01  4296   0.726E-01    0.894E-01
RMM:   2    -0.413168520547E+03   -0.91994E-02   -0.12987E-01  4233   0.976E-02    0.644E-01
RMM:   3    -0.413166655346E+03    0.18652E-02   -0.84217E-03  4831   0.409E-02    0.142E-01
RMM:   4    -0.413194015142E+03   -0.27360E-01   -0.28065E-02  5143   0.139E-01    0.690E-01
RMM:   5    -0.413166203179E+03    0.27812E-01   -0.13604E-02  4803   0.115E-01    0.405E-02
RMM:   6    -0.413166375614E+03   -0.17243E-03   -0.22164E-03  5794   0.454E-02    0.248E-02
RMM:   7    -0.413166383040E+03   -0.74263E-05   -0.30254E-04  5805   0.155E-02    0.162E-02
RMM:   8    -0.413166381892E+03    0.11479E-05   -0.53195E-05  4988   0.734E-03    0.830E-03
RMM:   9    -0.413166380398E+03    0.14938E-05   -0.11100E-05  3745   0.380E-03    0.600E-03
RMM:  10    -0.413166381657E+03   -0.12588E-05   -0.16369E-06  2556   0.196E-03    0.392E-03
RMM:  11    -0.413166383555E+03   -0.18984E-05   -0.18459E-06  2583   0.206E-03    0.169E-03
RMM:  12    -0.413166384684E+03   -0.11286E-05   -0.10511E-06  2485   0.159E-03    0.690E-04
RMM:  13    -0.413166384729E+03   -0.45133E-07   -0.32695E-07  2073   0.973E-04
   12 T=    61. E= -.41286657E+03 F= -.41316638E+03 E0= -.41314405E+03  EK= 0.29981E+00 SP= 0.00E+00 SK= 0.00E+00
       N       E                     dE             d eps       ncg     rms          rms(c)
RMM:   1    -0.413160331260E+03    0.60534E-02   -0.10622E+01  4296   0.727E-01    0.911E-01
RMM:   2    -0.413168525056E+03   -0.81938E-02   -0.12730E-01  4239   0.946E-02    0.636E-01
RMM:   3    -0.413167253010E+03    0.12720E-02   -0.86148E-03  4866   0.385E-02    0.151E-01
RMM:   4    -0.413194336506E+03   -0.27083E-01   -0.27776E-02  5143   0.138E-01    0.687E-01
RMM:   5    -0.413166798735E+03    0.27538E-01   -0.13523E-02  4806   0.114E-01    0.419E-02
RMM:   6    -0.413166962900E+03   -0.16417E-03   -0.22021E-03  5808   0.453E-02    0.263E-02
RMM:   7    -0.413166963038E+03   -0.13790E-06   -0.30746E-04  5774   0.159E-02    0.167E-02
RMM:   8    -0.413166956259E+03    0.67790E-05   -0.53622E-05  4984   0.745E-03    0.846E-03
RMM:   9    -0.413166951220E+03    0.50389E-05   -0.11012E-05  3722   0.378E-03    0.621E-03
RMM:  10    -0.413166948542E+03    0.26783E-05   -0.15942E-06  2550   0.198E-03    0.401E-03
RMM:  11    -0.413166944894E+03    0.36486E-05   -0.16947E-06  2560   0.201E-03    0.177E-03
RMM:  12    -0.413166941318E+03    0.35760E-05   -0.11149E-06  2493   0.163E-03    0.701E-04
RMM:  13    -0.413166940953E+03    0.36445E-06   -0.34341E-07  2114   0.101E-03
   13 T=    61. E= -.41286665E+03 F= -.41316694E+03 E0= -.41314464E+03  EK= 0.30029E+00 SP= 0.00E+00 SK= 0.00E+00
       N       E                     dE             d eps       ncg     rms          rms(c)
RMM:   1    -0.413160439393E+03    0.65019E-02   -0.10542E+01  4295   0.725E-01    0.886E-01
RMM:   2    -0.413169571569E+03   -0.91322E-02   -0.12838E-01  4241   0.942E-02    0.635E-01
RMM:   3    -0.413167877842E+03    0.16937E-02   -0.82412E-03  4818   0.392E-02    0.143E-01
RMM:   4    -0.413193457531E+03   -0.25580E-01   -0.26211E-02  5142   0.135E-01    0.668E-01
RMM:   5    -0.413167456965E+03    0.26001E-01   -0.12767E-02  4808   0.111E-01    0.399E-02
RMM:   6    -0.413167615368E+03   -0.15840E-03   -0.20795E-03  5813   0.437E-02    0.247E-02
RMM:   7    -0.413167619351E+03   -0.39832E-05   -0.28260E-04  5798   0.152E-02    0.158E-02
RMM:   8    -0.413167615937E+03    0.34143E-05   -0.52306E-05  4963   0.731E-03    0.817E-03
RMM:   9    -0.413167612981E+03    0.29555E-05   -0.10958E-05  3732   0.378E-03    0.603E-03
RMM:  10    -0.413167612728E+03    0.25327E-06   -0.15560E-06  2550   0.195E-03
   14 T=    61. E= -.41286676E+03 F= -.41316761E+03 E0= -.41314534E+03  EK= 0.30085E+00 SP= 0.00E+00 SK= 0.00E+00
       N       E                     dE             d eps       ncg     rms          rms(c)
RMM:   1    -0.413160571250E+03    0.70417E-02   -0.10630E+01  4303   0.737E-01    0.891E-01
RMM:   2    -0.413170031119E+03   -0.94599E-02   -0.13055E-01  4275   0.986E-02    0.646E-01
RMM:   3    -0.413169991050E+03    0.40069E-04   -0.10086E-02  5087   0.595E-02    0.239E-01
RMM:   4    -0.413208816194E+03   -0.38825E-01   -0.49758E-02  5124   0.186E-01    0.835E-01
RMM:   5    -0.413167487084E+03    0.41329E-01   -0.18478E-02  4766   0.139E-01    0.544E-02
RMM:   6    -0.413167637571E+03   -0.15049E-03   -0.29859E-03  5669   0.542E-02    0.244E-02
RMM:   7    -0.413167659059E+03   -0.21488E-04   -0.40607E-04  6005   0.168E-02    0.168E-02
RMM:   8    -0.413167660939E+03   -0.18799E-05   -0.64671E-05  5244   0.809E-03    0.805E-03
RMM:   9    -0.413167659161E+03    0.17781E-05   -0.12122E-05  3594   0.382E-03    0.381E-03
RMM:  10    -0.413167660598E+03   -0.14370E-05   -0.27542E-06  2621   0.220E-03    0.266E-03
RMM:  11    -0.413167661861E+03   -0.12631E-05   -0.11596E-06  2510   0.165E-03    0.135E-03
RMM:  12    -0.413167662628E+03   -0.76689E-06   -0.76562E-07  2437   0.132E-03
   15 T=    61. E= -.41286644E+03 F= -.41316766E+03 E0= -.41314543E+03  EK= 0.30122E+00 SP= 0.00E+00 SK= 0.00E+00
       N       E                     dE             d eps       ncg     rms          rms(c)
RMM:   1    -0.413162111232E+03    0.55506E-02   -0.10653E+01  4298   0.736E-01    0.913E-01
RMM:   2    -0.413170502925E+03   -0.83917E-02   -0.12808E-01  4252   0.972E-02    0.639E-01
RMM:   3    -0.413169155266E+03    0.13477E-02   -0.88089E-03  4930   0.423E-02    0.159E-01
RMM:   4    -0.413203497934E+03   -0.34343E-01   -0.35774E-02  5143   0.157E-01    0.771E-01
RMM:   5    -0.413168503428E+03    0.34995E-01   -0.17077E-02  4799   0.129E-01    0.455E-02
RMM:   6    -0.413168699141E+03   -0.19571E-03   -0.27867E-03  5779   0.512E-02    0.278E-02
RMM:   7    -0.413168702309E+03   -0.31678E-05   -0.37789E-04  5827   0.172E-02    0.181E-02
RMM:   8    -0.413168695141E+03    0.71678E-05   -0.62578E-05  5060   0.794E-03    0.935E-03
RMM:   9    -0.413168688601E+03    0.65398E-05   -0.13303E-05  3898   0.408E-03    0.647E-03
RMM:  10    -0.413168685104E+03    0.34975E-05   -0.20556E-06  2586   0.210E-03    0.417E-03
RMM:  11    -0.413168681152E+03    0.39518E-05   -0.15678E-06  2534   0.195E-03    0.196E-03
RMM:  12    -0.413168676450E+03    0.47019E-05   -0.13490E-06  2530   0.176E-03    0.724E-04
RMM:  13    -0.413168675659E+03    0.79064E-06   -0.39395E-07  2232   0.110E-03
   16 T=    61. E= -.41286673E+03 F= -.41316868E+03 E0= -.41314648E+03  EK= 0.30194E+00 SP= 0.00E+00 SK= 0.00E+00
       N       E                     dE             d eps       ncg     rms          rms(c)
RMM:   1    -0.413162063246E+03    0.66132E-02   -0.10572E+01  4297   0.736E-01    0.893E-01
RMM:   2    -0.413171109943E+03   -0.90467E-02   -0.12857E-01  4259   0.961E-02    0.635E-01
RMM:   3    -0.413169402871E+03    0.17071E-02   -0.83473E-03  4884   0.402E-02    0.150E-01
RMM:   4    -0.413198951509E+03   -0.29549E-01   -0.30481E-02  5151   0.145E-01    0.716E-01
RMM:   5    -0.413168933054E+03    0.30018E-01   -0.14787E-02  4800   0.119E-01    0.421E-02
RMM:   6    -0.413169105771E+03   -0.17272E-03   -0.23883E-03  5803   0.473E-02    0.259E-02
RMM:   7    -0.413169109652E+03   -0.38812E-05   -0.31982E-04  5810   0.160E-02    0.166E-02
RMM:   8    -0.413169104497E+03    0.51551E-05   -0.59038E-05  5026   0.765E-03    0.888E-03
RMM:   9    -0.413169099294E+03    0.52026E-05   -0.12471E-05  3891   0.400E-03    0.633E-03
RMM:  10    -0.413169097165E+03    0.21290E-05   -0.17709E-06  2561   0.203E-03    0.409E-03
RMM:  11    -0.413169094363E+03    0.28027E-05   -0.17568E-06  2556   0.204E-03    0.186E-03
RMM:  12    -0.413169091310E+03    0.30526E-05   -0.11400E-06  2495   0.167E-03    0.660E-04
RMM:  13    -0.413169090863E+03    0.44651E-06   -0.35823E-07  2154   0.103E-03
   17 T=    62. E= -.41286661E+03 F= -.41316909E+03 E0= -.41314693E+03  EK= 0.30248E+00 SP= 0.00E+00 SK= 0.00E+00
       N       E                     dE             d eps       ncg     rms          rms(c)
RMM:   1    -0.413162514650E+03    0.65767E-02   -0.10643E+01  4295   0.752E-01    0.889E-01
RMM:   2    -0.413171970710E+03   -0.94561E-02   -0.13123E-01  4270   0.991E-02    0.647E-01
RMM:   3    -0.413169970957E+03    0.19998E-02   -0.85203E-03  4873   0.425E-02    0.144E-01
RMM:   4    -0.413200707576E+03   -0.30737E-01   -0.31845E-02  5146   0.148E-01    0.730E-01
RMM:   5    -0.413169410497E+03    0.31297E-01   -0.15372E-02  4794   0.122E-01    0.421E-02
RMM:   6    -0.413169586521E+03   -0.17602E-03   -0.24380E-03  5799   0.481E-02    0.253E-02
RMM:   7    -0.413169593760E+03   -0.72396E-05   -0.32215E-04  5824   0.160E-02    0.165E-02
RMM:   8    -0.413169591909E+03    0.18512E-05   -0.59452E-05  5039   0.769E-03    0.865E-03
RMM:   9    -0.413169589010E+03    0.28996E-05   -0.12874E-05  3921   0.405E-03    0.601E-03
RMM:  10    -0.413169589312E+03   -0.30256E-06   -0.18811E-06  2573   0.203E-03
   18 T=    62. E= -.41286660E+03 F= -.41316959E+03 E0= -.41314747E+03  EK= 0.30299E+00 SP= 0.00E+00 SK= 0.00E+00
       N       E                     dE             d eps       ncg     rms          rms(c)
RMM:   1    -0.413164061052E+03    0.55280E-02   -0.10678E+01  4304   0.748E-01    0.912E-01
RMM:   2    -0.413172647675E+03   -0.85866E-02   -0.12937E-01  4297   0.978E-02    0.643E-01
RMM:   3    -0.413173731426E+03   -0.10838E-02   -0.10807E-02  5093   0.647E-02    0.266E-01
RMM:   4    -0.413205712678E+03   -0.31981E-01   -0.45081E-02  5108   0.178E-01    0.772E-01
RMM:   5    -0.413170682369E+03    0.35030E-01   -0.15262E-02  4739   0.128E-01    0.540E-02
RMM:   6    -0.413170795734E+03   -0.11336E-03   -0.25832E-03  5621   0.504E-02    0.258E-02
RMM:   7    -0.413170807369E+03   -0.11635E-04   -0.36575E-04  6000   0.162E-02    0.170E-02
RMM:   8    -0.413170802294E+03    0.50754E-05   -0.60549E-05  5214   0.803E-03    0.783E-03
RMM:   9    -0.413170795223E+03    0.70711E-05   -0.10726E-05  3505   0.373E-03    0.368E-03
RMM:  10    -0.413170792582E+03    0.26404E-05   -0.23496E-06  2584   0.215E-03    0.256E-03
RMM:  11    -0.413170788849E+03    0.37333E-05   -0.11021E-06  2511   0.166E-03    0.133E-03
RMM:  12    -0.413170785181E+03    0.36679E-05   -0.64797E-07  2432   0.129E-03    0.408E-04
RMM:  13    -0.413170783472E+03    0.17093E-05   -0.31226E-07  1936   0.928E-04    0.252E-04
RMM:  14    -0.413170782034E+03    0.14372E-05   -0.18363E-07  1474   0.765E-04    0.174E-04
RMM:  15    -0.413170779251E+03    0.27833E-05   -0.17737E-07  1435   0.745E-04    0.893E-05
RMM:  16    -0.413170777395E+03    0.18563E-05   -0.11858E-07  1331   0.674E-04    0.890E-05
RMM:  17    -0.413170774739E+03    0.26553E-05   -0.11978E-07  1420   0.664E-04    0.501E-05
RMM:  18    -0.413170773282E+03    0.14571E-05   -0.64293E-08  1016   0.569E-04    0.292E-05
RMM:  19    -0.413170772887E+03    0.39542E-06   -0.30675E-08   800   0.529E-04
   19 T=    62. E= -.41286694E+03 F= -.41317077E+03 E0= -.41314870E+03  EK= 0.30383E+00 SP= 0.00E+00 SK= 0.00E+00
       N       E                     dE             d eps       ncg     rms          rms(c)
RMM:   1    -0.413164383459E+03    0.63898E-02   -0.10620E+01  4298   0.748E-01    0.902E-01
RMM:   2    -0.413173033834E+03   -0.86504E-02   -0.12864E-01  4267   0.994E-02    0.637E-01
RMM:   3    -0.413171781437E+03    0.12524E-02   -0.86989E-03  4935   0.443E-02    0.166E-01
RMM:   4    -0.413209704548E+03   -0.37923E-01   -0.40191E-02  5149   0.166E-01    0.810E-01
RMM:   5    -0.413170990094E+03    0.38714E-01   -0.18862E-02  4791   0.136E-01    0.477E-02
RMM:   6    -0.413171199217E+03   -0.20912E-03   -0.31128E-03  5749   0.541E-02    0.283E-02
RMM:   7    -0.413171203281E+03   -0.40635E-05   -0.42107E-04  5817   0.177E-02    0.188E-02
RMM:   8    -0.413171196334E+03    0.69473E-05   -0.67059E-05  5155   0.816E-03    0.959E-03
RMM:   9    -0.413171189354E+03    0.69797E-05   -0.14567E-05  4022   0.420E-03    0.639E-03
RMM:  10    -0.413171185671E+03    0.36833E-05   -0.22192E-06  2593   0.214E-03    0.416E-03
RMM:  11    -0.413171181905E+03    0.37655E-05   -0.14437E-06  2521   0.189E-03    0.199E-03
RMM:  12    -0.413171177483E+03    0.44217E-05   -0.12280E-06  2514   0.174E-03    0.656E-04
RMM:  13    -0.413171176563E+03    0.92014E-06   -0.41006E-07  2248   0.113E-03
   20 T=    62. E= -.41286662E+03 F= -.41317118E+03 E0= -.41314914E+03  EK= 0.30456E+00 SP= 0.00E+00 SK= 0.00E+00
       N       E                     dE             d eps       ncg     rms          rms(c)
RMM:   1    -0.413172530073E+03   -0.13526E-02   -0.10735E+01  4298   0.808E-01    0.889E-01
RMM:   2    -0.413174727630E+03   -0.21976E-02   -0.13170E-01  4278   0.994E-02    0.647E-01
RMM:   3    -0.413172670619E+03    0.20570E-02   -0.86499E-03  4876   0.423E-02    0.144E-01
RMM:   4    -0.413203692491E+03   -0.31022E-01   -0.32199E-02  5139   0.149E-01    0.733E-01
RMM:   5    -0.413172111667E+03    0.31581E-01   -0.15551E-02  4800   0.123E-01    0.424E-02
RMM:   6    -0.413172288710E+03   -0.17704E-03   -0.24951E-03  5797   0.485E-02    0.255E-02
RMM:   7    -0.413172297877E+03   -0.91672E-05   -0.32863E-04  5824   0.161E-02    0.165E-02
RMM:   8    -0.413172295356E+03    0.25212E-05   -0.62145E-05  5036   0.781E-03    0.909E-03
RMM:   9    -0.413172291004E+03    0.43520E-05   -0.13152E-05  3973   0.411E-03    0.634E-03
RMM:  10    -0.413172290347E+03    0.65728E-06   -0.19183E-06  2573   0.206E-03
   21 T=    62. E= -.41286677E+03 F= -.41317229E+03 E0= -.41315030E+03  EK= 0.30552E+00 SP= 0.00E+00 SK= 0.00E+00
       N       E                     dE             d eps       ncg     rms          rms(c)
RMM:   1    -0.413166626194E+03    0.56648E-02   -0.10722E+01  4299   0.760E-01    0.909E-01
RMM:   2    -0.413175436242E+03   -0.88100E-02   -0.13081E-01  4302   0.983E-02    0.647E-01
RMM:   3    -0.413176220346E+03   -0.78410E-03   -0.10821E-02  5086   0.643E-02    0.263E-01
RMM:   4    -0.413210059039E+03   -0.33839E-01   -0.46966E-02  5106   0.181E-01    0.791E-01
RMM:   5    -0.413173199637E+03    0.36859E-01   -0.16168E-02  4743   0.131E-01    0.540E-02
RMM:   6    -0.413173319718E+03   -0.12008E-03   -0.27065E-03  5640   0.518E-02    0.258E-02
RMM:   7    -0.413173331072E+03   -0.11354E-04   -0.37915E-04  5985   0.166E-02    0.173E-02
RMM:   8    -0.413173326079E+03    0.49932E-05   -0.63304E-05  5219   0.818E-03    0.807E-03
RMM:   9    -0.413173318858E+03    0.72207E-05   -0.11520E-05  3602   0.383E-03    0.381E-03
RMM:  10    -0.413173316136E+03    0.27224E-05   -0.24200E-06  2598   0.217E-03    0.265E-03
RMM:  11    -0.413173312474E+03    0.36617E-05   -0.10635E-06  2495   0.165E-03    0.135E-03
RMM:  12    -0.413173308732E+03    0.37424E-05   -0.64994E-07  2417   0.129E-03    0.378E-04
RMM:  13    -0.413173306887E+03    0.18442E-05   -0.31018E-07  1934   0.931E-04    0.240E-04
RMM:  14    -0.413173305333E+03    0.15545E-05   -0.18083E-07  1462   0.759E-04    0.154E-04
RMM:  15    -0.413173302571E+03    0.27619E-05   -0.15522E-07  1339   0.726E-04    0.871E-05
RMM:  16    -0.413173300690E+03    0.18807E-05   -0.11227E-07  1340   0.677E-04    0.886E-05
RMM:  17    -0.413173298317E+03    0.23732E-05   -0.96309E-08  1316   0.648E-04    0.533E-05
RMM:  18    -0.413173296534E+03    0.17827E-05   -0.63001E-08  1067   0.586E-04    0.231E-05
RMM:  19    -0.413173295986E+03    0.54864E-06   -0.30560E-08   828   0.538E-04
   22 T=    62. E= -.41286682E+03 F= -.41317330E+03 E0= -.41315135E+03  EK= 0.30648E+00 SP= 0.00E+00 SK= 0.00E+00
       N       E                     dE             d eps       ncg     rms          rms(c)
RMM:   1    -0.413168273878E+03    0.50227E-02   -0.10706E+01  4295   0.777E-01    0.912E-01
RMM:   2    -0.413175998598E+03   -0.77247E-02   -0.12917E-01  4279   0.103E-01    0.640E-01
RMM:   3    -0.413174483073E+03    0.15155E-02   -0.89213E-03  4877   0.462E-02    0.159E-01
RMM:   4    -0.413208985692E+03   -0.34503E-01   -0.36041E-02  5147   0.157E-01    0.773E-01
RMM:   5    -0.413173825742E+03    0.35160E-01   -0.17264E-02  4794   0.130E-01    0.461E-02
RMM:   6    -0.413174024171E+03   -0.19843E-03   -0.28979E-03  5784   0.517E-02    0.284E-02
RMM:   7    -0.413174028149E+03   -0.39784E-05   -0.38274E-04  5779   0.175E-02    0.183E-02
RMM:   8    -0.413174019761E+03    0.83888E-05   -0.68127E-05  5115   0.824E-03    0.991E-03
RMM:   9    -0.413174011347E+03    0.84140E-05   -0.14253E-05  4054   0.425E-03    0.686E-03
RMM:  10    -0.413174006461E+03    0.48860E-05   -0.20966E-06  2587   0.214E-03    0.445E-03
RMM:  11    -0.413174000911E+03    0.55494E-05   -0.16497E-06  2525   0.202E-03    0.208E-03
RMM:  12    -0.413173994867E+03    0.60442E-05   -0.12164E-06  2494   0.178E-03    0.669E-04
RMM:  13    -0.413173993760E+03    0.11074E-05   -0.41074E-07  2231   0.113E-03    0.471E-04
RMM:  14    -0.413173993373E+03    0.38640E-06   -0.19628E-07  1737   0.800E-04
   23 T=    63. E= -.41286655E+03 F= -.41317399E+03 E0= -.41315210E+03  EK= 0.30744E+00 SP= 0.00E+00 SK= 0.00E+00
       N       E                     dE             d eps       ncg     rms          rms(c)
RMM:   1    -0.413168741270E+03    0.52525E-02   -0.10698E+01  4299   0.783E-01    0.892E-01
RMM:   2    -0.413178081140E+03   -0.93399E-02   -0.13235E-01  4283   0.103E-01    0.647E-01
RMM:   3    -0.413175815047E+03    0.22661E-02   -0.85611E-03  4754   0.433E-02    0.141E-01
RMM:   4    -0.413200722190E+03   -0.24907E-01   -0.25475E-02  5145   0.133E-01    0.658E-01
RMM:   5    -0.413175462656E+03    0.25260E-01   -0.12570E-02  4802   0.110E-01    0.401E-02
RMM:   6    -0.413175602484E+03   -0.13983E-03   -0.20472E-03  5804   0.434E-02    0.250E-02
RMM:   7    -0.413175605987E+03   -0.35027E-05   -0.27730E-04  5754   0.154E-02    0.155E-02
RMM:   8    -0.413175601334E+03    0.46530E-05   -0.55450E-05  4985   0.756E-03    0.847E-03
RMM:   9    -0.413175596368E+03    0.49653E-05   -0.11387E-05  3833   0.391E-03    0.613E-03
RMM:  10    -0.413175594655E+03    0.17135E-05   -0.15278E-06  2547   0.196E-03    0.403E-03
RMM:  11    -0.413175591964E+03    0.26909E-05   -0.17981E-06  2550   0.211E-03    0.172E-03
RMM:  12    -0.413175589584E+03    0.23800E-05   -0.89914E-07  2451   0.155E-03    0.645E-04
RMM:  13    -0.413175589317E+03    0.26669E-06   -0.30167E-07  2043   0.951E-04
   24 T=    63. E= -.41286686E+03 F= -.41317559E+03 E0= -.41315374E+03  EK= 0.30873E+00 SP= 0.00E+00 SK= 0.00E+00
       N       E                     dE             d eps       ncg     rms          rms(c)
RMM:   1    -0.413169747534E+03    0.58420E-02   -0.10782E+01  4296   0.785E-01    0.907E-01
RMM:   2    -0.413179021399E+03   -0.92739E-02   -0.13263E-01  4286   0.105E-01    0.653E-01
RMM:   3    -0.413176776471E+03    0.22449E-02   -0.87136E-03  4663   0.440E-02    0.138E-01
RMM:   4    -0.413195151552E+03   -0.18375E-01   -0.18794E-02  5143   0.114E-01    0.568E-01
RMM:   5    -0.413176484389E+03    0.18667E-01   -0.92737E-03  4815   0.944E-02    0.374E-02
RMM:   6    -0.413176573417E+03   -0.89028E-04   -0.15086E-03  5826   0.367E-02    0.222E-02
RMM:   7    -0.413176574563E+03   -0.11457E-05   -0.17131E-04  5594   0.126E-02    0.103E-02
RMM:   8    -0.413176568124E+03    0.64390E-05   -0.28980E-05  4640   0.547E-03    0.664E-03
RMM:   9    -0.413176566995E+03    0.11284E-05   -0.66691E-06  3187   0.293E-03    0.550E-03
RMM:  10    -0.413176564517E+03    0.24780E-05   -0.11495E-06  2521   0.180E-03    0.377E-03
RMM:  11    -0.413176559837E+03    0.46803E-05   -0.18215E-06  2551   0.213E-03    0.178E-03
RMM:  12    -0.413176557070E+03    0.27675E-05   -0.78000E-07  2436   0.148E-03    0.865E-04
RMM:  13    -0.413176556477E+03    0.59262E-06   -0.23669E-07  1944   0.880E-04
   25 T=    63. E= -.41286675E+03 F= -.41317656E+03 E0= -.41315476E+03  EK= 0.30981E+00 SP= 0.00E+00 SK= 0.00E+00
       N       E                     dE             d eps       ncg     rms          rms(c)
RMM:   1    -0.413171487905E+03    0.50692E-02   -0.10795E+01  4294   0.789E-01    0.921E-01
RMM:   2    -0.413179762839E+03   -0.82749E-02   -0.13148E-01  4280   0.106E-01    0.645E-01
RMM:   3    -0.413177992515E+03    0.17703E-02   -0.88860E-03  4593   0.445E-02    0.144E-01
RMM:   4    -0.413193491159E+03   -0.15499E-01   -0.15752E-02  5144   0.105E-01    0.522E-01
RMM:   5    -0.413177842663E+03    0.15648E-01   -0.78667E-03  4820   0.863E-02    0.373E-02
RMM:   6    -0.413177902150E+03   -0.59488E-04   -0.12559E-03  5822   0.335E-02    0.220E-02
RMM:   7    -0.413177896373E+03    0.57775E-05   -0.15146E-04  5587   0.122E-02    0.104E-02
RMM:   8    -0.413177887029E+03    0.93440E-05   -0.27701E-05  4664   0.547E-03    0.682E-03
RMM:   9    -0.413177884279E+03    0.27503E-05   -0.71788E-06  3368   0.313E-03    0.572E-03
RMM:  10    -0.413177879252E+03    0.50268E-05   -0.10296E-06  2513   0.185E-03    0.354E-03
RMM:  11    -0.413177871595E+03    0.76572E-05   -0.13301E-06  2513   0.186E-03    0.168E-03
RMM:  12    -0.413177864772E+03    0.68224E-05   -0.70136E-07  2398   0.139E-03    0.579E-04
RMM:  13    -0.413177863506E+03    0.12668E-05   -0.24493E-07  1924   0.873E-04    0.398E-04
RMM:  14    -0.413177862225E+03    0.12806E-05   -0.11431E-07  1326   0.681E-04    0.310E-04
RMM:  15    -0.413177856981E+03    0.52439E-05   -0.16143E-07  1875   0.771E-04    0.316E-04
RMM:  16    -0.413177856185E+03    0.79576E-06   -0.42377E-08   889   0.555E-04
   26 T=    63. E= -.41286672E+03 F= -.41317786E+03 E0= -.41315611E+03  EK= 0.31113E+00 SP= 0.00E+00 SK= 0.00E+00
       N       E                     dE             d eps       ncg     rms          rms(c)
RMM:   1    -0.413172692195E+03    0.51648E-02   -0.10754E+01  4291   0.790E-01    0.898E-01
RMM:   2    -0.413181786143E+03   -0.90939E-02   -0.13269E-01  4281   0.103E-01    0.648E-01
RMM:   3    -0.413179917698E+03    0.18684E-02   -0.87497E-03  4753   0.450E-02    0.145E-01
RMM:   4    -0.413205452432E+03   -0.25535E-01   -0.26134E-02  5153   0.135E-01    0.667E-01
RMM:   5    -0.413179505166E+03    0.25947E-01   -0.12956E-02  4814   0.111E-01    0.408E-02
RMM:   6    -0.413179638950E+03   -0.13378E-03   -0.20922E-03  5821   0.432E-02    0.253E-02
RMM:   7    -0.413179641808E+03   -0.28581E-05   -0.25787E-04  5751   0.151E-02    0.143E-02
RMM:   8    -0.413179638001E+03    0.38070E-05   -0.56022E-05  4986   0.745E-03    0.901E-03
RMM:   9    -0.413179631666E+03    0.63351E-05   -0.12300E-05  4008   0.404E-03    0.636E-03
RMM:  10    -0.413179629044E+03    0.26223E-05   -0.16054E-06  2546   0.205E-03    0.416E-03
RMM:  11    -0.413179625304E+03    0.37400E-05   -0.17692E-06  2549   0.208E-03    0.189E-03
RMM:  12    -0.413179621488E+03    0.38159E-05   -0.99325E-07  2467   0.164E-03    0.634E-04
RMM:  13    -0.413179620876E+03    0.61212E-06   -0.33908E-07  2138   0.102E-03
   27 T=    64. E= -.41286683E+03 F= -.41317962E+03 E0= -.41315792E+03  EK= 0.31279E+00 SP= 0.00E+00 SK= 0.00E+00
       N       E                     dE             d eps       ncg     rms          rms(c)
RMM:   1    -0.413179759260E+03   -0.13777E-03   -0.10929E+01  4291   0.868E-01    0.906E-01
RMM:   2    -0.413183227817E+03   -0.34686E-02   -0.14173E-01  4279   0.110E-01    0.659E-01
RMM:   3    -0.413180902079E+03    0.23257E-02   -0.87397E-03  4497   0.432E-02    0.139E-01
RMM:   4    -0.413191102742E+03   -0.10201E-01   -0.10686E-02  5149   0.874E-02    0.425E-01
RMM:   5    -0.413180786605E+03    0.10316E-01   -0.51636E-03  4824   0.698E-02    0.337E-02
RMM:   6    -0.413180816524E+03   -0.29919E-04   -0.85923E-04  5856   0.272E-02    0.202E-02
RMM:   7    -0.413180820020E+03   -0.34960E-05   -0.16123E-04  5529   0.124E-02    0.131E-02
RMM:   8    -0.413180806682E+03    0.13338E-04   -0.27627E-05  4596   0.597E-03    0.580E-03
RMM:   9    -0.413180805216E+03    0.14654E-05   -0.51932E-06  3046   0.289E-03    0.464E-03
RMM:  10    -0.413180802978E+03    0.22380E-05   -0.10422E-06  2495   0.181E-03    0.278E-03
RMM:  11    -0.413180800083E+03    0.28956E-05   -0.77474E-07  2470   0.148E-03    0.137E-03
RMM:  12    -0.413180796824E+03    0.32585E-05   -0.53016E-07  2290   0.117E-03    0.516E-04
RMM:  13    -0.413180795893E+03    0.93136E-06   -0.20503E-07  1716   0.803E-04
   28 T=    64. E= -.41286649E+03 F= -.41318080E+03 E0= -.41315915E+03  EK= 0.31431E+00 SP= 0.00E+00 SK= 0.00E+00
       N       E                     dE             d eps       ncg     rms          rms(c)
RMM:   1    -0.413176571485E+03    0.42253E-02   -0.10914E+01  4291   0.810E-01    0.929E-01
RMM:   2    -0.413184818904E+03   -0.82474E-02   -0.13380E-01  4275   0.106E-01    0.652E-01
RMM:   3    -0.413182898890E+03    0.19200E-02   -0.92451E-03  4445   0.460E-02    0.142E-01
RMM:   4    -0.413191578838E+03   -0.86799E-02   -0.90856E-03  5161   0.798E-02    0.392E-01
RMM:   5    -0.413182861594E+03    0.87172E-02   -0.44553E-03  4834   0.645E-02    0.350E-02
RMM:   6    -0.413182879729E+03   -0.18135E-04   -0.76238E-04  5824   0.260E-02    0.220E-02
RMM:   7    -0.413182873649E+03    0.60796E-05   -0.18508E-04  5439   0.134E-02    0.139E-02
RMM:   8    -0.413182858138E+03    0.15511E-04   -0.21352E-05  4384   0.567E-03    0.587E-03
RMM:   9    -0.413182854416E+03    0.37220E-05   -0.42086E-06  2918   0.261E-03    0.439E-03
RMM:  10    -0.413182848762E+03    0.56535E-05   -0.11782E-06  2488   0.184E-03    0.247E-03
RMM:  11    -0.413182841984E+03    0.67785E-05   -0.79197E-07  2463   0.152E-03    0.118E-03
RMM:  12    -0.413182836362E+03    0.56217E-05   -0.43344E-07  2245   0.113E-03    0.539E-04
RMM:  13    -0.413182834202E+03    0.21602E-05   -0.19737E-07  1718   0.798E-04    0.253E-04
RMM:  14    -0.413182831134E+03    0.30681E-05   -0.11623E-07  1303   0.688E-04    0.158E-04
RMM:  15    -0.413182826009E+03    0.51247E-05   -0.10730E-07  1371   0.686E-04    0.103E-04
RMM:  16    -0.413182824750E+03    0.12593E-05   -0.48332E-08   960   0.590E-04    0.814E-05
RMM:  17    -0.413182820469E+03    0.42811E-05   -0.73021E-08  1278   0.635E-04    0.509E-05
RMM:  18    -0.413182818506E+03    0.19624E-05   -0.37713E-08   955   0.555E-04    0.256E-05
RMM:  19    -0.413182818152E+03    0.35473E-06   -0.13104E-08   691   0.511E-04
   29 T=    64. E= -.41286669E+03 F= -.41318282E+03 E0= -.41316122E+03  EK= 0.31613E+00 SP= 0.00E+00 SK= 0.00E+00
       N       E                     dE             d eps       ncg     rms          rms(c)
RMM:   1    -0.413177787710E+03    0.50308E-02   -0.10859E+01  4284   0.812E-01    0.908E-01
RMM:   2    -0.413187001678E+03   -0.92140E-02   -0.13496E-01  4270   0.111E-01    0.651E-01
RMM:   3    -0.413184822461E+03    0.21792E-02   -0.90173E-03  4437   0.484E-02    0.138E-01
RMM:   4    -0.413193375933E+03   -0.85535E-02   -0.90262E-03  5162   0.802E-02    0.390E-01
RMM:   5    -0.413184734201E+03    0.86417E-02   -0.44050E-03  4835   0.642E-02    0.343E-02
RMM:   6    -0.413184753652E+03   -0.19452E-04   -0.73702E-04  5828   0.257E-02    0.221E-02
RMM:   7    -0.413184750413E+03    0.32388E-05   -0.18469E-04  5421   0.134E-02    0.137E-02
RMM:   8    -0.413184736569E+03    0.13845E-04   -0.21257E-05  4384   0.567E-03    0.573E-03
RMM:   9    -0.413184734262E+03    0.23065E-05   -0.39866E-06  2892   0.258E-03    0.422E-03
RMM:  10    -0.413184730701E+03    0.35618E-05   -0.11544E-06  2488   0.179E-03    0.238E-03
RMM:  11    -0.413184726567E+03    0.41337E-05   -0.76011E-07  2457   0.147E-03    0.115E-03
RMM:  12    -0.413184723038E+03    0.35289E-05   -0.42560E-07  2229   0.110E-03    0.523E-04
RMM:  13    -0.413184721620E+03    0.14183E-05   -0.18816E-07  1643   0.781E-04    0.236E-04
RMM:  14    -0.413184719624E+03    0.19955E-05   -0.11176E-07  1220   0.677E-04    0.140E-04
RMM:  15    -0.413184716553E+03    0.30713E-05   -0.91715E-08  1200   0.662E-04    0.743E-05
RMM:  16    -0.413184715551E+03    0.10022E-05   -0.48651E-08   936   0.600E-04    0.583E-05
RMM:  17    -0.413184712901E+03    0.26501E-05   -0.59317E-08  1138   0.621E-04    0.424E-05
RMM:  18    -0.413184711312E+03    0.15886E-05   -0.35809E-08   926   0.571E-04    0.227E-05
RMM:  19    -0.413184710857E+03    0.45514E-06   -0.15493E-08   698   0.533E-04
   30 T=    65. E= -.41286672E+03 F= -.41318471E+03 E0= -.41316316E+03  EK= 0.31799E+00 SP= 0.00E+00 SK= 0.00E+00
       N       E                     dE             d eps       ncg     rms          rms(c)
RMM:   1    -0.413183081905E+03    0.16294E-02   -0.11016E+01  4292   0.886E-01    0.909E-01
RMM:   2    -0.413189342008E+03   -0.62601E-02   -0.14276E-01  4276   0.122E-01    0.665E-01
RMM:   3    -0.413186337367E+03    0.30046E-02   -0.91348E-03  4386   0.486E-02    0.135E-01
RMM:   4    -0.413191863937E+03   -0.55266E-02   -0.61118E-03  5145   0.664E-02    0.313E-01
RMM:   5    -0.413186356448E+03    0.55075E-02   -0.27764E-03  4822   0.513E-02    0.324E-02
RMM:   6    -0.413186368538E+03   -0.12090E-04   -0.51478E-04  5781   0.218E-02    0.220E-02
RMM:   7    -0.413186363337E+03    0.52003E-05   -0.16825E-04  5271   0.127E-02    0.125E-02
RMM:   8    -0.413186353900E+03    0.94369E-05   -0.14058E-05  4001   0.492E-03    0.542E-03
RMM:   9    -0.413186352701E+03    0.11991E-05   -0.23411E-06  2671   0.217E-03    0.360E-03
RMM:  10    -0.413186350557E+03    0.21447E-05   -0.10923E-06  2480   0.168E-03    0.188E-03
RMM:  11    -0.413186348412E+03    0.21442E-05   -0.64733E-07  2398   0.131E-03    0.857E-04
RMM:  12    -0.413186346588E+03    0.18246E-05   -0.33979E-07  2062   0.972E-04    0.388E-04
RMM:  13    -0.413186345525E+03    0.10631E-05   -0.16306E-07  1380   0.731E-04    0.207E-04
RMM:  14    -0.413186343986E+03    0.15389E-05   -0.10947E-07  1141   0.671E-04    0.126E-04
RMM:  15    -0.413186341831E+03    0.21548E-05   -0.93082E-08  1141   0.660E-04    0.662E-05
RMM:  16    -0.413186341035E+03    0.79595E-06   -0.47684E-08   931   0.601E-04
   31 T=    65. E= -.41286649E+03 F= -.41318634E+03 E0= -.41316484E+03  EK= 0.31985E+00 SP= 0.00E+00 SK= 0.00E+00
       N       E                     dE             d eps       ncg     rms          rms(c)
RMM:   1    -0.413182578187E+03    0.37636E-02   -0.11044E+01  4292   0.841E-01    0.934E-01
RMM:   2    -0.413191266359E+03   -0.86882E-02   -0.13790E-01  4282   0.122E-01    0.660E-01
RMM:   3    -0.413188984277E+03    0.22821E-02   -0.95275E-03  4277   0.516E-02    0.140E-01
RMM:   4    -0.413190728886E+03   -0.17446E-02   -0.25534E-03  5101   0.426E-02    0.176E-01
RMM:   5    -0.413189016559E+03    0.17123E-02   -0.88080E-04  4806   0.296E-02    0.336E-02
RMM:   6    -0.413189016057E+03    0.50232E-06   -0.28544E-04  5529   0.171E-02    0.245E-02
RMM:   7    -0.413188989187E+03    0.26870E-04   -0.15197E-04  4988   0.121E-02    0.121E-02
RMM:   8    -0.413188984504E+03    0.46828E-05   -0.11300E-05  3622   0.422E-03    0.489E-03
RMM:   9    -0.413188982526E+03    0.19789E-05   -0.16758E-06  2493   0.194E-03    0.281E-03
RMM:  10    -0.413188974942E+03    0.75839E-05   -0.85315E-07  2452   0.151E-03    0.129E-03
RMM:  11    -0.413188970937E+03    0.40043E-05   -0.38773E-07  2114   0.101E-03    0.545E-04
RMM:  12    -0.413188966096E+03    0.48416E-05   -0.23596E-07  1798   0.848E-04    0.234E-04
RMM:  13    -0.413188963136E+03    0.29595E-05   -0.11901E-07  1276   0.683E-04    0.149E-04
RMM:  14    -0.413188958458E+03    0.46784E-05   -0.92365E-08  1190   0.658E-04    0.103E-04
RMM:  15    -0.413188954185E+03    0.42731E-05   -0.78011E-08  1214   0.636E-04    0.783E-05
RMM:  16    -0.413188951801E+03    0.23832E-05   -0.48842E-08  1008   0.577E-04    0.596E-05
RMM:  17    -0.413188949491E+03    0.23098E-05   -0.35930E-08   862   0.551E-04    0.277E-05
RMM:  18    -0.413188948795E+03    0.69622E-06   -0.18879E-08   698   0.523E-04
   32 T=    66. E= -.41286687E+03 F= -.41318895E+03 E0= -.41316750E+03  EK= 0.32208E+00 SP= 0.00E+00 SK= 0.00E+00
       N       E                     dE             d eps       ncg     rms          rms(c)
RMM:   1    -0.413184276198E+03    0.46733E-02   -0.11006E+01  4285   0.853E-01    0.922E-01
RMM:   2    -0.413193379278E+03   -0.91031E-02   -0.13886E-01  4279   0.128E-01    0.656E-01
RMM:   3    -0.413190823898E+03    0.25554E-02   -0.92620E-03  4241   0.471E-02    0.141E-01
RMM:   4    -0.413191925597E+03   -0.11017E-02   -0.19381E-03  5082   0.376E-02    0.138E-01
RMM:   5    -0.413190917219E+03    0.10084E-02   -0.52572E-04  4766   0.234E-02    0.332E-02
RMM:   6    -0.413190911343E+03    0.58752E-05   -0.22276E-04  5475   0.154E-02    0.241E-02
RMM:   7    -0.413190888236E+03    0.23107E-04   -0.14750E-04  4914   0.114E-02    0.129E-02
RMM:   8    -0.413190883574E+03    0.46625E-05   -0.10822E-05  3557   0.415E-03    0.497E-03
RMM:   9    -0.413190882023E+03    0.15512E-05   -0.19712E-06  2442   0.190E-03    0.239E-03
RMM:  10    -0.413190875171E+03    0.68516E-05   -0.78335E-07  2333   0.143E-03    0.108E-03
RMM:  11    -0.413190871669E+03    0.35017E-05   -0.31741E-07  1951   0.935E-04    0.529E-04
RMM:  12    -0.413190867129E+03    0.45401E-05   -0.19551E-07  1554   0.789E-04    0.216E-04
RMM:  13    -0.413190864075E+03    0.30541E-05   -0.94616E-08   990   0.650E-04    0.131E-04
RMM:  14    -0.413190860013E+03    0.40623E-05   -0.76030E-08  1028   0.641E-04    0.107E-04
RMM:  15    -0.413190855150E+03    0.48631E-05   -0.81230E-08  1189   0.642E-04    0.619E-05
RMM:  16    -0.413190853418E+03    0.17315E-05   -0.34855E-08   749   0.543E-04    0.459E-05
RMM:  17    -0.413190851658E+03    0.17599E-05   -0.25004E-08   679   0.525E-04    0.214E-05
RMM:  18    -0.413190851083E+03    0.57519E-06   -0.12956E-08   544   0.502E-04
   33 T=    66. E= -.41286664E+03 F= -.41319085E+03 E0= -.41316945E+03  EK= 0.32421E+00 SP= 0.00E+00 SK= 0.00E+00
       N       E                     dE             d eps       ncg     rms          rms(c)
RMM:   1    -0.413202222221E+03   -0.11371E-01   -0.11262E+01  4295   0.992E-01    0.913E-01
RMM:   2    -0.413196035330E+03    0.61869E-02   -0.15575E-01  4277   0.136E-01    0.671E-01
RMM:   3    -0.413193362347E+03    0.26730E-02   -0.90435E-03  4265   0.533E-02    0.148E-01
RMM:   4    -0.413195194661E+03   -0.18323E-02   -0.27851E-03  5098   0.458E-02    0.181E-01
RMM:   5    -0.413193409775E+03    0.17849E-02   -0.88356E-04  4767   0.301E-02    0.324E-02
RMM:   6    -0.413193404543E+03    0.52317E-05   -0.26046E-04  5607   0.166E-02    0.229E-02
RMM:   7    -0.413193390832E+03    0.13711E-04   -0.15579E-04  4993   0.119E-02    0.129E-02
RMM:   8    -0.413193385180E+03    0.56522E-05   -0.10280E-05  3513   0.416E-03    0.507E-03
RMM:   9    -0.413193384232E+03    0.94763E-06   -0.17736E-06  2483   0.189E-03
   34 T=    67. E= -.41286669E+03 F= -.41319338E+03 E0= -.41317203E+03  EK= 0.32669E+00 SP= 0.00E+00 SK= 0.00E+00
       N       E                     dE             d eps       ncg     rms          rms(c)
RMM:   1    -0.413189908997E+03    0.34762E-02   -0.11201E+01  4301   0.892E-01    0.939E-01
RMM:   2    -0.413198514411E+03   -0.86054E-02   -0.14364E-01  4269   0.130E-01    0.670E-01
RMM:   3    -0.413196104888E+03    0.24095E-02   -0.95488E-03  4337   0.524E-02    0.142E-01
RMM:   4    -0.413197046484E+03   -0.94160E-03   -0.19205E-03  5125   0.354E-02    0.131E-01
RMM:   5    -0.413196142967E+03    0.90352E-03   -0.50942E-04  4792   0.231E-02    0.359E-02
RMM:   6    -0.413196122325E+03    0.20643E-04   -0.21401E-04  5409   0.153E-02    0.267E-02
RMM:   7    -0.413196099725E+03    0.22600E-04   -0.16267E-04  4820   0.107E-02    0.144E-02
RMM:   8    -0.413196094659E+03    0.50659E-05   -0.11776E-05  3641   0.411E-03    0.560E-03
RMM:   9    -0.413196093062E+03    0.15967E-05   -0.26163E-06  2472   0.185E-03    0.232E-03
RMM:  10    -0.413196084210E+03    0.88517E-05   -0.91286E-07  2378   0.144E-03    0.927E-04
RMM:  11    -0.413196079658E+03    0.45527E-05   -0.34585E-07  2003   0.961E-04    0.461E-04
RMM:  12    -0.413196074837E+03    0.48209E-05   -0.20010E-07  1612   0.782E-04    0.220E-04
RMM:  13    -0.413196070630E+03    0.42065E-05   -0.10666E-07  1060   0.653E-04    0.141E-04
RMM:  14    -0.413196064466E+03    0.61647E-05   -0.10533E-07  1235   0.671E-04    0.140E-04
RMM:  15    -0.413196059158E+03    0.53080E-05   -0.89786E-08  1270   0.637E-04    0.831E-05
RMM:  16    -0.413196056623E+03    0.25346E-05   -0.46756E-08   946   0.548E-04    0.455E-05
RMM:  17    -0.413196054603E+03    0.20195E-05   -0.33044E-08   815   0.528E-04    0.250E-05
RMM:  18    -0.413196054126E+03    0.47699E-06   -0.16256E-08   612   0.497E-04
   35 T=    67. E= -.41286684E+03 F= -.41319605E+03 E0= -.41317475E+03  EK= 0.32921E+00 SP= 0.00E+00 SK= 0.00E+00
       N       E                     dE             d eps       ncg     rms          rms(c)
RMM:   1    -0.413193452439E+03    0.26022E-02   -0.11209E+01  4297   0.939E-01    0.938E-01
RMM:   2    -0.413200295059E+03   -0.68426E-02   -0.14492E-01  4259   0.131E-01    0.664E-01
RMM:   3    -0.413198288352E+03    0.20067E-02   -0.97221E-03  4677   0.539E-02    0.161E-01
RMM:   4    -0.413223748828E+03   -0.25460E-01   -0.25739E-02  5161   0.135E-01    0.667E-01
RMM:   5    -0.413198037862E+03    0.25711E-01   -0.13064E-02  4806   0.111E-01    0.436E-02
RMM:   6    -0.413198067204E+03   -0.29343E-04   -0.20790E-03  5851   0.433E-02    0.273E-02
RMM:   7    -0.413198072859E+03   -0.56542E-05   -0.28296E-04  5689   0.157E-02    0.152E-02
RMM:   8    -0.413198061394E+03    0.11465E-04   -0.54937E-05  4990   0.766E-03    0.895E-03
RMM:   9    -0.413198057587E+03    0.38070E-05   -0.14481E-05  4197   0.440E-03    0.630E-03
RMM:  10    -0.413198051112E+03    0.64750E-05   -0.19136E-06  2580   0.225E-03    0.370E-03
RMM:  11    -0.413198046676E+03    0.44356E-05   -0.10326E-06  2490   0.166E-03    0.224E-03
RMM:  12    -0.413198036730E+03    0.99460E-05   -0.13205E-06  2495   0.189E-03    0.106E-03
RMM:  13    -0.413198032715E+03    0.40154E-05   -0.47480E-07  2304   0.123E-03    0.620E-04
RMM:  14    -0.413198032253E+03    0.46142E-06   -0.19980E-07  1772   0.810E-04
   36 T=    67. E= -.41286650E+03 F= -.41319803E+03 E0= -.41317677E+03  EK= 0.33153E+00 SP= 0.00E+00 SK= 0.00E+00
       N       E                     dE             d eps       ncg     rms          rms(c)
RMM:   1    -0.413205900188E+03   -0.78675E-02   -0.11360E+01  4304   0.103E+00    0.921E-01
RMM:   2    -0.413204123284E+03    0.17769E-02   -0.16096E-01  4260   0.140E-01    0.676E-01
RMM:   3    -0.413201295168E+03    0.28281E-02   -0.91745E-03  4609   0.545E-02    0.165E-01
RMM:   4    -0.413221259255E+03   -0.19964E-01   -0.20350E-02  5162   0.121E-01    0.593E-01
RMM:   5    -0.413201116794E+03    0.20142E-01   -0.10193E-02  4810   0.984E-02    0.414E-02
RMM:   6    -0.413201128448E+03   -0.11653E-04   -0.16585E-03  5834   0.387E-02    0.266E-02
RMM:   7    -0.413201136380E+03   -0.79318E-05   -0.27326E-04  5626   0.153E-02    0.156E-02
RMM:   8    -0.413201123277E+03    0.13103E-04   -0.52226E-05  4986   0.776E-03    0.783E-03
RMM:   9    -0.413201120950E+03    0.23271E-05   -0.10368E-05  3741   0.392E-03    0.511E-03
RMM:  10    -0.413201116960E+03    0.39900E-05   -0.14965E-06  2550   0.202E-03    0.311E-03
RMM:  11    -0.413201112925E+03    0.40346E-05   -0.95771E-07  2494   0.158E-03    0.161E-03
RMM:  12    -0.413201107154E+03    0.57708E-05   -0.87250E-07  2442   0.148E-03    0.723E-04
RMM:  13    -0.413201104880E+03    0.22740E-05   -0.33829E-07  2089   0.998E-04    0.436E-04
RMM:  14    -0.413201104109E+03    0.77088E-06   -0.15776E-07  1421   0.728E-04
   37 T=    68. E= -.41286679E+03 F= -.41320110E+03 E0= -.41317989E+03  EK= 0.33432E+00 SP= 0.00E+00 SK= 0.00E+00
       N       E                     dE             d eps       ncg     rms          rms(c)
RMM:   1    -0.413207698899E+03   -0.65940E-02   -0.11467E+01  4306   0.106E+00    0.942E-01
RMM:   2    -0.413206720344E+03    0.97855E-03   -0.15330E-01  4261   0.131E-01    0.680E-01
RMM:   3    -0.413203773483E+03    0.29469E-02   -0.99091E-03  4736   0.545E-02    0.166E-01
RMM:   4    -0.413234970213E+03   -0.31197E-01   -0.31738E-02  5149   0.149E-01    0.736E-01
RMM:   5    -0.413203396579E+03    0.31574E-01   -0.16061E-02  4810   0.123E-01    0.460E-02
RMM:   6    -0.413203444202E+03   -0.47623E-04   -0.24786E-03  5836   0.473E-02    0.286E-02
RMM:   7    -0.413203453689E+03   -0.94874E-05   -0.33496E-04  5730   0.167E-02    0.163E-02
RMM:   8    -0.413203442580E+03    0.11109E-04   -0.63978E-05  5061   0.823E-03    0.956E-03
RMM:   9    -0.413203438944E+03    0.36364E-05   -0.16989E-05  4366   0.473E-03    0.615E-03
RMM:  10    -0.413203433401E+03    0.55434E-05   -0.23511E-06  2625   0.234E-03    0.373E-03
RMM:  11    -0.413203429440E+03    0.39601E-05   -0.11533E-06  2495   0.173E-03    0.219E-03
RMM:  12    -0.413203421022E+03    0.84183E-05   -0.12947E-06  2498   0.186E-03    0.996E-04
RMM:  13    -0.413203417347E+03    0.36754E-05   -0.48519E-07  2300   0.123E-03    0.657E-04
RMM:  14    -0.413203417086E+03    0.26033E-06   -0.20799E-07  1806   0.818E-04
   38 T=    69. E= -.41286657E+03 F= -.41320342E+03 E0= -.41318224E+03  EK= 0.33685E+00 SP= 0.00E+00 SK= 0.00E+00
       N       E                     dE             d eps       ncg     rms          rms(c)
RMM:   1    -0.413206057411E+03   -0.26401E-02   -0.11448E+01  4303   0.106E+00    0.955E-01
RMM:   2    -0.413208833402E+03   -0.27760E-02   -0.15172E-01  4265   0.125E-01    0.674E-01
RMM:   3    -0.413206651055E+03    0.21823E-02   -0.10325E-02  4942   0.541E-02    0.190E-01
RMM:   4    -0.413251991220E+03   -0.45340E-01   -0.47953E-02  5140   0.182E-01    0.883E-01
RMM:   5    -0.413205848445E+03    0.46143E-01   -0.23046E-02  4792   0.148E-01    0.533E-02
RMM:   6    -0.413205974063E+03   -0.12562E-03   -0.36743E-03  5831   0.569E-02    0.316E-02
RMM:   7    -0.413205982038E+03   -0.79749E-05   -0.41113E-04  5726   0.183E-02    0.168E-02
RMM:   8    -0.413205973225E+03    0.88125E-05   -0.52995E-05  4821   0.699E-03    0.873E-03
RMM:   9    -0.413205964816E+03    0.84089E-05   -0.12685E-05  3660   0.375E-03    0.555E-03
RMM:  10    -0.413205961626E+03    0.31899E-05   -0.31850E-06  2701   0.241E-03    0.394E-03
RMM:  11    -0.413205954493E+03    0.71333E-05   -0.13728E-06  2495   0.200E-03    0.221E-03
RMM:  12    -0.413205942995E+03    0.11498E-04   -0.13263E-06  2491   0.193E-03    0.907E-04
RMM:  13    -0.413205940083E+03    0.29120E-05   -0.45480E-07  2355   0.124E-03    0.647E-04
RMM:  14    -0.413205939694E+03    0.38887E-06   -0.20460E-07  1859   0.822E-04
   39 T=    69. E= -.41286659E+03 F= -.41320594E+03 E0= -.41318480E+03  EK= 0.33935E+00 SP= 0.00E+00 SK= 0.00E+00
       N       E                     dE             d eps       ncg     rms          rms(c)
RMM:   1    -0.413215676951E+03   -0.97369E-02   -0.11515E+01  4308   0.115E+00    0.933E-01
RMM:   2    -0.413212182108E+03    0.34948E-02   -0.15842E-01  4267   0.133E-01    0.679E-01
RMM:   3    -0.413209689399E+03    0.24927E-02   -0.10153E-02  4962   0.566E-02    0.200E-01
RMM:   4    -0.413260224071E+03   -0.50535E-01   -0.54475E-02  5133   0.194E-01    0.931E-01
RMM:   5    -0.413208604926E+03    0.51619E-01   -0.25383E-02  4785   0.157E-01    0.557E-02
RMM:   6    -0.413208773822E+03   -0.16890E-03   -0.42461E-03  5819   0.600E-02    0.316E-02
RMM:   7    -0.413208788072E+03   -0.14251E-04   -0.45693E-04  5772   0.188E-02    0.177E-02
RMM:   8    -0.413208784824E+03    0.32484E-05   -0.72256E-05  5086   0.804E-03    0.104E-02
RMM:   9    -0.413208777613E+03    0.72105E-05   -0.24830E-05  4606   0.516E-03    0.706E-03
RMM:  10    -0.413208773482E+03    0.41312E-05   -0.50257E-06  2931   0.301E-03    0.415E-03
RMM:  11    -0.413208769450E+03    0.40325E-05   -0.18669E-06  2535   0.218E-03    0.250E-03
RMM:  12    -0.413208761481E+03    0.79687E-05   -0.14389E-06  2500   0.201E-03    0.817E-04
RMM:  13    -0.413208758352E+03    0.31293E-05   -0.55845E-07  2382   0.133E-03    0.658E-04
RMM:  14    -0.413208757665E+03    0.68644E-06   -0.23744E-07  1974   0.885E-04
   40 T=    70. E= -.41286684E+03 F= -.41320876E+03 E0= -.41318766E+03  EK= 0.34191E+00 SP= 0.00E+00 SK= 0.00E+00
       N       E                     dE             d eps       ncg     rms          rms(c)
RMM:   1    -0.413239293477E+03   -0.30535E-01   -0.11854E+01  4309   0.128E+00    0.944E-01
RMM:   2    -0.413214167930E+03    0.25126E-01   -0.18410E-01  4275   0.145E-01    0.693E-01
RMM:   3    -0.413212384327E+03    0.17836E-02   -0.10269E-02  5040   0.610E-02    0.256E-01
RMM:   4    -0.413270159452E+03   -0.57775E-01   -0.66078E-02  5129   0.214E-01    0.100E+00
RMM:   5    -0.413210458203E+03    0.59701E-01   -0.28969E-02  4776   0.169E-01    0.612E-02
RMM:   6    -0.413210648554E+03   -0.19035E-03   -0.47261E-03  5807   0.644E-02    0.331E-02
RMM:   7    -0.413210667057E+03   -0.18503E-04   -0.56309E-04  5877   0.206E-02    0.219E-02
RMM:   8    -0.413210667100E+03   -0.43125E-07   -0.12310E-04  5284   0.107E-02    0.136E-02
RMM:   9    -0.413210653464E+03    0.13636E-04   -0.26485E-05  4647   0.597E-03    0.600E-03
RMM:  10    -0.413210649207E+03    0.42575E-05   -0.57297E-06  2970   0.300E-03    0.372E-03
RMM:  11    -0.413210645625E+03    0.35821E-05   -0.15406E-06  2509   0.203E-03    0.217E-03
RMM:  12    -0.413210639485E+03    0.61396E-05   -0.10471E-06  2484   0.173E-03    0.721E-04
RMM:  13    -0.413210636103E+03    0.33823E-05   -0.49864E-07  2340   0.122E-03    0.412E-04
RMM:  14    -0.413210634558E+03    0.15451E-05   -0.24659E-07  1915   0.872E-04    0.293E-04
RMM:  15    -0.413210631522E+03    0.30358E-05   -0.14271E-07  1395   0.718E-04    0.129E-04
RMM:  16    -0.413210628652E+03    0.28702E-05   -0.96762E-08  1177   0.661E-04    0.105E-04
RMM:  17    -0.413210626513E+03    0.21389E-05   -0.66011E-08  1078   0.628E-04    0.738E-05
RMM:  18    -0.413210623872E+03    0.26411E-05   -0.58126E-08  1143   0.627E-04    0.432E-05
RMM:  19    -0.413210621794E+03    0.20781E-05   -0.42787E-08  1061   0.601E-04    0.322E-05
RMM:  20    -0.413210621263E+03    0.53113E-06   -0.21876E-08   823   0.555E-04
   41 T=    70. E= -.41286657E+03 F= -.41321062E+03 E0= -.41318955E+03  EK= 0.34405E+00 SP= 0.00E+00 SK= 0.00E+00
       N       E                     dE             d eps       ncg     rms          rms(c)
RMM:   1    -0.413213964428E+03   -0.33426E-02   -0.11600E+01  4308   0.120E+00    0.968E-01
RMM:   2    -0.413215859449E+03   -0.18950E-02   -0.15695E-01  4290   0.138E-01    0.684E-01
RMM:   3    -0.413216703868E+03   -0.84442E-03   -0.13154E-02  5087   0.747E-02    0.303E-01
RMM:   4    -0.413253363467E+03   -0.36660E-01   -0.52580E-02  5094   0.193E-01    0.830E-01
RMM:   5    -0.413212996552E+03    0.40367E-01   -0.18019E-02  4738   0.138E-01    0.580E-02
RMM:   6    -0.413213069078E+03   -0.72526E-04   -0.31281E-03  5759   0.528E-02    0.322E-02
RMM:   7    -0.413213075646E+03   -0.65681E-05   -0.42687E-04  5792   0.186E-02    0.212E-02
RMM:   8    -0.413213071314E+03    0.43328E-05   -0.11175E-04  5199   0.106E-02    0.119E-02
RMM:   9    -0.413213057196E+03    0.14118E-04   -0.19870E-05  4424   0.548E-03    0.479E-03
RMM:  10    -0.413213052007E+03    0.51891E-05   -0.41141E-06  2806   0.260E-03    0.302E-03
RMM:  11    -0.413213046409E+03    0.55977E-05   -0.12284E-06  2497   0.184E-03    0.164E-03
RMM:  12    -0.413213038608E+03    0.78009E-05   -0.72068E-07  2450   0.148E-03    0.624E-04
RMM:  13    -0.413213034465E+03    0.41437E-05   -0.35199E-07  2133   0.103E-03    0.301E-04
RMM:  14    -0.413213031788E+03    0.26771E-05   -0.18641E-07  1591   0.781E-04    0.190E-04
RMM:  15    -0.413213026018E+03    0.57700E-05   -0.13079E-07  1337   0.716E-04    0.131E-04
RMM:  16    -0.413213023781E+03    0.22370E-05   -0.81369E-08  1141   0.652E-04    0.885E-05
RMM:  17    -0.413213020368E+03    0.34124E-05   -0.69429E-08  1205   0.647E-04    0.620E-05
RMM:  18    -0.413213017476E+03    0.28923E-05   -0.54081E-08  1155   0.614E-04    0.366E-05
RMM:  19    -0.413213015538E+03    0.19383E-05   -0.36922E-08  1008   0.574E-04    0.303E-05
RMM:  20    -0.413213015251E+03    0.28639E-06   -0.17950E-08   747   0.534E-04
   42 T=    70. E= -.41286678E+03 F= -.41321302E+03 E0= -.41319198E+03  EK= 0.34623E+00 SP= 0.00E+00 SK= 0.00E+00
       N       E                     dE             d eps       ncg     rms          rms(c)
RMM:   1    -0.413223264989E+03   -0.10249E-01   -0.11613E+01  4309   0.130E+00    0.945E-01
RMM:   2    -0.413217838034E+03    0.54270E-02   -0.16451E-01  4299   0.148E-01    0.684E-01
RMM:   3    -0.413219631203E+03   -0.17932E-02   -0.13617E-02  5090   0.817E-02    0.335E-01
RMM:   4    -0.413252899532E+03   -0.33268E-01   -0.52313E-02  5085   0.193E-01    0.806E-01
RMM:   5    -0.413214912912E+03    0.37987E-01   -0.16542E-02  4716   0.134E-01    0.580E-02
RMM:   6    -0.413214966155E+03   -0.53243E-04   -0.28976E-03  5746   0.510E-02    0.315E-02
RMM:   7    -0.413214969845E+03   -0.36900E-05   -0.40080E-04  5802   0.181E-02    0.212E-02
RMM:   8    -0.413214966232E+03    0.36129E-05   -0.10700E-04  5170   0.105E-02    0.112E-02
RMM:   9    -0.413214954134E+03    0.12098E-04   -0.19440E-05  4403   0.545E-03    0.435E-03
RMM:  10    -0.413214950705E+03    0.34289E-05   -0.37676E-06  2760   0.251E-03    0.271E-03
RMM:  11    -0.413214946297E+03    0.44087E-05   -0.12675E-06  2498   0.183E-03    0.146E-03
RMM:  12    -0.413214941073E+03    0.52241E-05   -0.66876E-07  2430   0.141E-03    0.596E-04
RMM:  13    -0.413214938086E+03    0.29865E-05   -0.32864E-07  1979   0.977E-04    0.269E-04
RMM:  14    -0.413214935602E+03    0.24837E-05   -0.18445E-07  1481   0.767E-04    0.158E-04
RMM:  15    -0.413214931245E+03    0.43577E-05   -0.13784E-07  1277   0.713E-04    0.108E-04
RMM:  16    -0.413214929514E+03    0.17303E-05   -0.87342E-08  1144   0.656E-04    0.786E-05
RMM:  17    -0.413214926242E+03    0.32722E-05   -0.79496E-08  1261   0.657E-04    0.577E-05
RMM:  18    -0.413214924106E+03    0.21357E-05   -0.54590E-08  1095   0.607E-04    0.400E-05
RMM:  19    -0.413214923018E+03    0.10879E-05   -0.32122E-08   892   0.563E-04    0.238E-05
RMM:  20    -0.413214922570E+03    0.44820E-06   -0.19651E-08   754   0.540E-04
   43 T=    71. E= -.41286685E+03 F= -.41321492E+03 E0= -.41319392E+03  EK= 0.34807E+00 SP= 0.00E+00 SK= 0.00E+00
       N       E                     dE             d eps       ncg     rms          rms(c)
RMM:   1    -0.413238393134E+03   -0.23470E-01   -0.11852E+01  4310   0.141E+00    0.946E-01
RMM:   2    -0.413219199731E+03    0.19193E-01   -0.18674E-01  4300   0.168E-01    0.700E-01
RMM:   3    -0.413221808148E+03   -0.26084E-02   -0.14208E-02  5077   0.895E-02    0.377E-01
RMM:   4    -0.413253920606E+03   -0.32112E-01   -0.54515E-02  5067   0.198E-01    0.808E-01
RMM:   5    -0.413215947840E+03    0.37973E-01   -0.16437E-02  4715   0.136E-01    0.602E-02
RMM:   6    -0.413215983240E+03   -0.35400E-04   -0.28206E-03  5715   0.507E-02    0.315E-02
RMM:   7    -0.413215987719E+03   -0.44789E-05   -0.39230E-04  5835   0.181E-02    0.218E-02
RMM:   8    -0.413215984541E+03    0.31780E-05   -0.10444E-04  5184   0.104E-02    0.110E-02
RMM:   9    -0.413215974322E+03    0.10218E-04   -0.20831E-05  4436   0.558E-03    0.417E-03
RMM:  10    -0.413215972018E+03    0.23037E-05   -0.38317E-06  2773   0.247E-03    0.251E-03
RMM:  11    -0.413215968688E+03    0.33307E-05   -0.14651E-06  2519   0.188E-03    0.142E-03
RMM:  12    -0.413215965368E+03    0.33194E-05   -0.63312E-07  2440   0.137E-03    0.622E-04
RMM:  13    -0.413215963177E+03    0.21915E-05   -0.32042E-07  1856   0.935E-04    0.276E-04
RMM:  14    -0.413215960941E+03    0.22355E-05   -0.19678E-07  1450   0.768E-04    0.152E-04
RMM:  15    -0.413215958033E+03    0.29081E-05   -0.14915E-07  1328   0.716E-04    0.973E-05
RMM:  16    -0.413215956345E+03    0.16879E-05   -0.95562E-08  1171   0.660E-04    0.750E-05
RMM:  17    -0.413215953816E+03    0.25294E-05   -0.84330E-08  1216   0.650E-04    0.473E-05
RMM:  18    -0.413215952054E+03    0.17624E-05   -0.57065E-08  1082   0.604E-04    0.410E-05
RMM:  19    -0.413215951166E+03    0.88777E-06   -0.33998E-08   873   0.562E-04
   44 T=    71. E= -.41286662E+03 F= -.41321595E+03 E0= -.41319497E+03  EK= 0.34933E+00 SP= 0.00E+00 SK= 0.00E+00
       N       E                     dE             d eps       ncg     rms          rms(c)
RMM:   1    -0.413229997021E+03   -0.14045E-01   -0.11743E+01  4308   0.145E+00    0.973E-01
RMM:   2    -0.413219797699E+03    0.10199E-01   -0.16865E-01  4331   0.170E-01    0.692E-01
RMM:   3    -0.413227611229E+03   -0.78135E-02   -0.19295E-02  5122   0.109E-01    0.467E-01
RMM:   4    -0.413238743879E+03   -0.11133E-01   -0.42764E-02  5036   0.179E-01    0.618E-01
RMM:   5    -0.413217223909E+03    0.21520E-01   -0.81277E-03  4619   0.105E-01    0.546E-02
RMM:   6    -0.413217197915E+03    0.25994E-04   -0.16235E-03  5535   0.390E-02    0.301E-02
RMM:   7    -0.413217198048E+03   -0.13257E-06   -0.26287E-04  5633   0.157E-02    0.203E-02
RMM:   8    -0.413217190115E+03    0.79323E-05   -0.10500E-04  5075   0.105E-02    0.963E-03
RMM:   9    -0.413217176822E+03    0.13294E-04   -0.15016E-05  4231   0.523E-03    0.388E-03
RMM:  10    -0.413217173132E+03    0.36893E-05   -0.24731E-06  2669   0.218E-03    0.226E-03
RMM:  11    -0.413217166523E+03    0.66090E-05   -0.11356E-06  2478   0.174E-03    0.125E-03
RMM:  12    -0.413217160815E+03    0.57083E-05   -0.53872E-07  2400   0.128E-03    0.621E-04
RMM:  13    -0.413217157167E+03    0.36480E-05   -0.25268E-07  1787   0.874E-04    0.296E-04
RMM:  14    -0.413217153544E+03    0.36227E-05   -0.14215E-07  1306   0.703E-04    0.153E-04
RMM:  15    -0.413217148607E+03    0.49375E-05   -0.11308E-07  1243   0.681E-04    0.116E-04
RMM:  16    -0.413217145833E+03    0.27735E-05   -0.74786E-08  1116   0.632E-04    0.104E-04
RMM:  17    -0.413217141758E+03    0.40749E-05   -0.67003E-08  1205   0.631E-04    0.606E-05
RMM:  18    -0.413217138728E+03    0.30305E-05   -0.53745E-08  1174   0.593E-04    0.487E-05
RMM:  19    -0.413217137980E+03    0.74779E-06   -0.24418E-08   785   0.518E-04
   45 T=    71. E= -.41286691E+03 F= -.41321714E+03 E0= -.41319618E+03  EK= 0.35022E+00 SP= 0.00E+00 SK= 0.00E+00
       N       E                     dE             d eps       ncg     rms          rms(c)
RMM:   1    -0.413252450612E+03   -0.35312E-01   -0.11843E+01  4308   0.162E+00    0.955E-01
RMM:   2    -0.413219498300E+03    0.32952E-01   -0.17866E-01  4353   0.185E-01    0.688E-01
RMM:   3    -0.413229821272E+03   -0.10323E-01   -0.21045E-02  5122   0.119E-01    0.520E-01
RMM:   4    -0.413234763262E+03   -0.49420E-02   -0.41386E-02  5016   0.177E-01    0.570E-01
RMM:   5    -0.413216844887E+03    0.17918E-01   -0.66902E-03  4587   0.986E-02    0.545E-02
RMM:   6    -0.413216794958E+03    0.49929E-04   -0.13020E-03  5384   0.356E-02    0.292E-02
RMM:   7    -0.413216793852E+03    0.11064E-05   -0.21505E-04  5613   0.144E-02    0.196E-02
RMM:   8    -0.413216786882E+03    0.69697E-05   -0.11417E-04  5086   0.109E-02    0.996E-03
RMM:   9    -0.413216772878E+03    0.14003E-04   -0.16149E-05  4315   0.548E-03    0.392E-03
RMM:  10    -0.413216769909E+03    0.29699E-05   -0.26650E-06  2682   0.219E-03    0.225E-03
RMM:  11    -0.413216763909E+03    0.59994E-05   -0.12821E-06  2489   0.182E-03    0.126E-03
RMM:  12    -0.413216759405E+03    0.45039E-05   -0.55169E-07  2414   0.131E-03    0.681E-04
RMM:  13    -0.413216755896E+03    0.35088E-05   -0.25549E-07  1757   0.884E-04    0.332E-04
RMM:  14    -0.413216752434E+03    0.34629E-05   -0.13850E-07  1318   0.702E-04    0.170E-04
RMM:  15    -0.413216748459E+03    0.39746E-05   -0.10249E-07  1192   0.664E-04    0.114E-04
RMM:  16    -0.413216745923E+03    0.25358E-05   -0.68779E-08  1080   0.617E-04    0.106E-04
RMM:  17    -0.413216742842E+03    0.30814E-05   -0.56780E-08  1080   0.608E-04    0.591E-05
RMM:  18    -0.413216739594E+03    0.32480E-05   -0.52510E-08  1132   0.599E-04    0.540E-05
RMM:  19    -0.413216739068E+03    0.52536E-06   -0.19567E-08   716   0.516E-04
   46 T=    71. E= -.41286668E+03 F= -.41321674E+03 E0= -.41319580E+03  EK= 0.35005E+00 SP= 0.00E+00 SK= 0.00E+00
       N       E                     dE             d eps       ncg     rms          rms(c)
RMM:   1    -0.413235174652E+03   -0.18435E-01   -0.11673E+01  4308   0.164E+00    0.942E-01
RMM:   2    -0.413218755593E+03    0.16419E-01   -0.18458E-01  4367   0.196E-01    0.701E-01
RMM:   3    -0.413230076401E+03   -0.11321E-01   -0.22125E-02  5125   0.126E-01    0.547E-01
RMM:   4    -0.413234198942E+03   -0.41225E-02   -0.44000E-02  5011   0.184E-01    0.579E-01
RMM:   5    -0.413215556303E+03    0.18643E-01   -0.69627E-03  4585   0.102E-01    0.563E-02
RMM:   6    -0.413215491923E+03    0.64380E-04   -0.13091E-03  5347   0.361E-02    0.293E-02
RMM:   7    -0.413215489494E+03    0.24283E-05   -0.21613E-04  5641   0.144E-02    0.201E-02
RMM:   8    -0.413215482918E+03    0.65768E-05   -0.11782E-04  5135   0.110E-02    0.103E-02
RMM:   9    -0.413215469755E+03    0.13162E-04   -0.17712E-05  4369   0.571E-03    0.398E-03
RMM:  10    -0.413215467776E+03    0.19799E-05   -0.29709E-06  2714   0.225E-03    0.230E-03
RMM:  11    -0.413215463711E+03    0.40644E-05   -0.13883E-06  2504   0.187E-03    0.131E-03
RMM:  12    -0.413215460766E+03    0.29449E-05   -0.58414E-07  2421   0.134E-03    0.708E-04
RMM:  13    -0.413215458085E+03    0.26818E-05   -0.28690E-07  1797   0.926E-04    0.342E-04
RMM:  14    -0.413215455597E+03    0.24880E-05   -0.16218E-07  1393   0.734E-04    0.180E-04
RMM:  15    -0.413215452849E+03    0.27474E-05   -0.11550E-07  1194   0.674E-04    0.107E-04
RMM:  16    -0.413215450827E+03    0.20226E-05   -0.79770E-08  1098   0.627E-04    0.966E-05
RMM:  17    -0.413215448812E+03    0.20144E-05   -0.61214E-08  1052   0.601E-04    0.535E-05
RMM:  18    -0.413215446299E+03    0.25129E-05   -0.59289E-08  1095   0.602E-04    0.452E-05
RMM:  19    -0.413215445876E+03    0.42337E-06   -0.21028E-08   690   0.525E-04
   47 T=    71. E= -.41286662E+03 F= -.41321545E+03 E0= -.41319452E+03  EK= 0.34882E+00 SP= 0.00E+00 SK= 0.00E+00
       N       E                     dE             d eps       ncg     rms          rms(c)
RMM:   1    -0.413250696664E+03   -0.35250E-01   -0.11747E+01  4303   0.179E+00    0.964E-01
RMM:   2    -0.413215890590E+03    0.34806E-01   -0.18892E-01  4422   0.204E-01    0.696E-01
RMM:   3    -0.413235108129E+03   -0.19218E-01   -0.28893E-02  5145   0.147E-01    0.661E-01
RMM:   4    -0.413224210075E+03    0.10898E-01   -0.40304E-02  4972   0.180E-01    0.464E-01
RMM:   5    -0.413213226086E+03    0.10984E-01   -0.47242E-03  4530   0.904E-02    0.580E-02
RMM:   6    -0.413213094499E+03    0.13159E-03   -0.59082E-04  4823   0.292E-02    0.295E-02
RMM:   7    -0.413213088569E+03    0.59301E-05   -0.19575E-04  5922   0.141E-02    0.158E-02
RMM:   8    -0.413213080104E+03    0.84649E-05   -0.10049E-04  5189   0.110E-02    0.121E-02
RMM:   9    -0.413213069085E+03    0.11019E-04   -0.19288E-05  4454   0.554E-03    0.459E-03
RMM:  10    -0.413213065478E+03    0.36068E-05   -0.30271E-06  2683   0.267E-03    0.231E-03
RMM:  11    -0.413213060155E+03    0.53234E-05   -0.20071E-06  2521   0.224E-03    0.157E-03
RMM:  12    -0.413213055962E+03    0.41922E-05   -0.73984E-07  2409   0.156E-03    0.927E-04
RMM:  13    -0.413213052274E+03    0.36885E-05   -0.32852E-07  2099   0.101E-03    0.550E-04
RMM:  14    -0.413213046625E+03    0.56487E-05   -0.22424E-07  1902   0.844E-04    0.414E-04
RMM:  15    -0.413213042859E+03    0.37664E-05   -0.10428E-07  1092   0.618E-04    0.164E-04
RMM:  16    -0.413213040649E+03    0.22094E-05   -0.70590E-08  1029   0.590E-04    0.929E-05
RMM:  17    -0.413213037150E+03    0.34998E-05   -0.65641E-08  1044   0.599E-04    0.741E-05
RMM:  18    -0.413213035432E+03    0.17178E-05   -0.38838E-08   901   0.563E-04    0.568E-05
RMM:  19    -0.413213034423E+03    0.10084E-05   -0.22005E-08   754   0.535E-04    0.404E-05
RMM:  20    -0.413213032659E+03    0.17645E-05   -0.26776E-08   881   0.549E-04    0.244E-05
RMM:  21    -0.413213032524E+03    0.13444E-06   -0.90263E-09   583   0.491E-04
   48 T=    70. E= -.41286690E+03 F= -.41321303E+03 E0= -.41319212E+03  EK= 0.34614E+00 SP= 0.00E+00 SK= 0.00E+00
       N       E                     dE             d eps       ncg     rms          rms(c)
RMM:   1    -0.413249016677E+03   -0.35984E-01   -0.11525E+01  4303   0.190E+00    0.953E-01
RMM:   2    -0.413210665026E+03    0.38352E-01   -0.18559E-01  4495   0.215E-01    0.684E-01
RMM:   3    -0.413237475845E+03   -0.26811E-01   -0.35401E-02  5154   0.165E-01    0.753E-01
RMM:   4    -0.413215352163E+03    0.22124E-01   -0.39714E-02  4947   0.181E-01    0.392E-01
RMM:   5    -0.413208168018E+03    0.71841E-02   -0.46105E-03  4691   0.900E-02    0.673E-02
RMM:   6    -0.413207949170E+03    0.21885E-03   -0.47441E-04  4648   0.304E-02    0.329E-02
RMM:   7    -0.413207954419E+03   -0.52490E-05   -0.24390E-04  5759   0.167E-02    0.239E-02
RMM:   8    -0.413207925627E+03    0.28792E-04   -0.82242E-05  4977   0.103E-02    0.932E-03
RMM:   9    -0.413207917608E+03    0.80188E-05   -0.16792E-05  4376   0.518E-03    0.430E-03
RMM:  10    -0.413207913034E+03    0.45746E-05   -0.22776E-06  2632   0.233E-03    0.254E-03
RMM:  11    -0.413207906560E+03    0.64736E-05   -0.93373E-07  2487   0.165E-03    0.155E-03
RMM:  12    -0.413207902844E+03    0.37159E-05   -0.34976E-07  2283   0.107E-03    0.788E-04
RMM:  13    -0.413207897441E+03    0.54029E-05   -0.32479E-07  2128   0.932E-04    0.440E-04
RMM:  14    -0.413207893469E+03    0.39726E-05   -0.15797E-07  1337   0.712E-04    0.279E-04
RMM:  15    -0.413207888800E+03    0.46683E-05   -0.12303E-07  1177   0.672E-04    0.128E-04
RMM:  16    -0.413207885996E+03    0.28041E-05   -0.81165E-08  1151   0.631E-04    0.882E-05
RMM:  17    -0.413207882013E+03    0.39836E-05   -0.80011E-08  1290   0.634E-04    0.882E-05
RMM:  18    -0.413207881053E+03    0.95975E-06   -0.35675E-08   920   0.538E-04
   49 T=    69. E= -.41286659E+03 F= -.41320788E+03 E0= -.41318698E+03  EK= 0.34129E+00 SP= 0.00E+00 SK= 0.00E+00
       N       E                     dE             d eps       ncg     rms          rms(c)
RMM:   1    -0.413225383704E+03   -0.17502E-01   -0.11125E+01  4303   0.192E+00    0.923E-01
RMM:   2    -0.413204750128E+03    0.20634E-01   -0.18275E-01  4509   0.222E-01    0.688E-01
RMM:   3    -0.413232352451E+03   -0.27602E-01   -0.36180E-02  5159   0.169E-01    0.771E-01
RMM:   4    -0.413208917840E+03    0.23435E-01   -0.41018E-02  4943   0.185E-01    0.390E-01
RMM:   5    -0.413201670744E+03    0.72471E-02   -0.50686E-03  4777   0.941E-02    0.721E-02
RMM:   6    -0.413201402183E+03    0.26856E-03   -0.51268E-04  4637   0.322E-02    0.337E-02
RMM:   7    -0.413201402698E+03   -0.51565E-06   -0.23880E-04  5746   0.167E-02    0.237E-02
RMM:   8    -0.413201375523E+03    0.27176E-04   -0.80200E-05  5033   0.995E-03    0.992E-03
RMM:   9    -0.413201368591E+03    0.69321E-05   -0.17059E-05  4344   0.520E-03    0.421E-03
RMM:  10    -0.413201364851E+03    0.37399E-05   -0.25179E-06  2643   0.236E-03    0.260E-03
RMM:  11    -0.413201360153E+03    0.46976E-05   -0.83304E-07  2485   0.157E-03    0.145E-03
RMM:  12    -0.413201357313E+03    0.28405E-05   -0.35622E-07  2227   0.104E-03    0.729E-04
RMM:  13    -0.413201353094E+03    0.42180E-05   -0.39220E-07  2241   0.990E-04    0.502E-04
RMM:  14    -0.413201350502E+03    0.25922E-05   -0.17516E-07  1343   0.724E-04    0.313E-04
RMM:  15    -0.413201347062E+03    0.34405E-05   -0.15074E-07  1251   0.704E-04    0.128E-04
RMM:  16    -0.413201344930E+03    0.21318E-05   -0.10019E-07  1240   0.652E-04    0.107E-04
RMM:  17    -0.413201342548E+03    0.23815E-05   -0.85291E-08  1228   0.623E-04    0.895E-05
[...]
       N       E                     dE             d eps       ncg     rms          rms(c)
RMM:   1    -0.413154959140E+03    0.44629E-02   -0.93705E+00  4264   0.817E-01    0.870E-01
RMM:   2    -0.413160992409E+03   -0.60333E-02   -0.11063E-01  4314   0.958E-02    0.611E-01
RMM:   3    -0.413160023739E+03    0.96867E-03   -0.10397E-02  5030   0.486E-02    0.157E-01
RMM:   4    -0.413194803738E+03   -0.34780E-01   -0.38603E-02  5142   0.164E-01    0.779E-01
RMM:   5    -0.413159218404E+03    0.35585E-01   -0.17218E-02  4797   0.131E-01    0.558E-02
RMM:   6    -0.413159249802E+03   -0.31399E-04   -0.28554E-03  5703   0.515E-02    0.291E-02
RMM:   7    -0.413159277557E+03   -0.27754E-04   -0.40980E-04  6008   0.175E-02    0.179E-02
RMM:   8    -0.413159282720E+03   -0.51635E-05   -0.77825E-05  5293   0.913E-03    0.920E-03
RMM:   9    -0.413159282565E+03    0.15496E-06   -0.10653E-05  3485   0.388E-03    0.420E-03
RMM:  10    -0.413159285660E+03   -0.30947E-05   -0.31489E-06  2684   0.233E-03    0.283E-03
RMM:  11    -0.413159288450E+03   -0.27897E-05   -0.12896E-06  2509   0.177E-03    0.145E-03
RMM:  12    -0.413159290785E+03   -0.23355E-05   -0.80799E-07  2444   0.139E-03    0.506E-04
RMM:  13    -0.413159291873E+03   -0.10880E-05   -0.39756E-07  2069   0.102E-03    0.324E-04
RMM:  14    -0.413159292711E+03   -0.83780E-06   -0.23394E-07  1625   0.820E-04
  138 T=    60. E= -.41286659E+03 F= -.41315929E+03 E0= -.41313855E+03  EK= 0.29271E+00 SP= 0.00E+00 SK= 0.00E+00
       N       E                     dE             d eps       ncg     rms          rms(c)
RMM:   1    -0.413155041877E+03    0.42500E-02   -0.92580E+00  4270   0.818E-01    0.844E-01
RMM:   2    -0.413162059103E+03   -0.70172E-02   -0.11050E-01  4316   0.949E-02    0.610E-01
RMM:   3    -0.413160275819E+03    0.17833E-02   -0.10145E-02  4997   0.450E-02    0.131E-01
RMM:   4    -0.413191319040E+03   -0.31043E-01   -0.33381E-02  5142   0.152E-01    0.735E-01
RMM:   5    -0.413159754169E+03    0.31565E-01   -0.15460E-02  4806   0.123E-01    0.522E-02
RMM:   6    -0.413159784071E+03   -0.29903E-04   -0.25558E-03  5707   0.485E-02    0.280E-02
RMM:   7    -0.413159813090E+03   -0.29019E-04   -0.37335E-04  5969   0.164E-02    0.167E-02
RMM:   8    -0.413159823570E+03   -0.10480E-04   -0.70136E-05  5253   0.860E-03    0.868E-03
RMM:   9    -0.413159826763E+03   -0.31930E-05   -0.95398E-06  3396   0.366E-03    0.407E-03
RMM:  10    -0.413159833689E+03   -0.69259E-05   -0.28129E-06  2638   0.226E-03    0.274E-03
RMM:  11    -0.413159839889E+03   -0.62001E-05   -0.12036E-06  2505   0.172E-03    0.139E-03
RMM:  12    -0.413159845704E+03   -0.58148E-05   -0.82484E-07  2430   0.138E-03    0.507E-04
RMM:  13    -0.413159848357E+03   -0.26535E-05   -0.39632E-07  2074   0.100E-03    0.329E-04
RMM:  14    -0.413159850100E+03   -0.17428E-05   -0.22645E-07  1544   0.798E-04    0.183E-04
RMM:  15    -0.413159852229E+03   -0.21289E-05   -0.18407E-07  1364   0.746E-04    0.951E-05
RMM:  16    -0.413159853885E+03   -0.16567E-05   -0.14862E-07  1400   0.711E-04    0.863E-05
RMM:  17    -0.413159854515E+03   -0.62960E-06   -0.87962E-08  1202   0.626E-04
  139 T=    60. E= -.41286686E+03 F= -.41315985E+03 E0= -.41313912E+03  EK= 0.29299E+00 SP= 0.00E+00 SK= 0.00E+00
       N       E                     dE             d eps       ncg     rms          rms(c)
RMM:   1    -0.413155314248E+03    0.45396E-02   -0.93012E+00  4264   0.829E-01    0.850E-01
RMM:   2    -0.413162263408E+03   -0.69492E-02   -0.11111E-01  4310   0.971E-02    0.619E-01
RMM:   3    -0.413159745309E+03    0.25181E-02   -0.10607E-02  4906   0.465E-02    0.112E-01
RMM:   4    -0.413185258375E+03   -0.25513E-01   -0.26832E-02  5147   0.137E-01    0.667E-01
RMM:   5    -0.413159393301E+03    0.25865E-01   -0.12797E-02  4810   0.111E-01    0.484E-02
RMM:   6    -0.413159416235E+03   -0.22934E-04   -0.21210E-03  5714   0.443E-02    0.277E-02
RMM:   7    -0.413159440737E+03   -0.24502E-04   -0.31997E-04  5901   0.154E-02    0.156E-02
RMM:   8    -0.413159451505E+03   -0.10767E-04   -0.60538E-05  5194   0.807E-03    0.810E-03
RMM:   9    -0.413159455168E+03   -0.36631E-05   -0.79431E-06  3258   0.339E-03    0.397E-03
RMM:  10    -0.413159463224E+03   -0.80563E-05   -0.24284E-06  2601   0.217E-03    0.261E-03
RMM:  11    -0.413159470375E+03   -0.71506E-05   -0.11074E-06  2495   0.164E-03    0.127E-03
RMM:  12    -0.413159476899E+03   -0.65241E-05   -0.76502E-07  2425   0.133E-03    0.512E-04
RMM:  13    -0.413159479930E+03   -0.30310E-05   -0.37580E-07  2001   0.970E-04    0.321E-04
RMM:  14    -0.413159481811E+03   -0.18809E-05   -0.21571E-07  1494   0.781E-04    0.174E-04
RMM:  15    -0.413159484053E+03   -0.22421E-05   -0.17633E-07  1349   0.735E-04    0.940E-05
RMM:  16    -0.413159485879E+03   -0.18258E-05   -0.14649E-07  1346   0.703E-04    0.877E-05
RMM:  17    -0.413159486305E+03   -0.42654E-06   -0.78267E-08  1094   0.614E-04
  140 T=    60. E= -.41286643E+03 F= -.41315949E+03 E0= -.41313877E+03  EK= 0.29305E+00 SP= 0.00E+00 SK= 0.00E+00
       N       E                     dE             d eps       ncg     rms          rms(c)
RMM:   1    -0.413155833713E+03    0.36522E-02   -0.92642E+00  4264   0.821E-01    0.870E-01
RMM:   2    -0.413161445372E+03   -0.56117E-02   -0.10932E-01  4308   0.969E-02    0.613E-01
RMM:   3    -0.413159905293E+03    0.15401E-02   -0.10471E-02  4900   0.413E-02    0.112E-01
RMM:   4    -0.413177629792E+03   -0.17724E-01   -0.18425E-02  5156   0.114E-01    0.558E-01
RMM:   5    -0.413159755682E+03    0.17874E-01   -0.89874E-03  4824   0.931E-02    0.463E-02
RMM:   6    -0.413159763072E+03   -0.73906E-05   -0.15701E-03  5701   0.384E-02    0.293E-02
RMM:   7    -0.413159775549E+03   -0.12476E-04   -0.27589E-04  5782   0.148E-02    0.151E-02
RMM:   8    -0.413159778292E+03   -0.27434E-05   -0.52453E-05  5140   0.782E-03    0.781E-03
RMM:   9    -0.413159778351E+03   -0.59179E-07   -0.57850E-06  3043   0.297E-03
  141 T=    60. E= -.41286672E+03 F= -.41315978E+03 E0= -.41313907E+03  EK= 0.29306E+00 SP= 0.00E+00 SK= 0.00E+00
       N       E                     dE             d eps       ncg     rms          rms(c)
RMM:   1    -0.413155624070E+03    0.41542E-02   -0.91526E+00  4268   0.826E-01    0.848E-01
RMM:   2    -0.413161983480E+03   -0.63594E-02   -0.10868E-01  4326   0.941E-02    0.608E-01
RMM:   3    -0.413160768284E+03    0.12152E-02   -0.10881E-02  5066   0.514E-02    0.158E-01
RMM:   4    -0.413195836869E+03   -0.35069E-01   -0.39837E-02  5139   0.167E-01    0.783E-01
RMM:   5    -0.413159837050E+03    0.36000E-01   -0.17312E-02  4801   0.131E-01    0.602E-02
RMM:   6    -0.413159830602E+03    0.64475E-05   -0.28734E-03  5665   0.520E-02    0.285E-02
RMM:   7    -0.413159870281E+03   -0.39679E-04   -0.42825E-04  6066   0.176E-02    0.176E-02
RMM:   8    -0.413159880042E+03   -0.97607E-05   -0.83742E-05  5333   0.941E-03    0.934E-03
RMM:   9    -0.413159882316E+03   -0.22744E-05   -0.11415E-05  3594   0.402E-03    0.400E-03
RMM:  10    -0.413159887270E+03   -0.49540E-05   -0.30498E-06  2666   0.232E-03    0.269E-03
RMM:  11    -0.413159893586E+03   -0.63162E-05   -0.15602E-06  2519   0.190E-03    0.148E-03
RMM:  12    -0.413159897904E+03   -0.43181E-05   -0.82326E-07  2471   0.142E-03    0.549E-04
RMM:  13    -0.413159899922E+03   -0.20182E-05   -0.40178E-07  2050   0.101E-03    0.320E-04
RMM:  14    -0.413159901668E+03   -0.17461E-05   -0.25509E-07  1624   0.832E-04    0.204E-04
RMM:  15    -0.413159903597E+03   -0.19290E-05   -0.22771E-07  1510   0.775E-04    0.114E-04
RMM:  16    -0.413159904672E+03   -0.10749E-05   -0.14950E-07  1380   0.696E-04    0.714E-05
RMM:  17    -0.413159905674E+03   -0.10020E-05   -0.12959E-07  1354   0.663E-04    0.568E-05
RMM:  18    -0.413159906044E+03   -0.36937E-06   -0.67808E-08  1030   0.578E-04
  142 T=    60. E= -.41286680E+03 F= -.41315991E+03 E0= -.41313921E+03  EK= 0.29311E+00 SP= 0.00E+00 SK= 0.00E+00
       N       E                     dE             d eps       ncg     rms          rms(c)
RMM:   1    -0.413155659751E+03    0.42459E-02   -0.92094E+00  4264   0.824E-01    0.846E-01
RMM:   2    -0.413162835471E+03   -0.71757E-02   -0.10995E-01  4307   0.973E-02    0.619E-01
RMM:   3    -0.413159799762E+03    0.30357E-02   -0.10797E-02  4672   0.404E-02    0.737E-02
RMM:   4    -0.413161296605E+03   -0.14968E-02   -0.19956E-03  5191   0.380E-02    0.165E-01
RMM:   5    -0.413159835292E+03    0.14613E-02   -0.82151E-04  4857   0.290E-02    0.376E-02
RMM:   6    -0.413159828832E+03    0.64591E-05   -0.28222E-04  5377   0.177E-02    0.261E-02
RMM:   7    -0.413159853161E+03   -0.24328E-04   -0.16070E-04  5292   0.108E-02    0.151E-02
RMM:   8    -0.413159851363E+03    0.17979E-05   -0.20160E-05  4466   0.563E-03    0.751E-03
RMM:   9    -0.413159852843E+03   -0.14798E-05   -0.48092E-06  2679   0.233E-03    0.284E-03
RMM:  10    -0.413159860627E+03   -0.77839E-05   -0.13873E-06  2500   0.175E-03    0.143E-03
RMM:  11    -0.413159870624E+03   -0.99972E-05   -0.10031E-06  2467   0.144E-03    0.686E-04
RMM:  12    -0.413159874968E+03   -0.43439E-05   -0.43066E-07  2012   0.101E-03    0.343E-04
RMM:  13    -0.413159878152E+03   -0.31841E-05   -0.25382E-07  1618   0.805E-04    0.271E-04
RMM:  14    -0.413159881777E+03   -0.36254E-05   -0.22853E-07  1455   0.747E-04    0.139E-04
RMM:  15    -0.413159883419E+03   -0.16421E-05   -0.12670E-07  1239   0.650E-04    0.762E-05
RMM:  16    -0.413159884754E+03   -0.13342E-05   -0.11061E-07  1180   0.619E-04    0.414E-05
RMM:  17    -0.413159885342E+03   -0.58836E-06   -0.61987E-08   962   0.557E-04
  143 T=    60. E= -.41286661E+03 F= -.41315989E+03 E0= -.41313920E+03  EK= 0.29328E+00 SP= 0.00E+00 SK= 0.00E+00
       N       E                     dE             d eps       ncg     rms          rms(c)
RMM:   1    -0.413156709749E+03    0.31750E-02   -0.92046E+00  4264   0.828E-01    0.867E-01
RMM:   2    -0.413162424368E+03   -0.57146E-02   -0.10833E-01  4313   0.957E-02    0.614E-01
RMM:   3    -0.413160366901E+03    0.20575E-02   -0.10604E-02  4670   0.393E-02    0.900E-02
RMM:   4    -0.413160437928E+03   -0.71026E-04   -0.74421E-04  5125   0.213E-02    0.405E-02
RMM:   5    -0.413160425928E+03    0.11999E-04   -0.21615E-04  4995   0.162E-02    0.329E-02
RMM:   6    -0.413160539218E+03   -0.11329E-03   -0.18827E-04  5414   0.126E-02    0.524E-02
RMM:   7    -0.413160418700E+03    0.12052E-03   -0.17358E-04  4908   0.130E-02    0.143E-02
RMM:   8    -0.413160415042E+03    0.36587E-05   -0.23479E-05  4748   0.599E-03    0.652E-03
RMM:   9    -0.413160416534E+03   -0.14927E-05   -0.59051E-06  2829   0.259E-03    0.211E-03
RMM:  10    -0.413160420446E+03   -0.39118E-05   -0.15215E-06  2490   0.186E-03    0.891E-04
RMM:  11    -0.413160423521E+03   -0.30745E-05   -0.82704E-07  2455   0.137E-03    0.433E-04
RMM:  12    -0.413160424619E+03   -0.10985E-05   -0.36502E-07  2131   0.972E-04    0.328E-04
RMM:  13    -0.413160425770E+03   -0.11505E-05   -0.24902E-07  1623   0.796E-04    0.223E-04
RMM:  14    -0.413160426664E+03   -0.89456E-06   -0.19958E-07  1442   0.728E-04
  144 T=    60. E= -.41286698E+03 F= -.41316043E+03 E0= -.41313975E+03  EK= 0.29344E+00 SP= 0.00E+00 SK= 0.00E+00
       N       E                     dE             d eps       ncg     rms          rms(c)
RMM:   1    -0.413159880669E+03    0.54510E-03   -0.91711E+00  4264   0.863E-01    0.854E-01
RMM:   2    -0.413162478672E+03   -0.25980E-02   -0.10768E-01  4324   0.936E-02    0.607E-01
RMM:   3    -0.413160323514E+03    0.21552E-02   -0.10427E-02  4824   0.387E-02    0.939E-02
RMM:   4    -0.413165249597E+03   -0.49261E-02   -0.54007E-03  5174   0.623E-02    0.296E-01
RMM:   5    -0.413160347582E+03    0.49020E-02   -0.25553E-03  4848   0.499E-02    0.410E-02
RMM:   6    -0.413160335347E+03    0.12235E-04   -0.56861E-04  5563   0.241E-02    0.283E-02
RMM:   7    -0.413160346432E+03   -0.11085E-04   -0.18525E-04  5493   0.120E-02    0.142E-02
RMM:   8    -0.413160345552E+03    0.87995E-06   -0.30495E-05  4878   0.636E-03    0.701E-03
RMM:   9    -0.413160346512E+03   -0.95990E-06   -0.38639E-06  2721   0.232E-03
  145 T=    60. E= -.41286682E+03 F= -.41316035E+03 E0= -.41313967E+03  EK= 0.29352E+00 SP= 0.00E+00 SK= 0.00E+00
       N       E                     dE             d eps       ncg     rms          rms(c)
RMM:   1    -0.413156725794E+03    0.36198E-02   -0.91895E+00  4266   0.833E-01    0.844E-01
RMM:   2    -0.413163752220E+03   -0.70264E-02   -0.10911E-01  4332   0.938E-02    0.616E-01
RMM:   3    -0.413161105525E+03    0.26467E-02   -0.11037E-02  4989   0.438E-02    0.101E-01
RMM:   4    -0.413182624017E+03   -0.21518E-01   -0.22612E-02  5152   0.126E-01    0.613E-01
RMM:   5    -0.413160821282E+03    0.21803E-01   -0.10814E-02  4831   0.102E-01    0.504E-02
RMM:   6    -0.413160845220E+03   -0.23938E-04   -0.18255E-03  5699   0.410E-02    0.276E-02
RMM:   7    -0.413160874793E+03   -0.29573E-04   -0.29431E-04  5941   0.146E-02    0.146E-02
RMM:   8    -0.413160886059E+03   -0.11266E-04   -0.56657E-05  5232   0.794E-03    0.805E-03
RMM:   9    -0.413160889985E+03   -0.39258E-05   -0.70534E-06  3188   0.326E-03    0.375E-03
RMM:  10    -0.413160899449E+03   -0.94641E-05   -0.25860E-06  2615   0.228E-03    0.238E-03
RMM:  11    -0.413160908225E+03   -0.87758E-05   -0.12548E-06  2506   0.172E-03    0.119E-03
RMM:  12    -0.413160914818E+03   -0.65930E-05   -0.74040E-07  2393   0.129E-03    0.538E-04
RMM:  13    -0.413160918648E+03   -0.38307E-05   -0.41511E-07  1975   0.964E-04    0.309E-04
RMM:  14    -0.413160921278E+03   -0.26297E-05   -0.26580E-07  1614   0.814E-04    0.195E-04
RMM:  15    -0.413160923206E+03   -0.19284E-05   -0.19007E-07  1374   0.737E-04    0.109E-04
RMM:  16    -0.413160925373E+03   -0.21669E-05   -0.19805E-07  1454   0.733E-04    0.793E-05
RMM:  17    -0.413160925675E+03   -0.30144E-06   -0.85502E-08  1080   0.604E-04
  146 T=    60. E= -.41286690E+03 F= -.41316093E+03 E0= -.41314026E+03  EK= 0.29402E+00 SP= 0.00E+00 SK= 0.00E+00
       N       E                     dE             d eps       ncg     rms          rms(c)
RMM:   1    -0.413157164757E+03    0.37606E-02   -0.92259E+00  4264   0.839E-01    0.862E-01
RMM:   2    -0.413163337199E+03   -0.61724E-02   -0.10855E-01  4327   0.942E-02    0.615E-01
RMM:   3    -0.413161210362E+03    0.21268E-02   -0.10763E-02  4937   0.427E-02    0.104E-01
RMM:   4    -0.413179127226E+03   -0.17917E-01   -0.18671E-02  5158   0.114E-01    0.560E-01
RMM:   5    -0.413161021056E+03    0.18106E-01   -0.90631E-03  4833   0.928E-02    0.480E-02
RMM:   6    -0.413161040639E+03   -0.19583E-04   -0.15630E-03  5699   0.378E-02    0.285E-02
RMM:   7    -0.413161055938E+03   -0.15300E-04   -0.26672E-04  5861   0.144E-02    0.144E-02
RMM:   8    -0.413161060283E+03   -0.43449E-05   -0.49658E-05  5187   0.766E-03    0.772E-03
RMM:   9    -0.413161061079E+03   -0.79594E-06   -0.58960E-06  3060   0.302E-03
  147 T=    60. E= -.41286694E+03 F= -.41316106E+03 E0= -.41314040E+03  EK= 0.29413E+00 SP= 0.00E+00 SK= 0.00E+00
       N       E                     dE             d eps       ncg     rms          rms(c)
RMM:   1    -0.413156689114E+03    0.43712E-02   -0.92053E+00  4265   0.840E-01    0.862E-01
RMM:   2    -0.413162843824E+03   -0.61547E-02   -0.10762E-01  4336   0.949E-02    0.607E-01
RMM:   3    -0.413161846209E+03    0.99762E-03   -0.11356E-02  5139   0.513E-02    0.176E-01
RMM:   4    -0.413196022782E+03   -0.34177E-01   -0.40597E-02  5127   0.168E-01    0.775E-01
RMM:   5    -0.413160635689E+03    0.35387E-01   -0.16835E-02  4815   0.130E-01    0.658E-02
RMM:   6    -0.413160639125E+03   -0.34358E-05   -0.28123E-03  5604   0.518E-02    0.292E-02
RMM:   7    -0.413160678230E+03   -0.39106E-04   -0.46312E-04  6081   0.185E-02    0.185E-02
RMM:   8    -0.413160683141E+03   -0.49104E-05   -0.89901E-05  5428   0.999E-03    0.978E-03
RMM:   9    -0.413160682999E+03    0.14164E-06   -0.12738E-05  3831   0.430E-03    0.406E-03
RMM:  10    -0.413160685665E+03   -0.26655E-05   -0.26947E-06  2640   0.232E-03    0.266E-03
RMM:  11    -0.413160689234E+03   -0.35692E-05   -0.16516E-06  2527   0.195E-03    0.155E-03
RMM:  12    -0.413160691468E+03   -0.22348E-05   -0.89417E-07  2491   0.146E-03    0.609E-04
RMM:  13    -0.413160692377E+03   -0.90849E-06   -0.42354E-07  2101   0.104E-03
  148 T=    60. E= -.41286681E+03 F= -.41316069E+03 E0= -.41314004E+03  EK= 0.29388E+00 SP= 0.00E+00 SK= 0.00E+00
       N       E                     dE             d eps       ncg     rms          rms(c)
RMM:   1    -0.413157009620E+03    0.36818E-02   -0.92203E+00  4264   0.842E-01    0.842E-01
RMM:   2    -0.413164351677E+03   -0.73421E-02   -0.10904E-01  4334   0.942E-02    0.612E-01
RMM:   3    -0.413161862469E+03    0.24892E-02   -0.10632E-02  5069   0.437E-02    0.120E-01
RMM:   4    -0.413190556091E+03   -0.28694E-01   -0.30777E-02  5144   0.146E-01    0.705E-01
RMM:   5    -0.413161365275E+03    0.29191E-01   -0.14329E-02  4819   0.117E-01    0.542E-02
RMM:   6    -0.413161421725E+03   -0.56450E-04   -0.23820E-03  5694   0.468E-02    0.275E-02
RMM:   7    -0.413161450031E+03   -0.28306E-04   -0.34980E-04  5996   0.157E-02    0.154E-02
RMM:   8    -0.413161459894E+03   -0.98627E-05   -0.63083E-05  5327   0.830E-03    0.847E-03
RMM:   9    -0.413161462812E+03   -0.29187E-05   -0.92338E-06  3417   0.361E-03    0.381E-03
RMM:  10    -0.413161470445E+03   -0.76332E-05   -0.30320E-06  2661   0.239E-03    0.259E-03
RMM:  11    -0.413161477201E+03   -0.67553E-05   -0.13040E-06  2513   0.178E-03    0.139E-03
RMM:  12    -0.413161482974E+03   -0.57734E-05   -0.78842E-07  2441   0.135E-03    0.575E-04
RMM:  13    -0.413161485941E+03   -0.29665E-05   -0.41382E-07  2048   0.990E-04    0.339E-04
RMM:  14    -0.413161487969E+03   -0.20284E-05   -0.24633E-07  1549   0.808E-04    0.192E-04
RMM:  15    -0.413161489309E+03   -0.13395E-05   -0.16975E-07  1314   0.728E-04    0.107E-04
RMM:  16    -0.413161490971E+03   -0.16623E-05   -0.18461E-07  1532   0.740E-04    0.823E-05
RMM:  17    -0.413161491277E+03   -0.30646E-06   -0.86388E-08  1131   0.611E-04
  149 T=    60. E= -.41286710E+03 F= -.41316149E+03 E0= -.41314084E+03  EK= 0.29439E+00 SP= 0.00E+00 SK= 0.00E+00
       N       E                     dE             d eps       ncg     rms          rms(c)
RMM:   1    -0.413157425450E+03    0.40655E-02   -0.93132E+00  4264   0.856E-01    0.856E-01
RMM:   2    -0.413163876395E+03   -0.64509E-02   -0.10989E-01  4326   0.964E-02    0.616E-01
RMM:   3    -0.413162205873E+03    0.16705E-02   -0.10888E-02  5061   0.498E-02    0.147E-01
RMM:   4    -0.413197054984E+03   -0.34849E-01   -0.38870E-02  5140   0.164E-01    0.777E-01
RMM:   5    -0.413161344872E+03    0.35710E-01   -0.17280E-02  4815   0.130E-01    0.596E-02
RMM:   6    -0.413161406806E+03   -0.61934E-04   -0.28702E-03  5662   0.515E-02    0.276E-02
RMM:   7    -0.413161443552E+03   -0.36746E-04   -0.41508E-04  6061   0.171E-02    0.165E-02
RMM:   8    -0.413161452753E+03   -0.92015E-05   -0.74909E-05  5397   0.909E-03    0.907E-03
RMM:   9    -0.413161454465E+03   -0.17114E-05   -0.11376E-05  3575   0.397E-03    0.387E-03
RMM:  10    -0.413161459643E+03   -0.51788E-05   -0.32903E-06  2693   0.245E-03    0.264E-03
RMM:  11    -0.413161465081E+03   -0.54377E-05   -0.14854E-06  2514   0.188E-03    0.151E-03
RMM:  12    -0.413161469322E+03   -0.42407E-05   -0.81825E-07  2471   0.140E-03    0.556E-04
RMM:  13    -0.413161471171E+03   -0.18490E-05   -0.39836E-07  2070   0.100E-03    0.327E-04
RMM:  14    -0.413161472717E+03   -0.15461E-05   -0.25323E-07  1626   0.827E-04    0.201E-04
RMM:  15    -0.413161473774E+03   -0.10567E-05   -0.17835E-07  1397   0.742E-04    0.104E-04
RMM:  16    -0.413161474602E+03   -0.82835E-06   -0.14815E-07  1448   0.712E-04
  150 T=    60. E= -.41286689E+03 F= -.41316147E+03 E0= -.41314083E+03  EK= 0.29459E+00 SP= 0.00E+00 SK= 0.00E+00
