       N       E                     dE             d eps       ncg     rms          rms(c)
RMM:   1     0.220132764678E+04    0.22013E+04   -0.52442E+04  2132   0.654E+02
RMM:   2     0.705504060726E+03   -0.14958E+04   -0.16263E+04  2132   0.177E+02
RMM:   3     0.137640284791E+03   -0.56786E+03   -0.65706E+03  2132   0.117E+02
RMM:   4    -0.159520230282E+03   -0.29716E+03   -0.27878E+03  2132   0.936E+01
RMM:   5    -0.287549260615E+03   -0.12803E+03   -0.11438E+03  2132   0.595E+01
RMM:   6    -0.349721053303E+03   -0.62172E+02   -0.55081E+02  2132   0.423E+01
RMM:   7    -0.382671038173E+03   -0.32950E+02   -0.30445E+02  2132   0.293E+01
RMM:   8    -0.404218028982E+03   -0.21547E+02   -0.18463E+02  2132   0.233E+01
RMM:   9    -0.435970941108E+03   -0.31753E+02   -0.30665E+02  6095   0.173E+01
RMM:  10    -0.441231494812E+03   -0.52606E+01   -0.62937E+01  6388   0.539E+00
RMM:  11    -0.442527420878E+03   -0.12959E+01   -0.11314E+01  6221   0.174E+00
RMM:  12    -0.442893094414E+03   -0.36567E+00   -0.27970E+00  6371   0.611E-01    0.134E+02
RMM:  13    -0.425585769420E+03    0.17307E+02   -0.80631E+01  4665   0.119E+01    0.712E+01
RMM:  14    -0.498998619307E+03   -0.73413E+02   -0.53713E+02  5420   0.232E+01    0.307E+01
RMM:  15    -0.415676275992E+03    0.83322E+02   -0.19887E+02  5086   0.163E+01    0.679E+00
RMM:  16    -0.414045732816E+03    0.16305E+01   -0.39191E+01  6093   0.607E+00    0.430E+00
RMM:  17    -0.413214787493E+03    0.83095E+00   -0.24998E+00  5378   0.187E+00    0.244E+00
RMM:  18    -0.413173100206E+03    0.41687E-01   -0.80369E-01  5982   0.921E-01    0.165E+00
RMM:  19    -0.413169497926E+03    0.36023E-02   -0.27422E-01  5701   0.563E-01    0.868E-01
RMM:  20    -0.413188311421E+03   -0.18813E-01   -0.26174E-01  5526   0.537E-01    0.605E-01
RMM:  21    -0.413168428401E+03    0.19883E-01   -0.34634E-02  4999   0.238E-01    0.277E-01
RMM:  22    -0.413165794740E+03    0.26337E-02   -0.19255E-02  5981   0.126E-01    0.137E-01
RMM:  23    -0.413164653892E+03    0.11408E-02   -0.56611E-03  6042   0.668E-02    0.829E-02
RMM:  24    -0.413163373128E+03    0.12808E-02   -0.16682E-03  5294   0.402E-02    0.481E-02
RMM:  25    -0.413162900624E+03    0.47250E-03   -0.90280E-04  5363   0.272E-02    0.359E-02
RMM:  26    -0.413163051415E+03   -0.15079E-03   -0.10117E-03  5809   0.322E-02    0.356E-02
RMM:  27    -0.413163453061E+03   -0.40165E-03   -0.20925E-04  4566   0.198E-02    0.216E-02
RMM:  28    -0.413163897154E+03   -0.44409E-03   -0.20199E-04  5252   0.191E-02    0.880E-03
RMM:  29    -0.413164294545E+03   -0.39739E-03   -0.11757E-04  4530   0.157E-02    0.440E-03
RMM:  30    -0.413164513338E+03   -0.21879E-03   -0.80715E-05  4362   0.100E-02    0.424E-03
RMM:  31    -0.413164647630E+03   -0.13429E-03   -0.57651E-05  3153   0.710E-03    0.332E-03
RMM:  32    -0.413164669967E+03   -0.22337E-04   -0.22560E-05  2994   0.298E-03    0.192E-03
RMM:  33    -0.413164681732E+03   -0.11765E-04   -0.93152E-06  2794   0.231E-03    0.593E-04
RMM:  34    -0.413164684171E+03   -0.24393E-05   -0.50978E-06  2645   0.165E-03    0.612E-04
RMM:  35    -0.413164684181E+03   -0.93023E-08   -0.25041E-06  2368   0.128E-03
    1 T=    61. E= -.41286685E+03 F= -.41316468E+03 E0= -.41314219E+03  EK= 0.29783E+00 SP= 0.00E+00 SK= 0.00E+00
       N       E                     dE             d eps       ncg     rms          rms(c)
RMM:   1    -0.413161852362E+03    0.28318E-02   -0.94135E+00  3987   0.641E-01    0.886E-01
RMM:   2    -0.413168034121E+03   -0.61818E-02   -0.11542E-01  3866   0.906E-02    0.649E-01
RMM:   3    -0.413164681084E+03    0.33530E-02   -0.14037E-02  4826   0.457E-02    0.991E-02
RMM:   4    -0.413187865219E+03   -0.23184E-01   -0.24765E-02  5205   0.130E-01    0.636E-01
RMM:   5    -0.413164222617E+03    0.23643E-01   -0.11606E-02  4846   0.107E-01    0.461E-02
RMM:   6    -0.413164394879E+03   -0.17226E-03   -0.21128E-03  5790   0.445E-02    0.319E-02
RMM:   7    -0.413164396749E+03   -0.18698E-05   -0.39372E-04  5700   0.181E-02    0.196E-02
RMM:   8    -0.413164394243E+03    0.25054E-05   -0.49269E-05  5025   0.766E-03    0.859E-03
RMM:   9    -0.413164396725E+03   -0.24819E-05   -0.10584E-05  3516   0.344E-03    0.657E-03
RMM:  10    -0.413164401666E+03   -0.49403E-05   -0.20248E-06  2581   0.211E-03    0.400E-03
RMM:  11    -0.413164406540E+03   -0.48740E-05   -0.13889E-06  2533   0.172E-03    0.208E-03
RMM:  12    -0.413164413518E+03   -0.69784E-05   -0.15880E-06  2547   0.178E-03    0.848E-04
RMM:  13    -0.413164415646E+03   -0.21283E-05   -0.61082E-07  2327   0.119E-03    0.567E-04
RMM:  14    -0.413164415701E+03   -0.54373E-07   -0.34038E-07  1800   0.812E-04
    2 T=    61. E= -.41286659E+03 F= -.41316442E+03 E0= -.41314192E+03  EK= 0.29783E+00 SP= 0.00E+00 SK= 0.00E+00
       N       E                     dE             d eps       ncg     rms          rms(c)
RMM:   1    -0.413162641988E+03    0.17737E-02   -0.94163E+00  4184   0.640E-01    0.905E-01
RMM:   2    -0.413168103593E+03   -0.54616E-02   -0.11383E-01  3851   0.880E-02    0.645E-01
RMM:   3    -0.413165255400E+03    0.28482E-02   -0.13511E-02  4846   0.434E-02    0.111E-01
RMM:   4    -0.413189568482E+03   -0.24313E-01   -0.25291E-02  5174   0.133E-01    0.652E-01
RMM:   5    -0.413164804715E+03    0.24764E-01   -0.12010E-02  4830   0.109E-01    0.469E-02
RMM:   6    -0.413164974732E+03   -0.17002E-03   -0.21481E-03  5775   0.452E-02    0.326E-02
RMM:   7    -0.413164966214E+03    0.85178E-05   -0.39412E-04  5642   0.187E-02    0.201E-02
RMM:   8    -0.413164957097E+03    0.91175E-05   -0.54973E-05  5043   0.822E-03    0.934E-03
RMM:   9    -0.413164955467E+03    0.16293E-05   -0.10892E-05  3644   0.368E-03    0.707E-03
RMM:  10    -0.413164955704E+03   -0.23695E-06   -0.18641E-06  2561   0.221E-03
    3 T=    61. E= -.41286687E+03 F= -.41316496E+03 E0= -.41314246E+03  EK= 0.29808E+00 SP= 0.00E+00 SK= 0.00E+00
       N       E                     dE             d eps       ncg     rms          rms(c)
RMM:   1    -0.413162122227E+03    0.28332E-02   -0.93445E+00  4223   0.642E-01    0.890E-01
RMM:   2    -0.413167865438E+03   -0.57432E-02   -0.11339E-01  4231   0.907E-02    0.639E-01
RMM:   3    -0.413169245103E+03   -0.13797E-02   -0.16556E-02  5153   0.758E-02    0.297E-01
RMM:   4    -0.413192001281E+03   -0.22756E-01   -0.40425E-02  5127   0.171E-01    0.682E-01
RMM:   5    -0.413164661692E+03    0.27340E-01   -0.10874E-02  4726   0.112E-01    0.604E-02
RMM:   6    -0.413164704175E+03   -0.42483E-04   -0.20649E-03  5510   0.457E-02    0.309E-02
RMM:   7    -0.413164723920E+03   -0.19745E-04   -0.37914E-04  6015   0.172E-02    0.190E-02
RMM:   8    -0.413164720575E+03    0.33446E-05   -0.67328E-05  5202   0.919E-03    0.802E-03
RMM:   9    -0.413164718534E+03    0.20411E-05   -0.89107E-06  3483   0.369E-03    0.407E-03
RMM:  10    -0.413164719749E+03   -0.12144E-05   -0.19329E-06  2575   0.218E-03    0.266E-03
RMM:  11    -0.413164721525E+03   -0.17765E-05   -0.14040E-06  2536   0.185E-03    0.153E-03
RMM:  12    -0.413164722425E+03   -0.89967E-06   -0.78272E-07  2495   0.143E-03
    4 T=    61. E= -.41286663E+03 F= -.41316472E+03 E0= -.41314223E+03  EK= 0.29810E+00 SP= 0.00E+00 SK= 0.00E+00
       N       E                     dE             d eps       ncg     rms          rms(c)
RMM:   1    -0.413162075446E+03    0.26461E-02   -0.94035E+00  4235   0.644E-01    0.883E-01
RMM:   2    -0.413168476127E+03   -0.64007E-02   -0.11538E-01  4097   0.915E-02    0.648E-01
RMM:   3    -0.413165365662E+03    0.31105E-02   -0.14117E-02  4893   0.488E-02    0.115E-01
RMM:   4    -0.413195636023E+03   -0.30270E-01   -0.31900E-02  5146   0.149E-01    0.727E-01
RMM:   5    -0.413164691423E+03    0.30945E-01   -0.14785E-02  4813   0.121E-01    0.483E-02
RMM:   6    -0.413164890493E+03   -0.19907E-03   -0.25383E-03  5766   0.495E-02    0.320E-02
RMM:   7    -0.413164894584E+03   -0.40907E-05   -0.42400E-04  5739   0.189E-02    0.203E-02
RMM:   8    -0.413164892400E+03    0.21842E-05   -0.63549E-05  5084   0.861E-03    0.944E-03
RMM:   9    -0.413164893455E+03   -0.10548E-05   -0.12615E-05  3843   0.397E-03    0.697E-03
RMM:  10    -0.413164897588E+03   -0.41335E-05   -0.19033E-06  2573   0.218E-03    0.435E-03
RMM:  11    -0.413164901610E+03   -0.40218E-05   -0.12705E-06  2533   0.178E-03    0.230E-03
RMM:  12    -0.413164907491E+03   -0.58812E-05   -0.18176E-06  2593   0.194E-03    0.101E-03
RMM:  13    -0.413164909045E+03   -0.15533E-05   -0.53572E-07  2353   0.125E-03    0.671E-04
RMM:  14    -0.413164908921E+03    0.12327E-06   -0.22727E-07  1819   0.829E-04
    5 T=    61. E= -.41286669E+03 F= -.41316491E+03 E0= -.41314243E+03  EK= 0.29822E+00 SP= 0.00E+00 SK= 0.00E+00
       N       E                     dE             d eps       ncg     rms          rms(c)
RMM:   1    -0.413162990634E+03    0.19184E-02   -0.94207E+00  4248   0.653E-01    0.902E-01
RMM:   2    -0.413168440970E+03   -0.54503E-02   -0.11423E-01  4038   0.909E-02    0.646E-01
RMM:   3    -0.413165649543E+03    0.27914E-02   -0.13613E-02  4816   0.439E-02    0.106E-01
RMM:   4    -0.413188378273E+03   -0.22729E-01   -0.23384E-02  5150   0.127E-01    0.631E-01
RMM:   5    -0.413165238478E+03    0.23140E-01   -0.11250E-02  4821   0.105E-01    0.457E-02
RMM:   6    -0.413165394229E+03   -0.15575E-03   -0.19537E-03  5772   0.433E-02    0.314E-02
RMM:   7    -0.413165387733E+03    0.64953E-05   -0.36576E-04  5624   0.182E-02    0.194E-02
RMM:   8    -0.413165379186E+03    0.85471E-05   -0.50145E-05  4966   0.799E-03    0.899E-03
RMM:   9    -0.413165377900E+03    0.12868E-05   -0.10007E-05  3577   0.357E-03    0.685E-03
RMM:  10    -0.413165378331E+03   -0.43189E-06   -0.17372E-06  2548   0.217E-03
    6 T=    61. E= -.41286693E+03 F= -.41316538E+03 E0= -.41314292E+03  EK= 0.29845E+00 SP= 0.00E+00 SK= 0.00E+00
       N       E                     dE             d eps       ncg     rms          rms(c)
RMM:   1    -0.413162639223E+03    0.27387E-02   -0.93686E+00  4256   0.652E-01    0.897E-01
RMM:   2    -0.413168103635E+03   -0.54644E-02   -0.11358E-01  4211   0.901E-02    0.640E-01
RMM:   3    -0.413168887122E+03   -0.78349E-03   -0.15998E-02  5125   0.707E-02    0.273E-01
RMM:   4    -0.413195088862E+03   -0.26202E-01   -0.41559E-02  5110   0.173E-01    0.714E-01
RMM:   5    -0.413165068430E+03    0.30020E-01   -0.12279E-02  4733   0.117E-01    0.603E-02
RMM:   6    -0.413165139409E+03   -0.70979E-04   -0.22791E-03  5542   0.477E-02    0.315E-02
RMM:   7    -0.413165152829E+03   -0.13420E-04   -0.39972E-04  6018   0.174E-02    0.194E-02
RMM:   8    -0.413165147263E+03    0.55668E-05   -0.68940E-05  5217   0.917E-03    0.822E-03
RMM:   9    -0.413165143350E+03    0.39127E-05   -0.90914E-06  3462   0.368E-03    0.422E-03
RMM:  10    -0.413165143195E+03    0.15437E-06   -0.21714E-06  2586   0.223E-03
    7 T=    61. E= -.41286665E+03 F= -.41316514E+03 E0= -.41314269E+03  EK= 0.29850E+00 SP= 0.00E+00 SK= 0.00E+00
       N       E                     dE             d eps       ncg     rms          rms(c)
RMM:   1    -0.413162860679E+03    0.22827E-02   -0.93864E+00  4261   0.658E-01    0.882E-01
RMM:   2    -0.413169245237E+03   -0.63846E-02   -0.11487E-01  4105   0.910E-02    0.646E-01
RMM:   3    -0.413166408678E+03    0.28366E-02   -0.14134E-02  4946   0.511E-02    0.132E-01
RMM:   4    -0.413201647901E+03   -0.35239E-01   -0.38046E-02  5137   0.163E-01    0.783E-01
RMM:   5    -0.413165492920E+03    0.36155E-01   -0.17082E-02  4804   0.130E-01    0.516E-02
RMM:   6    -0.413165710371E+03   -0.21745E-03   -0.29429E-03  5753   0.533E-02    0.330E-02
RMM:   7    -0.413165715480E+03   -0.51088E-05   -0.47012E-04  5803   0.194E-02    0.211E-02
RMM:   8    -0.413165711738E+03    0.37414E-05   -0.68918E-05  5188   0.883E-03    0.967E-03
RMM:   9    -0.413165710960E+03    0.77797E-06   -0.13213E-05  3909   0.407E-03    0.680E-03
RMM:  10    -0.413165713697E+03   -0.27367E-05   -0.20833E-06  2585   0.220E-03    0.429E-03
RMM:  11    -0.413165716233E+03   -0.25359E-05   -0.11760E-06  2521   0.171E-03    0.235E-03
RMM:  12    -0.413165720057E+03   -0.38245E-05   -0.18493E-06  2593   0.194E-03    0.987E-04
RMM:  13    -0.413165721288E+03   -0.12306E-05   -0.62841E-07  2399   0.130E-03    0.765E-04
RMM:  14    -0.413165721039E+03    0.24868E-06   -0.24095E-07  1883   0.850E-04
    8 T=    61. E= -.41286688E+03 F= -.41316572E+03 E0= -.41314329E+03  EK= 0.29884E+00 SP= 0.00E+00 SK= 0.00E+00
       N       E                     dE             d eps       ncg     rms          rms(c)
RMM:   1    -0.413163324837E+03    0.23965E-02   -0.94304E+00  4284   0.664E-01    0.898E-01
RMM:   2    -0.413169413784E+03   -0.60889E-02   -0.11472E-01  4167   0.923E-02    0.649E-01
RMM:   3    -0.413166173854E+03    0.32399E-02   -0.13757E-02  4779   0.460E-02    0.104E-01
RMM:   4    -0.413189317463E+03   -0.23144E-01   -0.23835E-02  5140   0.128E-01    0.637E-01
RMM:   5    -0.413165751583E+03    0.23566E-01   -0.11462E-02  4815   0.105E-01    0.454E-02
RMM:   6    -0.413165906039E+03   -0.15446E-03   -0.19862E-03  5786   0.432E-02    0.304E-02
RMM:   7    -0.413165904011E+03    0.20278E-05   -0.35038E-04  5626   0.179E-02    0.192E-02
RMM:   8    -0.413165895465E+03    0.85462E-05   -0.54257E-05  4965   0.818E-03    0.916E-03
RMM:   9    -0.413165894055E+03    0.14099E-05   -0.10806E-05  3702   0.372E-03    0.700E-03
RMM:  10    -0.413165894750E+03   -0.69472E-06   -0.17105E-06  2546   0.216E-03
    9 T=    61. E= -.41286677E+03 F= -.41316589E+03 E0= -.41314349E+03  EK= 0.29913E+00 SP= 0.00E+00 SK= 0.00E+00
       N       E                     dE             d eps       ncg     rms          rms(c)
RMM:   1    -0.413163635965E+03    0.22581E-02   -0.94056E+00  4295   0.666E-01    0.904E-01
RMM:   2    -0.413169190251E+03   -0.55543E-02   -0.11369E-01  4280   0.911E-02    0.642E-01
RMM:   3    -0.413169903157E+03   -0.71291E-03   -0.16220E-02  5116   0.728E-02    0.280E-01
RMM:   4    -0.413194973786E+03   -0.25071E-01   -0.41097E-02  5103   0.172E-01    0.704E-01
RMM:   5    -0.413165881256E+03    0.29093E-01   -0.11853E-02  4724   0.115E-01    0.598E-02
RMM:   6    -0.413165953189E+03   -0.71932E-04   -0.22320E-03  5548   0.469E-02    0.319E-02
RMM:   7    -0.413165963767E+03   -0.10578E-04   -0.38832E-04  5988   0.174E-02    0.193E-02
RMM:   8    -0.413165956866E+03    0.69014E-05   -0.66914E-05  5172   0.914E-03    0.817E-03
RMM:   9    -0.413165951941E+03    0.49248E-05   -0.89815E-06  3444   0.367E-03    0.425E-03
RMM:  10    -0.413165950677E+03    0.12639E-05   -0.21066E-06  2582   0.221E-03    0.280E-03
RMM:  11    -0.413165948785E+03    0.18918E-05   -0.12977E-06  2521   0.180E-03    0.149E-03
RMM:  12    -0.413165946879E+03    0.19058E-05   -0.78911E-07  2481   0.143E-03    0.561E-04
RMM:  13    -0.413165945862E+03    0.10170E-05   -0.38657E-07  2123   0.102E-03    0.322E-04
RMM:  14    -0.413165944890E+03    0.97259E-06   -0.23546E-07  1659   0.810E-04
   10 T=    61. E= -.41286656E+03 F= -.41316594E+03 E0= -.41314356E+03  EK= 0.29938E+00 SP= 0.00E+00 SK= 0.00E+00
       N       E                     dE             d eps       ncg     rms          rms(c)
RMM:   1    -0.413163955856E+03    0.19900E-02   -0.93785E+00  4287   0.673E-01    0.882E-01
RMM:   2    -0.413170130606E+03   -0.61747E-02   -0.11484E-01  4206   0.916E-02    0.644E-01
RMM:   3    -0.413167217282E+03    0.29133E-02   -0.13780E-02  4899   0.486E-02    0.120E-01
RMM:   4    -0.413198701780E+03   -0.31484E-01   -0.33359E-02  5129   0.152E-01    0.740E-01
RMM:   5    -0.413166503758E+03    0.32198E-01   -0.15393E-02  4800   0.123E-01    0.495E-02
RMM:   6    -0.413166709420E+03   -0.20566E-03   -0.26912E-03  5746   0.503E-02    0.329E-02
RMM:   7    -0.413166709150E+03    0.26986E-06   -0.44090E-04  5711   0.191E-02    0.208E-02
RMM:   8    -0.413166703011E+03    0.61389E-05   -0.63824E-05  5122   0.862E-03    0.965E-03
RMM:   9    -0.413166701394E+03    0.16169E-05   -0.12728E-05  3871   0.401E-03    0.708E-03
RMM:  10    -0.413166702511E+03   -0.11175E-05   -0.19030E-06  2572   0.218E-03    0.442E-03
RMM:  11    -0.413166703699E+03   -0.11877E-05   -0.12002E-06  2514   0.174E-03    0.239E-03
RMM:  12    -0.413166705403E+03   -0.17041E-05   -0.17279E-06  2575   0.193E-03    0.100E-03
RMM:  13    -0.413166705754E+03   -0.35058E-06   -0.54001E-07  2362   0.127E-03
   11 T=    61. E= -.41286688E+03 F= -.41316671E+03 E0= -.41314435E+03  EK= 0.29982E+00 SP= 0.00E+00 SK= 0.00E+00
       N       E                     dE             d eps       ncg     rms          rms(c)
RMM:   1    -0.413164096313E+03    0.26091E-02   -0.94486E+00  4295   0.679E-01    0.894E-01
RMM:   2    -0.413170073903E+03   -0.59776E-02   -0.11556E-01  4211   0.914E-02    0.651E-01
RMM:   3    -0.413167008545E+03    0.30654E-02   -0.13970E-02  4839   0.459E-02    0.106E-01
RMM:   4    -0.413192676931E+03   -0.25668E-01   -0.26718E-02  5130   0.136E-01    0.670E-01
RMM:   5    -0.413166491940E+03    0.26185E-01   -0.12625E-02  4802   0.111E-01    0.464E-02
RMM:   6    -0.413166670643E+03   -0.17870E-03   -0.22669E-03  5777   0.454E-02    0.304E-02
RMM:   7    -0.413166673841E+03   -0.31977E-05   -0.36215E-04  5678   0.180E-02    0.195E-02
RMM:   8    -0.413166665646E+03    0.81955E-05   -0.61701E-05  4977   0.848E-03    0.966E-03
RMM:   9    -0.413166663737E+03    0.19085E-05   -0.12080E-05  3884   0.396E-03    0.736E-03
RMM:  10    -0.413166664383E+03   -0.64613E-06   -0.17605E-06  2553   0.218E-03
   12 T=    61. E= -.41286664E+03 F= -.41316666E+03 E0= -.41314433E+03  EK= 0.30003E+00 SP= 0.00E+00 SK= 0.00E+00
       N       E                     dE             d eps       ncg     rms          rms(c)
RMM:   1    -0.413165034745E+03    0.16290E-02   -0.94403E+00  4300   0.679E-01    0.909E-01
RMM:   2    -0.413170135374E+03   -0.51006E-02   -0.11429E-01  4308   0.919E-02    0.644E-01
RMM:   3    -0.413172554627E+03   -0.24193E-02   -0.17434E-02  5136   0.793E-02    0.320E-01
RMM:   4    -0.413192107656E+03   -0.19553E-01   -0.39079E-02  5087   0.168E-01    0.651E-01
RMM:   5    -0.413167239116E+03    0.24869E-01   -0.95492E-03  4695   0.106E-01    0.590E-02
RMM:   6    -0.413167272375E+03   -0.33258E-04   -0.18902E-03  5481   0.431E-02    0.317E-02
RMM:   7    -0.413167275958E+03   -0.35835E-05   -0.34747E-04  5963   0.169E-02    0.190E-02
RMM:   8    -0.413167267962E+03    0.79956E-05   -0.62886E-05  5131   0.905E-03    0.784E-03
RMM:   9    -0.413167262344E+03    0.56187E-05   -0.80249E-06  3371   0.361E-03    0.401E-03
RMM:  10    -0.413167260495E+03    0.18490E-05   -0.17930E-06  2548   0.214E-03    0.258E-03
RMM:  11    -0.413167257456E+03    0.30389E-05   -0.12837E-06  2514   0.179E-03    0.146E-03
RMM:  12    -0.413167254815E+03    0.26409E-05   -0.70949E-07  2465   0.139E-03    0.567E-04
RMM:  13    -0.413167253210E+03    0.16051E-05   -0.36103E-07  2096   0.992E-04    0.318E-04
RMM:  14    -0.413167251717E+03    0.14933E-05   -0.21474E-07  1593   0.791E-04    0.218E-04
RMM:  15    -0.413167249299E+03    0.24181E-05   -0.20594E-07  1483   0.754E-04    0.140E-04
RMM:  16    -0.413167247206E+03    0.20923E-05   -0.15991E-07  1379   0.693E-04    0.132E-04
RMM:  17    -0.413167244864E+03    0.23420E-05   -0.14767E-07  1342   0.669E-04    0.736E-05
RMM:  18    -0.413167243771E+03    0.10932E-05   -0.68577E-08   982   0.579E-04    0.407E-05
RMM:  19    -0.413167242969E+03    0.80167E-06   -0.42240E-08   864   0.550E-04
   13 T=    61. E= -.41286677E+03 F= -.41316724E+03 E0= -.41314494E+03  EK= 0.30048E+00 SP= 0.00E+00 SK= 0.00E+00
       N       E                     dE             d eps       ncg     rms          rms(c)
RMM:   1    -0.413166184319E+03    0.10595E-02   -0.93906E+00  4291   0.704E-01    0.886E-01
RMM:   2    -0.413171176209E+03   -0.49919E-02   -0.11495E-01  4230   0.929E-02    0.642E-01
RMM:   3    -0.413168552398E+03    0.26238E-02   -0.13733E-02  4905   0.499E-02    0.131E-01
RMM:   4    -0.413202662449E+03   -0.34110E-01   -0.36670E-02  5124   0.159E-01    0.770E-01
RMM:   5    -0.413167725659E+03    0.34937E-01   -0.16647E-02  4795   0.128E-01    0.511E-02
RMM:   6    -0.413167940520E+03   -0.21486E-03   -0.29176E-03  5738   0.523E-02    0.338E-02
RMM:   7    -0.413167937406E+03    0.31132E-05   -0.46285E-04  5679   0.196E-02    0.214E-02
RMM:   8    -0.413167929737E+03    0.76698E-05   -0.68303E-05  5151   0.891E-03    0.998E-03
RMM:   9    -0.413167926573E+03    0.31634E-05   -0.13679E-05  3981   0.414E-03    0.720E-03
RMM:  10    -0.413167926296E+03    0.27724E-06   -0.19963E-06  2567   0.221E-03
   14 T=    61. E= -.41286693E+03 F= -.41316793E+03 E0= -.41314566E+03  EK= 0.30100E+00 SP= 0.00E+00 SK= 0.00E+00
       N       E                     dE             d eps       ncg     rms          rms(c)
RMM:   1    -0.413165274199E+03    0.26524E-02   -0.94691E+00  4303   0.688E-01    0.891E-01
RMM:   2    -0.413171630660E+03   -0.63565E-02   -0.11601E-01  4316   0.937E-02    0.653E-01
RMM:   3    -0.413174533288E+03   -0.29026E-02   -0.18989E-02  5124   0.873E-02    0.351E-01
RMM:   4    -0.413192535230E+03   -0.18002E-01   -0.41290E-02  5068   0.174E-01    0.647E-01
RMM:   5    -0.413167893854E+03    0.24641E-01   -0.91621E-03  4666   0.105E-01    0.586E-02
RMM:   6    -0.413167914209E+03   -0.20355E-04   -0.18087E-03  5432   0.421E-02    0.297E-02
RMM:   7    -0.413167930765E+03   -0.16556E-04   -0.33309E-04  5970   0.167E-02    0.182E-02
RMM:   8    -0.413167928254E+03    0.25114E-05   -0.63167E-05  5141   0.898E-03    0.755E-03
RMM:   9    -0.413167926336E+03    0.19172E-05   -0.80930E-06  3351   0.365E-03    0.383E-03
RMM:  10    -0.413167927330E+03   -0.99387E-06   -0.16146E-06  2533   0.207E-03
   15 T=    61. E= -.41286655E+03 F= -.41316793E+03 E0= -.41314569E+03  EK= 0.30137E+00 SP= 0.00E+00 SK= 0.00E+00
       N       E                     dE             d eps       ncg     rms          rms(c)
RMM:   1    -0.413166740693E+03    0.11856E-02   -0.94765E+00  4302   0.691E-01    0.910E-01
RMM:   2    -0.413172217494E+03   -0.54768E-02   -0.11486E-01  4240   0.922E-02    0.647E-01
RMM:   3    -0.413169567669E+03    0.26498E-02   -0.13808E-02  4922   0.486E-02    0.133E-01
RMM:   4    -0.413203370138E+03   -0.33802E-01   -0.36148E-02  5131   0.158E-01    0.766E-01
RMM:   5    -0.413168784893E+03    0.34585E-01   -0.16617E-02  4797   0.127E-01    0.514E-02
RMM:   6    -0.413168995792E+03   -0.21090E-03   -0.29208E-03  5754   0.525E-02    0.347E-02
RMM:   7    -0.413168987376E+03    0.84153E-05   -0.46894E-04  5725   0.200E-02    0.219E-02
RMM:   8    -0.413168975084E+03    0.12292E-04   -0.70566E-05  5150   0.911E-03    0.104E-02
RMM:   9    -0.413168968970E+03    0.61144E-05   -0.13847E-05  3989   0.418E-03    0.751E-03
RMM:  10    -0.413168965037E+03    0.39332E-05   -0.20574E-06  2568   0.227E-03    0.464E-03
RMM:  11    -0.413168962229E+03    0.28073E-05   -0.11535E-06  2504   0.174E-03    0.268E-03
RMM:  12    -0.413168956689E+03    0.55404E-05   -0.19454E-06  2598   0.207E-03    0.112E-03
RMM:  13    -0.413168953769E+03    0.29197E-05   -0.64990E-07  2399   0.138E-03    0.896E-04
RMM:  14    -0.413168954047E+03   -0.27742E-06   -0.25730E-07  1963   0.892E-04
   16 T=    62. E= -.41286682E+03 F= -.41316895E+03 E0= -.41314676E+03  EK= 0.30214E+00 SP= 0.00E+00 SK= 0.00E+00
       N       E                     dE             d eps       ncg     rms          rms(c)
RMM:   1    -0.413166762700E+03    0.21911E-02   -0.94108E+00  4298   0.697E-01    0.892E-01
RMM:   2    -0.413172742355E+03   -0.59797E-02   -0.11470E-01  4260   0.909E-02    0.642E-01
RMM:   3    -0.413169813470E+03    0.29289E-02   -0.13478E-02  4870   0.461E-02    0.116E-01
RMM:   4    -0.413198050050E+03   -0.28237E-01   -0.29635E-02  5124   0.143E-01    0.702E-01
RMM:   5    -0.413169238387E+03    0.28812E-01   -0.13903E-02  4796   0.116E-01    0.482E-02
RMM:   6    -0.413169419794E+03   -0.18141E-03   -0.25073E-03  5790   0.476E-02    0.320E-02
RMM:   7    -0.413169417481E+03    0.23132E-05   -0.39089E-04  5667   0.187E-02    0.203E-02
RMM:   8    -0.413169406407E+03    0.11074E-04   -0.66854E-05  5034   0.881E-03    0.102E-02
RMM:   9    -0.413169401382E+03    0.50255E-05   -0.13046E-05  3993   0.413E-03    0.765E-03
RMM:  10    -0.413169398774E+03    0.26079E-05   -0.18773E-06  2560   0.221E-03    0.472E-03
RMM:  11    -0.413169396603E+03    0.21708E-05   -0.12732E-06  2511   0.182E-03    0.258E-03
RMM:  12    -0.413169393030E+03    0.35727E-05   -0.16449E-06  2549   0.197E-03    0.101E-03
RMM:  13    -0.413169391506E+03    0.15239E-05   -0.52974E-07  2341   0.129E-03    0.675E-04
RMM:  14    -0.413169391429E+03    0.77482E-07   -0.23791E-07  1882   0.853E-04
   17 T=    62. E= -.41286664E+03 F= -.41316939E+03 E0= -.41314723E+03  EK= 0.30275E+00 SP= 0.00E+00 SK= 0.00E+00
       N       E                     dE             d eps       ncg     rms          rms(c)
RMM:   1    -0.413167314189E+03    0.20773E-02   -0.94986E+00  4294   0.707E-01    0.890E-01
RMM:   2    -0.413173480985E+03   -0.61668E-02   -0.11697E-01  4254   0.930E-02    0.653E-01
RMM:   3    -0.413170332432E+03    0.31486E-02   -0.14302E-02  4864   0.479E-02    0.110E-01
RMM:   4    -0.413199019006E+03   -0.28687E-01   -0.30192E-02  5122   0.144E-01    0.707E-01
RMM:   5    -0.413169729414E+03    0.29290E-01   -0.14146E-02  4792   0.117E-01    0.479E-02
RMM:   6    -0.413169911476E+03   -0.18206E-03   -0.25244E-03  5779   0.481E-02    0.317E-02
RMM:   7    -0.413169911105E+03    0.37005E-06   -0.40037E-04  5665   0.187E-02    0.203E-02
RMM:   8    -0.413169903347E+03    0.77588E-05   -0.64695E-05  5053   0.867E-03    0.983E-03
RMM:   9    -0.413169900621E+03    0.27257E-05   -0.12840E-05  3923   0.406E-03    0.734E-03
RMM:  10    -0.413169900813E+03   -0.19172E-06   -0.18090E-06  2551   0.217E-03
   18 T=    62. E= -.41286652E+03 F= -.41316990E+03 E0= -.41314778E+03  EK= 0.30338E+00 SP= 0.00E+00 SK= 0.00E+00
       N       E                     dE             d eps       ncg     rms          rms(c)
RMM:   1    -0.413168836393E+03    0.10642E-02   -0.95189E+00  4300   0.708E-01    0.910E-01
RMM:   2    -0.413174339278E+03   -0.55029E-02   -0.11600E-01  4322   0.944E-02    0.651E-01
RMM:   3    -0.413176782069E+03   -0.24428E-02   -0.17891E-02  5121   0.821E-02    0.329E-01
RMM:   4    -0.413196366154E+03   -0.19584E-01   -0.40330E-02  5072   0.171E-01    0.655E-01
RMM:   5    -0.413171104740E+03    0.25261E-01   -0.96593E-03  4680   0.107E-01    0.586E-02
RMM:   6    -0.413171132408E+03   -0.27668E-04   -0.19033E-03  5461   0.432E-02    0.314E-02
RMM:   7    -0.413171137238E+03   -0.48299E-05   -0.35023E-04  5956   0.170E-02    0.191E-02
RMM:   8    -0.413171128647E+03    0.85910E-05   -0.64699E-05  5138   0.911E-03    0.794E-03
RMM:   9    -0.413171122098E+03    0.65495E-05   -0.82949E-06  3389   0.367E-03    0.402E-03
RMM:  10    -0.413171119751E+03    0.23464E-05   -0.17846E-06  2546   0.214E-03    0.258E-03
RMM:  11    -0.413171115941E+03    0.38107E-05   -0.12242E-06  2503   0.177E-03    0.146E-03
RMM:  12    -0.413171112573E+03    0.33673E-05   -0.65577E-07  2454   0.137E-03    0.545E-04
RMM:  13    -0.413171110533E+03    0.20405E-05   -0.33027E-07  2079   0.974E-04    0.308E-04
RMM:  14    -0.413171108685E+03    0.18479E-05   -0.18881E-07  1556   0.773E-04    0.210E-04
RMM:  15    -0.413171105679E+03    0.30064E-05   -0.16493E-07  1436   0.727E-04    0.133E-04
RMM:  16    -0.413171103038E+03    0.26407E-05   -0.12673E-07  1339   0.675E-04    0.130E-04
RMM:  17    -0.413171099998E+03    0.30394E-05   -0.11602E-07  1309   0.658E-04    0.710E-05
RMM:  18    -0.413171098494E+03    0.15042E-05   -0.59711E-08   989   0.579E-04    0.388E-05
RMM:  19    -0.413171097556E+03    0.93842E-06   -0.34804E-08   856   0.549E-04
   19 T=    62. E= -.41286687E+03 F= -.41317110E+03 E0= -.41314902E+03  EK= 0.30423E+00 SP= 0.00E+00 SK= 0.00E+00
       N       E                     dE             d eps       ncg     rms          rms(c)
RMM:   1    -0.413169028132E+03    0.20704E-02   -0.94646E+00  4295   0.706E-01    0.900E-01
RMM:   2    -0.413174458629E+03   -0.54305E-02   -0.11548E-01  4259   0.947E-02    0.644E-01
RMM:   3    -0.413172170092E+03    0.22885E-02   -0.13779E-02  4929   0.508E-02    0.139E-01
RMM:   4    -0.413207755914E+03   -0.35586E-01   -0.38613E-02  5123   0.163E-01    0.786E-01
RMM:   5    -0.413171281819E+03    0.36474E-01   -0.17560E-02  4786   0.131E-01    0.521E-02
RMM:   6    -0.413171486508E+03   -0.20469E-03   -0.30225E-03  5744   0.537E-02    0.348E-02
RMM:   7    -0.413171480365E+03    0.61435E-05   -0.48371E-04  5690   0.201E-02    0.221E-02
RMM:   8    -0.413171469383E+03    0.10981E-04   -0.74509E-05  5186   0.929E-03    0.105E-02
RMM:   9    -0.413171463163E+03    0.62197E-05   -0.14805E-05  4105   0.432E-03    0.744E-03
RMM:  10    -0.413171459511E+03    0.36530E-05   -0.21217E-06  2577   0.226E-03    0.465E-03
RMM:  11    -0.413171456953E+03    0.25573E-05   -0.11368E-06  2505   0.170E-03    0.270E-03
RMM:  12    -0.413171452104E+03    0.48496E-05   -0.17311E-06  2552   0.203E-03    0.110E-03
RMM:  13    -0.413171449529E+03    0.25743E-05   -0.63228E-07  2386   0.138E-03    0.900E-04
RMM:  14    -0.413171449779E+03   -0.24939E-06   -0.26185E-07  1980   0.899E-04
   20 T=    62. E= -.41286662E+03 F= -.41317145E+03 E0= -.41314942E+03  EK= 0.30483E+00 SP= 0.00E+00 SK= 0.00E+00
       N       E                     dE             d eps       ncg     rms          rms(c)
RMM:   1    -0.413169856928E+03    0.15926E-02   -0.95204E+00  4295   0.715E-01    0.890E-01
RMM:   2    -0.413176128849E+03   -0.62719E-02   -0.11764E-01  4270   0.934E-02    0.653E-01
RMM:   3    -0.413172983721E+03    0.31451E-02   -0.14283E-02  4847   0.485E-02    0.109E-01
RMM:   4    -0.413200875523E+03   -0.27892E-01   -0.29298E-02  5123   0.142E-01    0.697E-01
RMM:   5    -0.413172423628E+03    0.28452E-01   -0.13897E-02  4796   0.116E-01    0.471E-02
RMM:   6    -0.413172587025E+03   -0.16340E-03   -0.23711E-03  5797   0.472E-02    0.302E-02
RMM:   7    -0.413172591246E+03   -0.42216E-05   -0.35950E-04  5675   0.180E-02    0.189E-02
RMM:   8    -0.413172583434E+03    0.78126E-05   -0.69156E-05  5025   0.878E-03    0.100E-02
RMM:   9    -0.413172579328E+03    0.41052E-05   -0.13358E-05  4045   0.419E-03    0.742E-03
RMM:  10    -0.413172578498E+03    0.83032E-06   -0.18018E-06  2551   0.218E-03
   21 T=    62. E= -.41286681E+03 F= -.41317258E+03 E0= -.41315059E+03  EK= 0.30576E+00 SP= 0.00E+00 SK= 0.00E+00
       N       E                     dE             d eps       ncg     rms          rms(c)
RMM:   1    -0.413171424013E+03    0.11553E-02   -0.95662E+00  4298   0.730E-01    0.908E-01
RMM:   2    -0.413177096812E+03   -0.56728E-02   -0.11718E-01  4329   0.953E-02    0.655E-01
RMM:   3    -0.413178871956E+03   -0.17751E-02   -0.17743E-02  5112   0.805E-02    0.316E-01
RMM:   4    -0.413201363626E+03   -0.22492E-01   -0.42535E-02  5086   0.175E-01    0.686E-01
RMM:   5    -0.413173612726E+03    0.27751E-01   -0.10875E-02  4687   0.112E-01    0.584E-02
RMM:   6    -0.413173668324E+03   -0.55598E-04   -0.21260E-03  5513   0.456E-02    0.314E-02
RMM:   7    -0.413173676709E+03   -0.83848E-05   -0.36742E-04  5938   0.172E-02    0.193E-02
RMM:   8    -0.413173669206E+03    0.75034E-05   -0.67320E-05  5151   0.916E-03    0.813E-03
RMM:   9    -0.413173662644E+03    0.65617E-05   -0.90003E-06  3458   0.374E-03    0.415E-03
RMM:  10    -0.413173660286E+03    0.23578E-05   -0.19107E-06  2563   0.216E-03    0.272E-03
RMM:  11    -0.413173656672E+03    0.36145E-05   -0.11846E-06  2501   0.175E-03    0.147E-03
RMM:  12    -0.413173653119E+03    0.35528E-05   -0.68332E-07  2458   0.138E-03    0.515E-04
RMM:  13    -0.413173651104E+03    0.20145E-05   -0.33493E-07  2083   0.981E-04    0.297E-04
RMM:  14    -0.413173649175E+03    0.19296E-05   -0.19203E-07  1584   0.776E-04    0.194E-04
RMM:  15    -0.413173646368E+03    0.28069E-05   -0.14871E-07  1372   0.710E-04    0.124E-04
RMM:  16    -0.413173643763E+03    0.26050E-05   -0.11495E-07  1278   0.669E-04    0.127E-04
RMM:  17    -0.413173640931E+03    0.28316E-05   -0.98650E-08  1241   0.644E-04    0.690E-05
RMM:  18    -0.413173638999E+03    0.19328E-05   -0.60953E-08  1027   0.589E-04    0.340E-05
RMM:  19    -0.413173637992E+03    0.10067E-05   -0.32612E-08   843   0.551E-04    0.235E-05
RMM:  20    -0.413173637642E+03    0.34988E-06   -0.15570E-08   718   0.533E-04
   22 T=    62. E= -.41286687E+03 F= -.41317364E+03 E0= -.41315170E+03  EK= 0.30677E+00 SP= 0.00E+00 SK= 0.00E+00
       N       E                     dE             d eps       ncg     rms          rms(c)
RMM:   1    -0.413172051677E+03    0.15863E-02   -0.95428E+00  4295   0.719E-01    0.910E-01
RMM:   2    -0.413177786564E+03   -0.57349E-02   -0.11656E-01  4279   0.950E-02    0.648E-01
RMM:   3    -0.413175028836E+03    0.27577E-02   -0.13890E-02  4892   0.517E-02    0.139E-01
RMM:   4    -0.413210556326E+03   -0.35527E-01   -0.38344E-02  5125   0.163E-01    0.785E-01
RMM:   5    -0.413174177411E+03    0.36379E-01   -0.17541E-02  4786   0.131E-01    0.523E-02
RMM:   6    -0.413174385408E+03   -0.20800E-03   -0.31029E-03  5753   0.540E-02    0.351E-02
RMM:   7    -0.413174378416E+03    0.69921E-05   -0.48058E-04  5679   0.203E-02    0.223E-02
RMM:   8    -0.413174365222E+03    0.13194E-04   -0.77649E-05  5170   0.952E-03    0.110E-02
RMM:   9    -0.413174357774E+03    0.74482E-05   -0.15196E-05  4139   0.443E-03    0.781E-03
RMM:  10    -0.413174352892E+03    0.48820E-05   -0.21956E-06  2589   0.231E-03    0.490E-03
RMM:  11    -0.413174349365E+03    0.35272E-05   -0.12107E-06  2507   0.177E-03    0.284E-03
RMM:  12    -0.413174342839E+03    0.65256E-05   -0.18527E-06  2566   0.210E-03    0.112E-03
RMM:  13    -0.413174339493E+03    0.33461E-05   -0.63925E-07  2392   0.141E-03    0.919E-04
RMM:  14    -0.413174339899E+03   -0.40581E-06   -0.27133E-07  2008   0.915E-04
   23 T=    63. E= -.41286661E+03 F= -.41317434E+03 E0= -.41315244E+03  EK= 0.30773E+00 SP= 0.00E+00 SK= 0.00E+00
       N       E                     dE             d eps       ncg     rms          rms(c)
RMM:   1    -0.413173293793E+03    0.10457E-02   -0.95591E+00  4295   0.732E-01    0.892E-01
RMM:   2    -0.413179860271E+03   -0.65665E-02   -0.11814E-01  4280   0.967E-02    0.653E-01
RMM:   3    -0.413176217385E+03    0.36429E-02   -0.14036E-02  4767   0.486E-02    0.103E-01
RMM:   4    -0.413200331203E+03   -0.24114E-01   -0.24992E-02  5130   0.131E-01    0.649E-01
RMM:   5    -0.413175771658E+03    0.24560E-01   -0.12103E-02  4802   0.108E-01    0.458E-02
RMM:   6    -0.413175906004E+03   -0.13435E-03   -0.20777E-03  5814   0.437E-02    0.283E-02
RMM:   7    -0.413175907533E+03   -0.15297E-05   -0.26769E-04  5651   0.162E-02    0.154E-02
RMM:   8    -0.413175903121E+03    0.44121E-05   -0.57726E-05  4998   0.782E-03    0.993E-03
RMM:   9    -0.413175898172E+03    0.49496E-05   -0.11653E-05  3938   0.395E-03    0.738E-03
RMM:  10    -0.413175896498E+03    0.16742E-05   -0.17093E-06  2549   0.219E-03    0.458E-03
RMM:  11    -0.413175894555E+03    0.19427E-05   -0.16158E-06  2541   0.202E-03    0.229E-03
RMM:  12    -0.413175891875E+03    0.26796E-05   -0.13114E-06  2501   0.181E-03    0.843E-04
RMM:  13    -0.413175891029E+03    0.84614E-06   -0.42516E-07  2240   0.115E-03
   24 T=    63. E= -.41286686E+03 F= -.41317589E+03 E0= -.41315404E+03  EK= 0.30903E+00 SP= 0.00E+00 SK= 0.00E+00
       N       E                     dE             d eps       ncg     rms          rms(c)
RMM:   1    -0.413174525054E+03    0.13668E-02   -0.96390E+00  4297   0.741E-01    0.907E-01
RMM:   2    -0.413180597555E+03   -0.60725E-02   -0.11897E-01  4278   0.985E-02    0.659E-01
RMM:   3    -0.413177061148E+03    0.35364E-02   -0.14176E-02  4728   0.486E-02    0.100E-01
RMM:   4    -0.413198030945E+03   -0.20970E-01   -0.21509E-02  5132   0.122E-01    0.606E-01
RMM:   5    -0.413176706176E+03    0.21325E-01   -0.10557E-02  4810   0.101E-01    0.446E-02
RMM:   6    -0.413176814764E+03   -0.10859E-03   -0.17997E-03  5817   0.405E-02    0.272E-02
RMM:   7    -0.413176813428E+03    0.13360E-05   -0.22125E-04  5627   0.150E-02    0.137E-02
RMM:   8    -0.413176809155E+03    0.42730E-05   -0.45308E-05  4940   0.696E-03    0.933E-03
RMM:   9    -0.413176804577E+03    0.45782E-05   -0.95734E-06  3681   0.357E-03    0.704E-03
RMM:  10    -0.413176802224E+03    0.23530E-05   -0.15198E-06  2532   0.213E-03    0.434E-03
RMM:  11    -0.413176798946E+03    0.32773E-05   -0.17254E-06  2546   0.208E-03    0.210E-03
RMM:  12    -0.413176795124E+03    0.38223E-05   -0.10800E-06  2472   0.169E-03    0.791E-04
RMM:  13    -0.413176794155E+03    0.96895E-06   -0.37515E-07  2186   0.108E-03
   25 T=    63. E= -.41286665E+03 F= -.41317679E+03 E0= -.41315500E+03  EK= 0.31014E+00 SP= 0.00E+00 SK= 0.00E+00
       N       E                     dE             d eps       ncg     rms          rms(c)
RMM:   1    -0.413175913285E+03    0.88184E-03   -0.96408E+00  4294   0.737E-01    0.919E-01
RMM:   2    -0.413181330900E+03   -0.54176E-02   -0.11809E-01  4276   0.985E-02    0.653E-01
RMM:   3    -0.413178272378E+03    0.30585E-02   -0.13825E-02  4536   0.472E-02    0.980E-02
RMM:   4    -0.413189323200E+03   -0.11051E-01   -0.11297E-02  5142   0.887E-02    0.443E-01
RMM:   5    -0.413178145623E+03    0.11178E-01   -0.56684E-03  4825   0.732E-02    0.421E-02
RMM:   6    -0.413178179903E+03   -0.34280E-04   -0.10428E-03  5815   0.301E-02    0.242E-02
RMM:   7    -0.413178178933E+03    0.96975E-06   -0.20297E-04  5477   0.145E-02    0.161E-02
RMM:   8    -0.413178161201E+03    0.17732E-04   -0.28934E-05  4586   0.634E-03    0.761E-03
RMM:   9    -0.413178157773E+03    0.34282E-05   -0.60684E-06  3134   0.298E-03    0.572E-03
RMM:  10    -0.413178152639E+03    0.51340E-05   -0.14320E-06  2499   0.207E-03    0.321E-03
RMM:  11    -0.413178146051E+03    0.65884E-05   -0.11565E-06  2498   0.178E-03    0.162E-03
RMM:  12    -0.413178140439E+03    0.56122E-05   -0.56562E-07  2369   0.129E-03    0.713E-04
RMM:  13    -0.413178138500E+03    0.19382E-05   -0.27762E-07  1961   0.906E-04    0.363E-04
RMM:  14    -0.413178135959E+03    0.25414E-05   -0.16503E-07  1599   0.752E-04    0.247E-04
RMM:  15    -0.413178130587E+03    0.53717E-05   -0.14654E-07  1593   0.732E-04    0.157E-04
RMM:  16    -0.413178129115E+03    0.14723E-05   -0.56300E-08   971   0.600E-04    0.122E-04
RMM:  17    -0.413178125258E+03    0.38570E-05   -0.68110E-08  1113   0.617E-04    0.649E-05
RMM:  18    -0.413178122466E+03    0.27919E-05   -0.50504E-08  1011   0.588E-04    0.309E-05
RMM:  19    -0.413178121851E+03    0.61504E-06   -0.20524E-08   771   0.535E-04
   26 T=    63. E= -.41286670E+03 F= -.41317812E+03 E0= -.41315637E+03  EK= 0.31142E+00 SP= 0.00E+00 SK= 0.00E+00
       N       E                     dE             d eps       ncg     rms          rms(c)
RMM:   1    -0.413178276243E+03   -0.15378E-03   -0.96294E+00  4289   0.778E-01    0.897E-01
RMM:   2    -0.413183316518E+03   -0.50403E-02   -0.12050E-01  4275   0.104E-01    0.655E-01
RMM:   3    -0.413180088884E+03    0.32276E-02   -0.13992E-02  4623   0.514E-02    0.972E-02
RMM:   4    -0.413197520232E+03   -0.17431E-01   -0.17756E-02  5139   0.111E-01    0.554E-01
RMM:   5    -0.413179845309E+03    0.17675E-01   -0.88652E-03  4819   0.917E-02    0.434E-02
RMM:   6    -0.413179926601E+03   -0.81291E-04   -0.15075E-03  5822   0.367E-02    0.260E-02
RMM:   7    -0.413179925550E+03    0.10507E-05   -0.18082E-04  5493   0.140E-02    0.120E-02
RMM:   8    -0.413179920364E+03    0.51859E-05   -0.26349E-05  4476   0.545E-03    0.779E-03
RMM:   9    -0.413179917629E+03    0.27356E-05   -0.41632E-06  2826   0.258E-03    0.485E-03
RMM:  10    -0.413179916950E+03    0.67840E-06   -0.11160E-06  2490   0.170E-03
   27 T=    64. E= -.41286695E+03 F= -.41317992E+03 E0= -.41315822E+03  EK= 0.31297E+00 SP= 0.00E+00 SK= 0.00E+00
       N       E                     dE             d eps       ncg     rms          rms(c)
RMM:   1    -0.413179145308E+03    0.77232E-03   -0.97366E+00  4296   0.770E-01    0.908E-01
RMM:   2    -0.413184617260E+03   -0.54720E-02   -0.12149E-01  4277   0.103E-01    0.665E-01
RMM:   3    -0.413181088826E+03    0.35284E-02   -0.14555E-02  4449   0.506E-02    0.796E-02
RMM:   4    -0.413188082135E+03   -0.69933E-02   -0.71853E-03  5145   0.712E-02    0.354E-01
RMM:   5    -0.413181030831E+03    0.70513E-02   -0.36120E-03  4835   0.583E-02    0.397E-02
RMM:   6    -0.413181062299E+03   -0.31467E-04   -0.76661E-04  5741   0.261E-02    0.263E-02
RMM:   7    -0.413181053711E+03    0.85873E-05   -0.24727E-04  5317   0.159E-02    0.168E-02
RMM:   8    -0.413181040497E+03    0.13214E-04   -0.18310E-05  4120   0.569E-03    0.696E-03
RMM:   9    -0.413181038922E+03    0.15748E-05   -0.37229E-06  2796   0.246E-03    0.460E-03
RMM:  10    -0.413181036706E+03    0.22163E-05   -0.13870E-06  2499   0.193E-03    0.254E-03
RMM:  11    -0.413181034263E+03    0.24434E-05   -0.85090E-07  2452   0.153E-03    0.118E-03
RMM:  12    -0.413181031993E+03    0.22700E-05   -0.45673E-07  2192   0.112E-03    0.509E-04
RMM:  13    -0.413181030446E+03    0.15464E-05   -0.25795E-07  1807   0.857E-04    0.282E-04
RMM:  14    -0.413181028189E+03    0.22568E-05   -0.15479E-07  1410   0.728E-04    0.176E-04
RMM:  15    -0.413181024948E+03    0.32415E-05   -0.12767E-07  1326   0.691E-04    0.902E-05
RMM:  16    -0.413181023427E+03    0.15214E-05   -0.65736E-08  1032   0.607E-04    0.671E-05
RMM:  17    -0.413181020239E+03    0.31873E-05   -0.80620E-08  1201   0.627E-04    0.428E-05
RMM:  18    -0.413181019246E+03    0.99340E-06   -0.32680E-08   864   0.552E-04
   28 T=    64. E= -.41286664E+03 F= -.41318102E+03 E0= -.41315937E+03  EK= 0.31438E+00 SP= 0.00E+00 SK= 0.00E+00
       N       E                     dE             d eps       ncg     rms          rms(c)
RMM:   1    -0.413181023705E+03   -0.34656E-05   -0.97545E+00  4287   0.763E-01    0.927E-01
RMM:   2    -0.413186484619E+03   -0.54609E-02   -0.12025E-01  4270   0.104E-01    0.660E-01
RMM:   3    -0.413183185641E+03    0.32990E-02   -0.14150E-02  4576   0.495E-02    0.101E-01
RMM:   4    -0.413195944321E+03   -0.12759E-01   -0.12989E-02  5146   0.955E-02    0.475E-01
RMM:   5    -0.413183055215E+03    0.12889E-01   -0.65427E-03  4826   0.783E-02    0.430E-02
RMM:   6    -0.413183101235E+03   -0.46020E-04   -0.11706E-03  5832   0.319E-02    0.261E-02
RMM:   7    -0.413183100409E+03    0.82660E-06   -0.22364E-04  5462   0.153E-02    0.164E-02
RMM:   8    -0.413183083134E+03    0.17274E-04   -0.32639E-05  4709   0.668E-03    0.800E-03
RMM:   9    -0.413183080229E+03    0.29052E-05   -0.63217E-06  3154   0.310E-03    0.602E-03
RMM:  10    -0.413183075075E+03    0.51545E-05   -0.14774E-06  2502   0.210E-03    0.335E-03
RMM:  11    -0.413183069918E+03    0.51570E-05   -0.10211E-06  2488   0.170E-03    0.172E-03
RMM:  12    -0.413183064530E+03    0.53874E-05   -0.74130E-07  2445   0.140E-03    0.880E-04
RMM:  13    -0.413183062439E+03    0.20913E-05   -0.30803E-07  2081   0.970E-04    0.394E-04
RMM:  14    -0.413183060629E+03    0.18098E-05   -0.16124E-07  1519   0.740E-04    0.257E-04
RMM:  15    -0.413183057138E+03    0.34909E-05   -0.11682E-07  1406   0.697E-04    0.119E-04
RMM:  16    -0.413183054348E+03    0.27904E-05   -0.70878E-08  1130   0.634E-04    0.115E-04
RMM:  17    -0.413183052430E+03    0.19177E-05   -0.41974E-08   892   0.586E-04    0.759E-05
RMM:  18    -0.413183048320E+03    0.41097E-05   -0.69218E-08  1194   0.631E-04    0.313E-05
RMM:  19    -0.413183047693E+03    0.62703E-06   -0.21485E-08   758   0.543E-04
   29 T=    64. E= -.41286682E+03 F= -.41318305E+03 E0= -.41316145E+03  EK= 0.31622E+00 SP= 0.00E+00 SK= 0.00E+00
       N       E                     dE             d eps       ncg     rms          rms(c)
RMM:   1    -0.413184054054E+03   -0.10057E-02   -0.97360E+00  4287   0.805E-01    0.907E-01
RMM:   2    -0.413188728422E+03   -0.46744E-02   -0.12196E-01  4265   0.115E-01    0.657E-01
RMM:   3    -0.413185091290E+03    0.36371E-02   -0.14134E-02  4552   0.539E-02    0.962E-02
RMM:   4    -0.413197808478E+03   -0.12717E-01   -0.12946E-02  5145   0.954E-02    0.475E-01
RMM:   5    -0.413184944915E+03    0.12864E-01   -0.65378E-03  4826   0.781E-02    0.421E-02
RMM:   6    -0.413184989274E+03   -0.44359E-04   -0.11597E-03  5835   0.317E-02    0.257E-02
RMM:   7    -0.413184991586E+03   -0.23123E-05   -0.22563E-04  5461   0.152E-02    0.164E-02
RMM:   8    -0.413184975040E+03    0.16546E-04   -0.33423E-05  4732   0.672E-03    0.789E-03
RMM:   9    -0.413184973014E+03    0.20259E-05   -0.64274E-06  3163   0.312E-03    0.588E-03
RMM:  10    -0.413184969501E+03    0.35134E-05   -0.14577E-06  2500   0.207E-03    0.328E-03
RMM:  11    -0.413184966027E+03    0.34737E-05   -0.97114E-07  2484   0.165E-03    0.169E-03
RMM:  12    -0.413184962266E+03    0.37611E-05   -0.73896E-07  2441   0.138E-03    0.887E-04
RMM:  13    -0.413184960706E+03    0.15597E-05   -0.29544E-07  2060   0.957E-04    0.386E-04
RMM:  14    -0.413184959360E+03    0.13461E-05   -0.15045E-07  1460   0.726E-04    0.254E-04
RMM:  15    -0.413184956705E+03    0.26552E-05   -0.11232E-07  1394   0.689E-04    0.116E-04
RMM:  16    -0.413184954520E+03    0.21852E-05   -0.64724E-08  1049   0.625E-04    0.102E-04
RMM:  17    -0.413184952785E+03    0.17349E-05   -0.42680E-08   908   0.592E-04    0.716E-05
RMM:  18    -0.413184949484E+03    0.33011E-05   -0.62409E-08  1139   0.621E-04    0.292E-05
RMM:  19    -0.413184948869E+03    0.61471E-06   -0.20436E-08   748   0.545E-04
   30 T=    65. E= -.41286677E+03 F= -.41318495E+03 E0= -.41316340E+03  EK= 0.31817E+00 SP= 0.00E+00 SK= 0.00E+00
       N       E                     dE             d eps       ncg     rms          rms(c)
RMM:   1    -0.413185000685E+03   -0.51201E-04   -0.98544E+00  4294   0.798E-01    0.910E-01
RMM:   2    -0.413190904757E+03   -0.59041E-02   -0.12424E-01  4270   0.115E-01    0.670E-01
RMM:   3    -0.413186913629E+03    0.39911E-02   -0.15133E-02  4609   0.617E-02    0.959E-02
RMM:   4    -0.413206336666E+03   -0.19423E-01   -0.19680E-02  5134   0.117E-01    0.584E-01
RMM:   5    -0.413186622071E+03    0.19715E-01   -0.99037E-03  4816   0.963E-02    0.444E-02
RMM:   6    -0.413186705737E+03   -0.83665E-04   -0.16722E-03  5842   0.381E-02    0.271E-02
RMM:   7    -0.413186705528E+03    0.20826E-06   -0.20422E-04  5522   0.145E-02    0.128E-02
RMM:   8    -0.413186699035E+03    0.64930E-05   -0.28397E-05  4556   0.566E-03    0.766E-03
RMM:   9    -0.413186697748E+03    0.12869E-05   -0.54346E-06  2949   0.278E-03    0.519E-03
RMM:  10    -0.413186696403E+03    0.13454E-05   -0.10950E-06  2499   0.174E-03    0.375E-03
RMM:  11    -0.413186693765E+03    0.26382E-05   -0.17368E-06  2533   0.216E-03    0.196E-03
RMM:  12    -0.413186692112E+03    0.16524E-05   -0.93799E-07  2457   0.160E-03    0.116E-03
RMM:  13    -0.413186691363E+03    0.74990E-06   -0.30310E-07  2153   0.996E-04
   31 T=    65. E= -.41286657E+03 F= -.41318669E+03 E0= -.41316519E+03  EK= 0.32012E+00 SP= 0.00E+00 SK= 0.00E+00
       N       E                     dE             d eps       ncg     rms          rms(c)
RMM:   1    -0.413188694842E+03   -0.20027E-02   -0.99088E+00  4294   0.809E-01    0.933E-01
RMM:   2    -0.413192951552E+03   -0.42567E-02   -0.12433E-01  4276   0.119E-01    0.668E-01
RMM:   3    -0.413189312162E+03    0.36394E-02   -0.14573E-02  4377   0.593E-02    0.941E-02
RMM:   4    -0.413194038225E+03   -0.47261E-02   -0.51035E-03  5158   0.598E-02    0.291E-01
RMM:   5    -0.413189299070E+03    0.47392E-02   -0.24540E-03  4828   0.482E-02    0.405E-02
RMM:   6    -0.413189322662E+03   -0.23593E-04   -0.66081E-04  5698   0.243E-02    0.280E-02
RMM:   7    -0.413189295926E+03    0.26737E-04   -0.24061E-04  5195   0.158E-02    0.168E-02
RMM:   8    -0.413189284146E+03    0.11779E-04   -0.17678E-05  4051   0.540E-03    0.676E-03
RMM:   9    -0.413189281027E+03    0.31193E-05   -0.25548E-06  2631   0.224E-03    0.443E-03
RMM:  10    -0.413189275136E+03    0.58907E-05   -0.12463E-06  2482   0.183E-03    0.229E-03
RMM:  11    -0.413189269974E+03    0.51624E-05   -0.72120E-07  2409   0.138E-03    0.108E-03
RMM:  12    -0.413189264929E+03    0.50449E-05   -0.42040E-07  2176   0.107E-03    0.421E-04
RMM:  13    -0.413189261559E+03    0.33701E-05   -0.23187E-07  1778   0.823E-04    0.270E-04
RMM:  14    -0.413189257700E+03    0.38587E-05   -0.12511E-07  1280   0.690E-04    0.175E-04
RMM:  15    -0.413189251980E+03    0.57207E-05   -0.10781E-07  1273   0.675E-04    0.876E-05
RMM:  16    -0.413189249657E+03    0.23229E-05   -0.56802E-08  1026   0.604E-04    0.717E-05
RMM:  17    -0.413189244969E+03    0.46876E-05   -0.75409E-08  1291   0.635E-04    0.384E-05
RMM:  18    -0.413189243985E+03    0.98368E-06   -0.28529E-08   830   0.539E-04
   32 T=    66. E= -.41286686E+03 F= -.41318924E+03 E0= -.41316779E+03  EK= 0.32239E+00 SP= 0.00E+00 SK= 0.00E+00
       N       E                     dE             d eps       ncg     rms          rms(c)
RMM:   1    -0.413190106097E+03   -0.86113E-03   -0.98821E+00  4298   0.818E-01    0.921E-01
RMM:   2    -0.413194832363E+03   -0.47263E-02   -0.12524E-01  4277   0.121E-01    0.663E-01
RMM:   3    -0.413191163462E+03    0.36689E-02   -0.14380E-02  4387   0.597E-02    0.926E-02
RMM:   4    -0.413195727451E+03   -0.45640E-02   -0.49335E-03  5165   0.591E-02    0.286E-01
RMM:   5    -0.413191166778E+03    0.45607E-02   -0.23581E-03  4825   0.473E-02    0.406E-02
RMM:   6    -0.413191194149E+03   -0.27371E-04   -0.64604E-04  5684   0.242E-02    0.289E-02
RMM:   7    -0.413191166993E+03    0.27157E-04   -0.24536E-04  5177   0.159E-02    0.168E-02
RMM:   8    -0.413191156375E+03    0.10617E-04   -0.20014E-05  4298   0.556E-03    0.679E-03
RMM:   9    -0.413191154015E+03    0.23608E-05   -0.26522E-06  2632   0.224E-03    0.437E-03
RMM:  10    -0.413191149152E+03    0.48625E-05   -0.11300E-06  2478   0.175E-03    0.230E-03
RMM:  11    -0.413191144945E+03    0.42073E-05   -0.71523E-07  2400   0.135E-03    0.106E-03
RMM:  12    -0.413191140789E+03    0.41559E-05   -0.40494E-07  2165   0.105E-03    0.437E-04
RMM:  13    -0.413191138061E+03    0.27277E-05   -0.21657E-07  1724   0.806E-04    0.249E-04
RMM:  14    -0.413191135038E+03    0.30236E-05   -0.11073E-07  1190   0.673E-04    0.169E-04
RMM:  15    -0.413191130689E+03    0.43486E-05   -0.88405E-08  1164   0.651E-04    0.771E-05
RMM:  16    -0.413191128566E+03    0.21230E-05   -0.49643E-08   944   0.601E-04    0.647E-05
RMM:  17    -0.413191124887E+03    0.36789E-05   -0.62227E-08  1177   0.620E-04    0.454E-05
RMM:  18    -0.413191123254E+03    0.16336E-05   -0.30725E-08   868   0.557E-04    0.275E-05
RMM:  19    -0.413191122725E+03    0.52864E-06   -0.16395E-08   698   0.527E-04
   33 T=    66. E= -.41286665E+03 F= -.41319112E+03 E0= -.41316972E+03  EK= 0.32447E+00 SP= 0.00E+00 SK= 0.00E+00
       N       E                     dE             d eps       ncg     rms          rms(c)
RMM:   1    -0.413194810134E+03   -0.36869E-02   -0.10014E+01  4300   0.860E-01    0.915E-01
RMM:   2    -0.413197539665E+03   -0.27295E-02   -0.13091E-01  4268   0.128E-01    0.675E-01
RMM:   3    -0.413193435832E+03    0.41038E-02   -0.14923E-02  4278   0.626E-02    0.794E-02
RMM:   4    -0.413194344302E+03   -0.90847E-03   -0.13937E-03  5150   0.301E-02    0.128E-01
RMM:   5    -0.413193492897E+03    0.85140E-03   -0.48796E-04  4802   0.221E-02    0.397E-02
RMM:   6    -0.413193513596E+03   -0.20699E-04   -0.38466E-04  5418   0.190E-02    0.286E-02
RMM:   7    -0.413193483198E+03    0.30398E-04   -0.20190E-04  4899   0.144E-02    0.187E-02
RMM:   8    -0.413193476543E+03    0.66546E-05   -0.25180E-05  4235   0.506E-03    0.591E-03
RMM:   9    -0.413193476028E+03    0.51585E-06   -0.27504E-06  2513   0.214E-03
   34 T=    67. E= -.41286669E+03 F= -.41319348E+03 E0= -.41317212E+03  EK= 0.32678E+00 SP= 0.00E+00 SK= 0.00E+00
       N       E                     dE             d eps       ncg     rms          rms(c)
RMM:   1    -0.413205101031E+03   -0.11624E-01   -0.10157E+01  4300   0.929E-01    0.937E-01
RMM:   2    -0.413199741426E+03    0.53596E-02   -0.14178E-01  4270   0.132E-01    0.678E-01
RMM:   3    -0.413196126581E+03    0.36148E-02   -0.14031E-02  4461   0.608E-02    0.112E-01
RMM:   4    -0.413203659842E+03   -0.75333E-02   -0.79709E-03  5173   0.757E-02    0.367E-01
RMM:   5    -0.413196141885E+03    0.75180E-02   -0.38740E-03  4825   0.611E-02    0.431E-02
RMM:   6    -0.413196144170E+03   -0.22842E-05   -0.83467E-04  5713   0.288E-02    0.323E-02
RMM:   7    -0.413196126089E+03    0.18081E-04   -0.29215E-04  5250   0.169E-02    0.173E-02
RMM:   8    -0.413196113853E+03    0.12236E-04   -0.29166E-05  4746   0.630E-03    0.754E-03
RMM:   9    -0.413196111056E+03    0.27974E-05   -0.44454E-06  2836   0.256E-03    0.427E-03
RMM:  10    -0.413196104917E+03    0.61389E-05   -0.12784E-06  2498   0.190E-03    0.223E-03
RMM:  11    -0.413196099021E+03    0.58959E-05   -0.73550E-07  2449   0.140E-03    0.114E-03
RMM:  12    -0.413196093480E+03    0.55412E-05   -0.44378E-07  2225   0.110E-03    0.490E-04
RMM:  13    -0.413196089944E+03    0.35356E-05   -0.23079E-07  1750   0.825E-04    0.273E-04
RMM:  14    -0.413196086197E+03    0.37467E-05   -0.12736E-07  1234   0.692E-04    0.190E-04
RMM:  15    -0.413196080014E+03    0.61832E-05   -0.10850E-07  1187   0.675E-04    0.994E-05
RMM:  16    -0.413196077051E+03    0.29631E-05   -0.65536E-08  1059   0.621E-04    0.794E-05
RMM:  17    -0.413196073188E+03    0.38633E-05   -0.61567E-08  1135   0.617E-04    0.442E-05
RMM:  18    -0.413196070437E+03    0.27508E-05   -0.42965E-08  1015   0.579E-04    0.251E-05
RMM:  19    -0.413196069941E+03    0.49618E-06   -0.18175E-08   685   0.515E-04
   35 T=    67. E= -.41286684E+03 F= -.41319607E+03 E0= -.41317476E+03  EK= 0.32923E+00 SP= 0.00E+00 SK= 0.00E+00
       N       E                     dE             d eps       ncg     rms          rms(c)
RMM:   1    -0.413197204707E+03   -0.11343E-02   -0.10053E+01  4300   0.878E-01    0.936E-01
RMM:   2    -0.413201506717E+03   -0.43020E-02   -0.12946E-01  4248   0.130E-01    0.671E-01
RMM:   3    -0.413198328575E+03    0.31781E-02   -0.14711E-02  4555   0.638E-02    0.108E-01
RMM:   4    -0.413212996230E+03   -0.14668E-01   -0.14828E-02  5168   0.102E-01    0.510E-01
RMM:   5    -0.413198231080E+03    0.14765E-01   -0.75284E-03  4818   0.844E-02    0.451E-02
RMM:   6    -0.413198248122E+03   -0.17042E-04   -0.14009E-03  5814   0.359E-02    0.305E-02
RMM:   7    -0.413198247442E+03    0.68015E-06   -0.32863E-04  5429   0.179E-02    0.194E-02
RMM:   8    -0.413198228021E+03    0.19421E-04   -0.41700E-05  4924   0.761E-03    0.892E-03
RMM:   9    -0.413198225093E+03    0.29276E-05   -0.75063E-06  3250   0.339E-03    0.596E-03
RMM:  10    -0.413198219383E+03    0.57104E-05   -0.16780E-06  2530   0.225E-03    0.319E-03
RMM:  11    -0.413198214023E+03    0.53598E-05   -0.10952E-06  2496   0.174E-03    0.166E-03
RMM:  12    -0.413198207606E+03    0.64174E-05   -0.82390E-07  2457   0.150E-03    0.852E-04
RMM:  13    -0.413198204630E+03    0.29762E-05   -0.35378E-07  2143   0.103E-03    0.430E-04
RMM:  14    -0.413198202805E+03    0.18249E-05   -0.17611E-07  1583   0.762E-04    0.287E-04
RMM:  15    -0.413198198761E+03    0.40440E-05   -0.11079E-07  1304   0.687E-04    0.117E-04
RMM:  16    -0.413198195457E+03    0.33034E-05   -0.68864E-08  1067   0.637E-04    0.857E-05
RMM:  17    -0.413198192690E+03    0.27676E-05   -0.48448E-08   954   0.609E-04    0.630E-05
RMM:  18    -0.413198188406E+03    0.42836E-05   -0.58793E-08  1210   0.632E-04    0.391E-05
RMM:  19    -0.413198187157E+03    0.12490E-05   -0.27953E-08   865   0.557E-04    0.267E-05
RMM:  20    -0.413198186713E+03    0.44459E-06   -0.15615E-08   711   0.533E-04
   36 T=    68. E= -.41286662E+03 F= -.41319819E+03 E0= -.41317692E+03  EK= 0.33156E+00 SP= 0.00E+00 SK= 0.00E+00
       N       E                     dE             d eps       ncg     rms          rms(c)
RMM:   1    -0.413205185573E+03   -0.69984E-02   -0.10175E+01  4303   0.948E-01    0.922E-01
RMM:   2    -0.413205280978E+03   -0.95405E-04   -0.14039E-01  4250   0.138E-01    0.680E-01
RMM:   3    -0.413201336923E+03    0.39441E-02   -0.14565E-02  4606   0.633E-02    0.110E-01
RMM:   4    -0.413220239457E+03   -0.18903E-01   -0.19192E-02  5155   0.116E-01    0.577E-01
RMM:   5    -0.413201171309E+03    0.19068E-01   -0.96800E-03  4814   0.956E-02    0.461E-02
RMM:   6    -0.413201197366E+03   -0.26056E-04   -0.16908E-03  5834   0.389E-02    0.299E-02
RMM:   7    -0.413201209731E+03   -0.12365E-04   -0.32851E-04  5509   0.176E-02    0.190E-02
RMM:   8    -0.413201192782E+03    0.16948E-04   -0.52475E-05  4969   0.815E-03    0.902E-03
RMM:   9    -0.413201191651E+03    0.11319E-05   -0.10297E-05  3692   0.393E-03    0.623E-03
RMM:  10    -0.413201188710E+03    0.29404E-05   -0.17430E-06  2553   0.227E-03    0.347E-03
RMM:  11    -0.413201186249E+03    0.24616E-05   -0.10078E-06  2497   0.165E-03    0.193E-03
RMM:  12    -0.413201182093E+03    0.41556E-05   -0.11374E-06  2498   0.168E-03    0.994E-04
RMM:  13    -0.413201180033E+03    0.20602E-05   -0.41666E-07  2205   0.112E-03    0.518E-04
RMM:  14    -0.413201179302E+03    0.73107E-06   -0.19518E-07  1664   0.787E-04
   37 T=    68. E= -.41286687E+03 F= -.41320118E+03 E0= -.41317996E+03  EK= 0.33431E+00 SP= 0.00E+00 SK= 0.00E+00
       N       E                     dE             d eps       ncg     rms          rms(c)
RMM:   1    -0.413214660465E+03   -0.13480E-01   -0.10346E+01  4308   0.101E+00    0.940E-01
RMM:   2    -0.413208057963E+03    0.66025E-02   -0.15342E-01  4249   0.136E-01    0.688E-01
RMM:   3    -0.413203996234E+03    0.40617E-02   -0.13756E-02  4712   0.589E-02    0.141E-01
RMM:   4    -0.413233304244E+03   -0.29308E-01   -0.29956E-02  5157   0.145E-01    0.714E-01
RMM:   5    -0.413203658277E+03    0.29646E-01   -0.15052E-02  4804   0.119E-01    0.498E-02
RMM:   6    -0.413203718048E+03   -0.59771E-04   -0.24569E-03  5848   0.468E-02    0.321E-02
RMM:   7    -0.413203727918E+03   -0.98703E-05   -0.34991E-04  5657   0.180E-02    0.180E-02
RMM:   8    -0.413203715701E+03    0.12217E-04   -0.64678E-05  5035   0.851E-03    0.102E-02
RMM:   9    -0.413203713223E+03    0.24777E-05   -0.17458E-05  4406   0.481E-03    0.723E-03
RMM:  10    -0.413203707849E+03    0.53748E-05   -0.23504E-06  2634   0.249E-03    0.414E-03
RMM:  11    -0.413203704786E+03    0.30630E-05   -0.11516E-06  2502   0.174E-03    0.256E-03
RMM:  12    -0.413203697080E+03    0.77061E-05   -0.16876E-06  2536   0.208E-03    0.130E-03
RMM:  13    -0.413203693426E+03    0.36539E-05   -0.63307E-07  2373   0.139E-03    0.804E-04
RMM:  14    -0.413203692869E+03    0.55672E-06   -0.25541E-07  1981   0.900E-04
   38 T=    69. E= -.41286672E+03 F= -.41320369E+03 E0= -.41318251E+03  EK= 0.33697E+00 SP= 0.00E+00 SK= 0.00E+00
       N       E                     dE             d eps       ncg     rms          rms(c)
RMM:   1    -0.413206040657E+03   -0.23472E-02   -0.10255E+01  4306   0.968E-01    0.953E-01
RMM:   2    -0.413210431019E+03   -0.43904E-02   -0.13496E-01  4252   0.124E-01    0.681E-01
RMM:   3    -0.413206733152E+03    0.36979E-02   -0.15010E-02  4839   0.568E-02    0.140E-01
RMM:   4    -0.413241372793E+03   -0.34640E-01   -0.36048E-02  5137   0.159E-01    0.775E-01
RMM:   5    -0.413206201311E+03    0.35171E-01   -0.17629E-02  4809   0.129E-01    0.528E-02
RMM:   6    -0.413206282199E+03   -0.80888E-04   -0.28913E-03  5836   0.504E-02    0.338E-02
RMM:   7    -0.413206289574E+03   -0.73749E-05   -0.38698E-04  5688   0.187E-02    0.185E-02
RMM:   8    -0.413206276801E+03    0.12772E-04   -0.66973E-05  5047   0.854E-03    0.107E-02
RMM:   9    -0.413206273148E+03    0.36537E-05   -0.20483E-05  4546   0.500E-03    0.768E-03
RMM:  10    -0.413206265316E+03    0.78319E-05   -0.26932E-06  2663   0.261E-03    0.440E-03
RMM:  11    -0.413206260849E+03    0.44672E-05   -0.12351E-06  2487   0.182E-03    0.273E-03
RMM:  12    -0.413206249561E+03    0.11287E-04   -0.17979E-06  2534   0.217E-03    0.136E-03
RMM:  13    -0.413206244322E+03    0.52395E-05   -0.68578E-07  2409   0.146E-03    0.885E-04
RMM:  14    -0.413206243787E+03    0.53534E-06   -0.27028E-07  2068   0.936E-04
   39 T=    69. E= -.41286663E+03 F= -.41320624E+03 E0= -.41318510E+03  EK= 0.33962E+00 SP= 0.00E+00 SK= 0.00E+00
       N       E                     dE             d eps       ncg     rms          rms(c)
RMM:   1    -0.413225228324E+03   -0.18984E-01   -0.10441E+01  4308   0.111E+00    0.931E-01
RMM:   2    -0.413213869734E+03    0.11359E-01   -0.16007E-01  4259   0.135E-01    0.688E-01
RMM:   3    -0.413210024850E+03    0.38449E-02   -0.13723E-02  4937   0.597E-02    0.179E-01
RMM:   4    -0.413259065489E+03   -0.49041E-01   -0.52819E-02  5134   0.191E-01    0.917E-01
RMM:   5    -0.413209021911E+03    0.50044E-01   -0.24777E-02  4789   0.154E-01    0.582E-02
RMM:   6    -0.413209179531E+03   -0.15762E-03   -0.40673E-03  5829   0.594E-02    0.361E-02
RMM:   7    -0.413209186900E+03   -0.73693E-05   -0.47346E-04  5761   0.201E-02    0.197E-02
RMM:   8    -0.413209185986E+03    0.91473E-06   -0.91238E-05  5180   0.943E-03    0.123E-02
RMM:   9    -0.413209176308E+03    0.96773E-05   -0.26911E-05  4691   0.561E-03    0.771E-03
RMM:  10    -0.413209171883E+03    0.44255E-05   -0.41772E-06  2801   0.295E-03    0.465E-03
RMM:  11    -0.413209168427E+03    0.34561E-05   -0.17091E-06  2511   0.213E-03    0.283E-03
RMM:  12    -0.413209160630E+03    0.77968E-05   -0.18586E-06  2532   0.221E-03    0.106E-03
RMM:  13    -0.413209156355E+03    0.42748E-05   -0.74955E-07  2441   0.151E-03    0.863E-04
RMM:  14    -0.413209156083E+03    0.27239E-06   -0.30409E-07  2134   0.981E-04
   40 T=    70. E= -.41286685E+03 F= -.41320916E+03 E0= -.41318805E+03  EK= 0.34231E+00 SP= 0.00E+00 SK= 0.00E+00
       N       E                     dE             d eps       ncg     rms          rms(c)
RMM:   1    -0.413222213768E+03   -0.13057E-01   -0.10514E+01  4309   0.112E+00    0.946E-01
RMM:   2    -0.413215955666E+03    0.62581E-02   -0.14931E-01  4262   0.140E-01    0.696E-01
RMM:   3    -0.413212598452E+03    0.33572E-02   -0.15807E-02  4990   0.658E-02    0.194E-01
RMM:   4    -0.413263418250E+03   -0.50820E-01   -0.57886E-02  5133   0.201E-01    0.937E-01
RMM:   5    -0.413210973070E+03    0.52445E-01   -0.25218E-02  4788   0.157E-01    0.597E-02
RMM:   6    -0.413211143285E+03   -0.17022E-03   -0.42547E-03  5827   0.607E-02    0.365E-02
RMM:   7    -0.413211152657E+03   -0.93718E-05   -0.50625E-04  5782   0.207E-02    0.212E-02
RMM:   8    -0.413211153384E+03   -0.72761E-06   -0.11210E-04  5226   0.104E-02    0.138E-02
RMM:   9    -0.413211141098E+03    0.12286E-04   -0.26862E-05  4705   0.590E-03    0.744E-03
RMM:  10    -0.413211137057E+03    0.40407E-05   -0.46448E-06  2865   0.299E-03    0.452E-03
RMM:  11    -0.413211134003E+03    0.30548E-05   -0.15361E-06  2495   0.208E-03    0.274E-03
RMM:  12    -0.413211127245E+03    0.67575E-05   -0.16771E-06  2532   0.211E-03    0.104E-03
RMM:  13    -0.413211122968E+03    0.42770E-05   -0.72002E-07  2437   0.147E-03    0.753E-04
RMM:  14    -0.413211122502E+03    0.46604E-06   -0.30434E-07  2119   0.975E-04
   41 T=    70. E= -.41286651E+03 F= -.41321112E+03 E0= -.41319005E+03  EK= 0.34462E+00 SP= 0.00E+00 SK= 0.00E+00
       N       E                     dE             d eps       ncg     rms          rms(c)
RMM:   1    -0.413219315780E+03   -0.81928E-02   -0.10474E+01  4310   0.114E+00    0.966E-01
RMM:   2    -0.413217770108E+03    0.15457E-02   -0.14420E-01  4297   0.135E-01    0.691E-01
RMM:   3    -0.413216569543E+03    0.12006E-02   -0.17199E-02  5066   0.751E-02    0.260E-01
RMM:   4    -0.413257870239E+03   -0.41301E-01   -0.55140E-02  5097   0.197E-01    0.865E-01
RMM:   5    -0.413213474103E+03    0.44396E-01   -0.20044E-02  4762   0.144E-01    0.609E-02
RMM:   6    -0.413213583130E+03   -0.10903E-03   -0.35454E-03  5791   0.559E-02    0.368E-02
RMM:   7    -0.413213587027E+03   -0.38969E-05   -0.47670E-04  5741   0.204E-02    0.224E-02
RMM:   8    -0.413213584250E+03    0.27775E-05   -0.12820E-04  5215   0.115E-02    0.137E-02
RMM:   9    -0.413213568674E+03    0.15576E-04   -0.22226E-05  4523   0.585E-03    0.610E-03
RMM:  10    -0.413213562657E+03    0.60172E-05   -0.49007E-06  2946   0.288E-03    0.380E-03
RMM:  11    -0.413213557507E+03    0.51501E-05   -0.12673E-06  2493   0.194E-03    0.217E-03
RMM:  12    -0.413213547978E+03    0.95294E-05   -0.10384E-06  2475   0.175E-03    0.841E-04
RMM:  13    -0.413213542127E+03    0.58509E-05   -0.49388E-07  2350   0.123E-03    0.478E-04
RMM:  14    -0.413213540646E+03    0.14811E-05   -0.24584E-07  1950   0.875E-04    0.336E-04
RMM:  15    -0.413213537417E+03    0.32282E-05   -0.13270E-07  1439   0.708E-04    0.172E-04
RMM:  16    -0.413213530755E+03    0.66625E-05   -0.10762E-07  1365   0.697E-04    0.193E-04
RMM:  17    -0.413213528098E+03    0.26567E-05   -0.56340E-08  1005   0.611E-04    0.120E-04
RMM:  18    -0.413213523486E+03    0.46124E-05   -0.63739E-08  1295   0.640E-04    0.979E-05
RMM:  19    -0.413213521003E+03    0.24830E-05   -0.39616E-08  1080   0.578E-04    0.522E-05
RMM:  20    -0.413213520004E+03    0.99893E-06   -0.22579E-08   860   0.537E-04
   42 T=    71. E= -.41286662E+03 F= -.41321352E+03 E0= -.41319248E+03  EK= 0.34690E+00 SP= 0.00E+00 SK= 0.00E+00
       N       E                     dE             d eps       ncg     rms          rms(c)
RMM:   1    -0.413247949293E+03   -0.34428E-01   -0.10702E+01  4310   0.134E+00    0.944E-01
RMM:   2    -0.413219834095E+03    0.28115E-01   -0.16900E-01  4319   0.149E-01    0.693E-01
RMM:   3    -0.413220142069E+03   -0.30797E-03   -0.16778E-02  5076   0.835E-02    0.326E-01
RMM:   4    -0.413256695748E+03   -0.36554E-01   -0.56167E-02  5092   0.200E-01    0.836E-01
RMM:   5    -0.413215398954E+03    0.41297E-01   -0.17953E-02  4737   0.139E-01    0.628E-02
RMM:   6    -0.413215466629E+03   -0.67675E-04   -0.32143E-03  5734   0.538E-02    0.363E-02
RMM:   7    -0.413215469278E+03   -0.26483E-05   -0.48478E-04  5764   0.201E-02    0.239E-02
RMM:   8    -0.413215466013E+03    0.32648E-05   -0.12739E-04  5187   0.117E-02    0.125E-02
RMM:   9    -0.413215454133E+03    0.11879E-04   -0.20732E-05  4480   0.577E-03    0.496E-03
RMM:  10    -0.413215450870E+03    0.32635E-05   -0.43722E-06  2849   0.266E-03    0.314E-03
RMM:  11    -0.413215447063E+03    0.38069E-05   -0.12832E-06  2494   0.188E-03    0.171E-03
RMM:  12    -0.413215441757E+03    0.53057E-05   -0.78511E-07  2451   0.150E-03    0.649E-04
RMM:  13    -0.413215438520E+03    0.32378E-05   -0.39372E-07  2140   0.107E-03    0.312E-04
RMM:  14    -0.413215436506E+03    0.20136E-05   -0.21360E-07  1685   0.818E-04    0.210E-04
RMM:  15    -0.413215432621E+03    0.38847E-05   -0.14438E-07  1376   0.726E-04    0.118E-04
RMM:  16    -0.413215430121E+03    0.24997E-05   -0.90510E-08  1154   0.662E-04    0.884E-05
RMM:  17    -0.413215427618E+03    0.25032E-05   -0.70005E-08  1130   0.641E-04    0.545E-05
RMM:  18    -0.413215424929E+03    0.26890E-05   -0.56996E-08  1136   0.623E-04    0.362E-05
RMM:  19    -0.413215423046E+03    0.18829E-05   -0.40556E-08  1028   0.587E-04    0.237E-05
RMM:  20    -0.413215422487E+03    0.55900E-06   -0.21540E-08   797   0.547E-04
   43 T=    71. E= -.41286662E+03 F= -.41321542E+03 E0= -.41319441E+03  EK= 0.34880E+00 SP= 0.00E+00 SK= 0.00E+00
       N       E                     dE             d eps       ncg     rms          rms(c)
RMM:   1    -0.413225884731E+03   -0.10462E-01   -0.10570E+01  4311   0.128E+00    0.949E-01
RMM:   2    -0.413221248106E+03    0.46366E-02   -0.15316E-01  4327   0.154E-01    0.703E-01
RMM:   3    -0.413222613748E+03   -0.13656E-02   -0.20084E-02  5068   0.940E-02    0.345E-01
RMM:   4    -0.413254097388E+03   -0.31484E-01   -0.54427E-02  5068   0.199E-01    0.795E-01
RMM:   5    -0.413216583967E+03    0.37513E-01   -0.15419E-02  4710   0.131E-01    0.605E-02
RMM:   6    -0.413216631790E+03   -0.47823E-04   -0.28919E-03  5715   0.508E-02    0.349E-02
RMM:   7    -0.413216633767E+03   -0.19767E-05   -0.43456E-04  5721   0.195E-02    0.228E-02
RMM:   8    -0.413216631164E+03    0.26026E-05   -0.11808E-04  5164   0.114E-02    0.117E-02
RMM:   9    -0.413216620673E+03    0.10491E-04   -0.18110E-05  4365   0.549E-03    0.479E-03
RMM:  10    -0.413216618240E+03    0.24336E-05   -0.38062E-06  2778   0.254E-03    0.298E-03
RMM:  11    -0.413216615459E+03    0.27806E-05   -0.12466E-06  2495   0.184E-03    0.160E-03
RMM:  12    -0.413216611332E+03    0.41272E-05   -0.78946E-07  2448   0.147E-03    0.636E-04
RMM:  13    -0.413216608825E+03    0.25071E-05   -0.38812E-07  2095   0.105E-03    0.297E-04
RMM:  14    -0.413216607087E+03    0.17375E-05   -0.21314E-07  1627   0.805E-04    0.194E-04
RMM:  15    -0.413216603479E+03    0.36085E-05   -0.15593E-07  1365   0.729E-04    0.124E-04
RMM:  16    -0.413216601679E+03    0.17997E-05   -0.91492E-08  1126   0.659E-04    0.851E-05
RMM:  17    -0.413216599395E+03    0.22844E-05   -0.74170E-08  1161   0.647E-04    0.518E-05
RMM:  18    -0.413216597114E+03    0.22806E-05   -0.59077E-08  1125   0.618E-04    0.350E-05
RMM:  19    -0.413216595371E+03    0.17435E-05   -0.38480E-08   979   0.583E-04    0.210E-05
RMM:  20    -0.413216594834E+03    0.53630E-06   -0.21023E-08   779   0.547E-04
   44 T=    71. E= -.41286645E+03 F= -.41321659E+03 E0= -.41319561E+03  EK= 0.35015E+00 SP= 0.00E+00 SK= 0.00E+00
       N       E                     dE             d eps       ncg     rms          rms(c)
RMM:   1    -0.413251470765E+03   -0.34875E-01   -0.10784E+01  4311   0.146E+00    0.971E-01
RMM:   2    -0.413221969138E+03    0.29502E-01   -0.16977E-01  4346   0.165E-01    0.701E-01
RMM:   3    -0.413226771998E+03   -0.48029E-02   -0.21065E-02  5112   0.105E-01    0.428E-01
RMM:   4    -0.413244963214E+03   -0.18191E-01   -0.47758E-02  5057   0.188E-01    0.684E-01
RMM:   5    -0.413217903092E+03    0.27060E-01   -0.10459E-02  4670   0.115E-01    0.603E-02
RMM:   6    -0.413217887864E+03    0.15227E-04   -0.21039E-03  5612   0.442E-02    0.350E-02
RMM:   7    -0.413217884145E+03    0.37189E-05   -0.36444E-04  5646   0.184E-02    0.231E-02
RMM:   8    -0.413217875906E+03    0.82391E-05   -0.12255E-04  5092   0.117E-02    0.110E-02
RMM:   9    -0.413217862726E+03    0.13180E-04   -0.16502E-05  4351   0.557E-03    0.443E-03
RMM:  10    -0.413217858948E+03    0.37778E-05   -0.32055E-06  2749   0.238E-03    0.262E-03
RMM:  11    -0.413217853288E+03    0.56606E-05   -0.11806E-06  2480   0.180E-03    0.142E-03
RMM:  12    -0.413217847197E+03    0.60907E-05   -0.63375E-07  2430   0.137E-03    0.649E-04
RMM:  13    -0.413217843537E+03    0.36602E-05   -0.30292E-07  1937   0.949E-04    0.305E-04
RMM:  14    -0.413217840160E+03    0.33770E-05   -0.17044E-07  1483   0.747E-04    0.171E-04
RMM:  15    -0.413217835102E+03    0.50579E-05   -0.12827E-07  1310   0.704E-04    0.124E-04
RMM:  16    -0.413217832139E+03    0.29629E-05   -0.82128E-08  1150   0.649E-04    0.937E-05
RMM:  17    -0.413217827300E+03    0.48396E-05   -0.83175E-08  1342   0.658E-04    0.652E-05
RMM:  18    -0.413217825286E+03    0.20141E-05   -0.43721E-08   978   0.573E-04    0.444E-05
RMM:  19    -0.413217823561E+03    0.17248E-05   -0.31562E-08   916   0.558E-04    0.231E-05
RMM:  20    -0.413217823219E+03    0.34173E-06   -0.17511E-08   739   0.525E-04
   45 T=    71. E= -.41286684E+03 F= -.41321782E+03 E0= -.41319685E+03  EK= 0.35098E+00 SP= 0.00E+00 SK= 0.00E+00
       N       E                     dE             d eps       ncg     rms          rms(c)
RMM:   1    -0.413253126382E+03   -0.35303E-01   -0.10685E+01  4310   0.155E+00    0.952E-01
RMM:   2    -0.413221652858E+03    0.31474E-01   -0.17289E-01  4368   0.178E-01    0.695E-01
RMM:   3    -0.413228702281E+03   -0.70494E-02   -0.22485E-02  5112   0.114E-01    0.479E-01
RMM:   4    -0.413239874353E+03   -0.11172E-01   -0.45386E-02  5033   0.185E-01    0.627E-01
RMM:   5    -0.413217420046E+03    0.22454E-01   -0.82515E-03  4614   0.106E-01    0.591E-02
RMM:   6    -0.413217386611E+03    0.33435E-04   -0.17288E-03  5492   0.405E-02    0.335E-02
RMM:   7    -0.413217386336E+03    0.27428E-06   -0.31141E-04  5606   0.172E-02    0.224E-02
RMM:   8    -0.413217378174E+03    0.81626E-05   -0.12779E-04  5069   0.118E-02    0.106E-02
RMM:   9    -0.413217365390E+03    0.12784E-04   -0.15906E-05  4318   0.554E-03    0.427E-03
RMM:  10    -0.413217362186E+03    0.32039E-05   -0.29174E-06  2721   0.228E-03    0.248E-03
RMM:  11    -0.413217356806E+03    0.53803E-05   -0.12223E-06  2491   0.180E-03    0.133E-03
RMM:  12    -0.413217351756E+03    0.50499E-05   -0.60014E-07  2415   0.133E-03    0.672E-04
RMM:  13    -0.413217348303E+03    0.34531E-05   -0.28690E-07  1871   0.922E-04    0.321E-04
RMM:  14    -0.413217344877E+03    0.34259E-05   -0.16074E-07  1396   0.728E-04    0.172E-04
RMM:  15    -0.413217340602E+03    0.42746E-05   -0.11852E-07  1261   0.685E-04    0.120E-04
RMM:  16    -0.413217337694E+03    0.29084E-05   -0.80263E-08  1138   0.640E-04    0.980E-05
RMM:  17    -0.413217333045E+03    0.46489E-05   -0.82132E-08  1308   0.652E-04    0.679E-05
RMM:  18    -0.413217331141E+03    0.19040E-05   -0.42381E-08   985   0.571E-04    0.463E-05
RMM:  19    -0.413217329776E+03    0.13644E-05   -0.29831E-08   888   0.543E-04    0.266E-05
RMM:  20    -0.413217329160E+03    0.61595E-06   -0.16783E-08   733   0.520E-04
   46 T=    71. E= -.41286675E+03 F= -.41321733E+03 E0= -.41319638E+03  EK= 0.35058E+00 SP= 0.00E+00 SK= 0.00E+00
       N       E                     dE             d eps       ncg     rms          rms(c)
RMM:   1    -0.413235273347E+03   -0.17944E-01   -0.10515E+01  4311   0.154E+00    0.941E-01
RMM:   2    -0.413220680549E+03    0.14593E-01   -0.16923E-01  4399   0.186E-01    0.705E-01
RMM:   3    -0.413229495592E+03   -0.88150E-02   -0.25134E-02  5102   0.125E-01    0.514E-01
RMM:   4    -0.413237630290E+03   -0.81347E-02   -0.47255E-02  5027   0.190E-01    0.613E-01
RMM:   5    -0.413215920818E+03    0.21709E-01   -0.75738E-03  4605   0.104E-01    0.586E-02
RMM:   6    -0.413215866439E+03    0.54379E-04   -0.15642E-03  5443   0.389E-02    0.320E-02
RMM:   7    -0.413215865948E+03    0.49099E-06   -0.28575E-04  5623   0.166E-02    0.216E-02
RMM:   8    -0.413215859221E+03    0.67268E-05   -0.13039E-04  5085   0.118E-02    0.104E-02
RMM:   9    -0.413215847745E+03    0.11477E-04   -0.15419E-05  4253   0.552E-03    0.416E-03
RMM:  10    -0.413215845616E+03    0.21285E-05   -0.28649E-06  2715   0.227E-03    0.240E-03
RMM:  11    -0.413215841872E+03    0.37446E-05   -0.12858E-06  2490   0.182E-03    0.127E-03
RMM:  12    -0.413215838613E+03    0.32588E-05   -0.62315E-07  2401   0.134E-03    0.683E-04
RMM:  13    -0.413215835994E+03    0.26185E-05   -0.30924E-07  1849   0.945E-04    0.326E-04
RMM:  14    -0.413215833400E+03    0.25943E-05   -0.17826E-07  1415   0.745E-04    0.175E-04
RMM:  15    -0.413215830323E+03    0.30770E-05   -0.13052E-07  1266   0.695E-04    0.112E-04
RMM:  16    -0.413215828162E+03    0.21607E-05   -0.86679E-08  1135   0.644E-04    0.915E-05
RMM:  17    -0.413215824649E+03    0.35133E-05   -0.90490E-08  1321   0.660E-04    0.614E-05
RMM:  18    -0.413215823059E+03    0.15897E-05   -0.45991E-08   974   0.572E-04    0.434E-05
RMM:  19    -0.413215822066E+03    0.99307E-06   -0.25882E-08   792   0.537E-04
   47 T=    71. E= -.41286684E+03 F= -.41321582E+03 E0= -.41319488E+03  EK= 0.34898E+00 SP= 0.00E+00 SK= 0.00E+00
       N       E                     dE             d eps       ncg     rms          rms(c)
RMM:   1    -0.413239049667E+03   -0.23227E-01   -0.10450E+01  4305   0.168E+00    0.960E-01
RMM:   2    -0.413217479159E+03    0.21571E-01   -0.16644E-01  4447   0.197E-01    0.700E-01
RMM:   3    -0.413233712218E+03   -0.16233E-01   -0.31146E-02  5141   0.145E-01    0.624E-01
RMM:   4    -0.413226408711E+03    0.73035E-02   -0.42889E-02  4984   0.185E-01    0.487E-01
RMM:   5    -0.413213160787E+03    0.13248E-01   -0.45449E-03  4543   0.895E-02    0.576E-02
RMM:   6    -0.413213053498E+03    0.10729E-03   -0.74778E-04  4929   0.304E-02    0.305E-02
RMM:   7    -0.413213042256E+03    0.11242E-04   -0.17057E-04  5761   0.127E-02    0.124E-02
RMM:   8    -0.413213039659E+03    0.25967E-05   -0.55651E-05  5215   0.797E-03    0.856E-03
RMM:   9    -0.413213031299E+03    0.83604E-05   -0.13678E-05  4166   0.442E-03    0.445E-03
RMM:  10    -0.413213029175E+03    0.21236E-05   -0.18890E-06  2533   0.226E-03    0.234E-03
RMM:  11    -0.413213023316E+03    0.58587E-05   -0.15004E-06  2481   0.197E-03    0.144E-03
RMM:  12    -0.413213019614E+03    0.37022E-05   -0.55345E-07  2378   0.134E-03    0.849E-04
RMM:  13    -0.413213015433E+03    0.41813E-05   -0.26594E-07  1864   0.928E-04    0.451E-04
RMM:  14    -0.413213010719E+03    0.47140E-05   -0.16829E-07  1572   0.750E-04    0.335E-04
RMM:  15    -0.413213006123E+03    0.45960E-05   -0.10073E-07  1071   0.613E-04    0.151E-04
RMM:  16    -0.413213003530E+03    0.25927E-05   -0.64660E-08   974   0.578E-04    0.110E-04
RMM:  17    -0.413213000510E+03    0.30199E-05   -0.54825E-08   987   0.576E-04    0.917E-05
RMM:  18    -0.413212997422E+03    0.30887E-05   -0.44483E-08   951   0.570E-04    0.621E-05
RMM:  19    -0.413212996421E+03    0.10003E-05   -0.21864E-08   734   0.518E-04    0.437E-05
RMM:  20    -0.413212994936E+03    0.14854E-05   -0.20950E-08   762   0.520E-04    0.336E-05
RMM:  21    -0.413212994608E+03    0.32823E-06   -0.96081E-09   567   0.487E-04
   48 T=    70. E= -.41286712E+03 F= -.41321299E+03 E0= -.41319206E+03  EK= 0.34588E+00 SP= 0.00E+00 SK= 0.00E+00
       N       E                     dE             d eps       ncg     rms          rms(c)
RMM:   1    -0.413238280579E+03   -0.25286E-01   -0.10246E+01  4305   0.179E+00    0.948E-01
RMM:   2    -0.413211802336E+03    0.26478E-01   -0.16483E-01  4517   0.205E-01    0.689E-01
RMM:   3    -0.413235563745E+03   -0.23761E-01   -0.36797E-02  5159   0.163E-01    0.719E-01
RMM:   4    -0.413216622335E+03    0.18941E-01   -0.41720E-02  4957   0.186E-01    0.405E-01
RMM:   5    -0.413207896677E+03    0.87257E-02   -0.38789E-03  4595   0.862E-02    0.619E-02
RMM:   6    -0.413207730860E+03    0.16582E-03   -0.44431E-04  4673   0.283E-02    0.326E-02
RMM:   7    -0.413207745476E+03   -0.14616E-04   -0.30771E-04  5743   0.182E-02    0.243E-02
RMM:   8    -0.413207709601E+03    0.35875E-04   -0.10078E-04  4996   0.115E-02    0.926E-03
RMM:   9    -0.413207703834E+03    0.57672E-05   -0.19677E-05  4901   0.562E-03    0.475E-03
RMM:  10    -0.413207699994E+03    0.38396E-05   -0.22379E-06  2617   0.239E-03    0.258E-03
RMM:  11    -0.413207694071E+03    0.59229E-05   -0.14051E-06  2493   0.194E-03    0.182E-03
RMM:  12    -0.413207690375E+03    0.36961E-05   -0.42999E-07  2394   0.122E-03    0.941E-04
RMM:  13    -0.413207685974E+03    0.44016E-05   -0.26670E-07  1979   0.885E-04    0.442E-04
RMM:  14    -0.413207680524E+03    0.54491E-05   -0.22574E-07  1849   0.809E-04    0.377E-04
RMM:  15    -0.413207675746E+03    0.47789E-05   -0.11300E-07  1159   0.638E-04    0.148E-04
RMM:  16    -0.413207672936E+03    0.28094E-05   -0.66918E-08  1019   0.593E-04    0.865E-05
RMM:  17    -0.413207669109E+03    0.38275E-05   -0.63775E-08  1086   0.605E-04    0.670E-05
RMM:  18    -0.413207667429E+03    0.16795E-05   -0.38744E-08   968   0.562E-04    0.620E-05
RMM:  19    -0.413207665350E+03    0.20789E-05   -0.33279E-08   966   0.552E-04    0.399E-05
RMM:  20    -0.413207664217E+03    0.11330E-05   -0.22156E-08   859   0.522E-04    0.238E-05
RMM:  21    -0.413207663858E+03    0.35942E-06   -0.11272E-08   676   0.487E-04
   49 T=    69. E= -.41286697E+03 F= -.41320766E+03 E0= -.41318674E+03  EK= 0.34069E+00 SP= 0.00E+00 SK= 0.00E+00
[...]
RMM:   8    -0.413160010863E+03   -0.36691E-05   -0.64653E-05  5332   0.807E-03    0.837E-03
RMM:   9    -0.413160009573E+03    0.12896E-05   -0.11446E-05  3516   0.382E-03    0.370E-03
RMM:  10    -0.413160010922E+03   -0.13491E-05   -0.29017E-06  2648   0.223E-03    0.251E-03
RMM:  11    -0.413160012242E+03   -0.13193E-05   -0.12743E-06  2516   0.174E-03    0.136E-03
RMM:  12    -0.413160012894E+03   -0.65255E-06   -0.76453E-07  2460   0.134E-03
  135 T=    60. E= -.41286562E+03 F= -.41316001E+03 E0= -.41313925E+03  EK= 0.29439E+00 SP= 0.00E+00 SK= 0.00E+00
       N       E                     dE             d eps       ncg     rms          rms(c)
RMM:   1    -0.413153895785E+03    0.61165E-02   -0.10109E+01  4282   0.801E-01    0.862E-01
RMM:   2    -0.413162858541E+03   -0.89628E-02   -0.12262E-01  4288   0.977E-02    0.624E-01
RMM:   3    -0.413161640644E+03    0.12179E-02   -0.84628E-03  5028   0.473E-02    0.168E-01
RMM:   4    -0.413201421970E+03   -0.39781E-01   -0.44024E-02  5139   0.175E-01    0.830E-01
RMM:   5    -0.413160718104E+03    0.40704E-01   -0.19560E-02  4798   0.139E-01    0.545E-02
RMM:   6    -0.413160780204E+03   -0.62100E-04   -0.32945E-03  5710   0.539E-02    0.237E-02
RMM:   7    -0.413160816339E+03   -0.36135E-04   -0.41735E-04  6005   0.168E-02    0.156E-02
RMM:   8    -0.413160825075E+03   -0.87367E-05   -0.62733E-05  5280   0.784E-03    0.821E-03
RMM:   9    -0.413160827676E+03   -0.26004E-05   -0.11635E-05  3534   0.378E-03    0.379E-03
RMM:  10    -0.413160832672E+03   -0.49961E-05   -0.29538E-06  2649   0.223E-03    0.263E-03
RMM:  11    -0.413160837807E+03   -0.51346E-05   -0.12199E-06  2517   0.169E-03    0.135E-03
RMM:  12    -0.413160842278E+03   -0.44712E-05   -0.86385E-07  2472   0.136E-03    0.413E-04
RMM:  13    -0.413160843680E+03   -0.14023E-05   -0.38077E-07  1936   0.955E-04    0.293E-04
RMM:  14    -0.413160844778E+03   -0.10976E-05   -0.24568E-07  1480   0.799E-04    0.177E-04
RMM:  15    -0.413160846115E+03   -0.13369E-05   -0.27819E-07  1448   0.781E-04    0.106E-04
RMM:  16    -0.413160846410E+03   -0.29571E-06   -0.15894E-07  1352   0.703E-04
  136 T=    60. E= -.41286597E+03 F= -.41316085E+03 E0= -.41314010E+03  EK= 0.29488E+00 SP= 0.00E+00 SK= 0.00E+00
       N       E                     dE             d eps       ncg     rms          rms(c)
RMM:   1    -0.413154557052E+03    0.62891E-02   -0.10073E+01  4269   0.804E-01    0.874E-01
RMM:   2    -0.413163109260E+03   -0.85522E-02   -0.12168E-01  4288   0.969E-02    0.630E-01
RMM:   3    -0.413161621549E+03    0.14877E-02   -0.89318E-03  5003   0.464E-02    0.159E-01
RMM:   4    -0.413199869079E+03   -0.38248E-01   -0.41803E-02  5138   0.170E-01    0.814E-01
RMM:   5    -0.413160822550E+03    0.39047E-01   -0.18897E-02  4796   0.136E-01    0.545E-02
RMM:   6    -0.413160876990E+03   -0.54440E-04   -0.31762E-03  5701   0.530E-02    0.250E-02
RMM:   7    -0.413160909187E+03   -0.32197E-04   -0.40984E-04  5993   0.166E-02    0.157E-02
RMM:   8    -0.413160915334E+03   -0.61467E-05   -0.61201E-05  5265   0.784E-03    0.812E-03
RMM:   9    -0.413160916493E+03   -0.11594E-05   -0.11327E-05  3533   0.374E-03    0.387E-03
RMM:  10    -0.413160920498E+03   -0.40044E-05   -0.28272E-06  2636   0.222E-03    0.270E-03
RMM:  11    -0.413160924433E+03   -0.39352E-05   -0.11683E-06  2506   0.169E-03    0.137E-03
RMM:  12    -0.413160927969E+03   -0.35364E-05   -0.82268E-07  2463   0.136E-03    0.438E-04
RMM:  13    -0.413160929104E+03   -0.11345E-05   -0.37150E-07  1960   0.957E-04    0.304E-04
RMM:  14    -0.413160929880E+03   -0.77589E-06   -0.22748E-07  1477   0.784E-04
  137 T=    60. E= -.41286576E+03 F= -.41316093E+03 E0= -.41314019E+03  EK= 0.29517E+00 SP= 0.00E+00 SK= 0.00E+00
       N       E                     dE             d eps       ncg     rms          rms(c)
RMM:   1    -0.413155596861E+03    0.53322E-02   -0.99590E+00  4270   0.801E-01    0.888E-01
RMM:   2    -0.413163000940E+03   -0.74041E-02   -0.11883E-01  4286   0.954E-02    0.623E-01
RMM:   3    -0.413161677736E+03    0.13232E-02   -0.92673E-03  4974   0.443E-02    0.152E-01
RMM:   4    -0.413195307986E+03   -0.33630E-01   -0.35978E-02  5146   0.158E-01    0.764E-01
RMM:   5    -0.413161109132E+03    0.34199E-01   -0.16754E-02  4806   0.128E-01    0.538E-02
RMM:   6    -0.413161146396E+03   -0.37265E-04   -0.28288E-03  5699   0.502E-02    0.275E-02
RMM:   7    -0.413161168498E+03   -0.22102E-04   -0.38001E-04  5970   0.162E-02    0.157E-02
RMM:   8    -0.413161168455E+03    0.42637E-07   -0.57679E-05  5234   0.771E-03    0.802E-03
RMM:   9    -0.413161166264E+03    0.21912E-05   -0.10081E-05  3460   0.360E-03    0.402E-03
RMM:  10    -0.413161166479E+03   -0.21524E-06   -0.25482E-06  2610   0.220E-03
  138 T=    60. E= -.41286575E+03 F= -.41316117E+03 E0= -.41314044E+03  EK= 0.29542E+00 SP= 0.00E+00 SK= 0.00E+00
       N       E                     dE             d eps       ncg     rms          rms(c)
RMM:   1    -0.413156247562E+03    0.49187E-02   -0.97781E+00  4287   0.806E-01    0.863E-01
RMM:   2    -0.413163855783E+03   -0.76082E-02   -0.11842E-01  4298   0.958E-02    0.624E-01
RMM:   3    -0.413163028092E+03    0.82769E-03   -0.10069E-02  5078   0.525E-02    0.187E-01
RMM:   4    -0.413202022294E+03   -0.38994E-01   -0.46072E-02  5135   0.179E-01    0.827E-01
RMM:   5    -0.413161632314E+03    0.40390E-01   -0.18955E-02  4790   0.139E-01    0.602E-02
RMM:   6    -0.413161653239E+03   -0.20924E-04   -0.32778E-03  5672   0.539E-02    0.264E-02
RMM:   7    -0.413161689322E+03   -0.36083E-04   -0.44892E-04  6085   0.176E-02    0.169E-02
RMM:   8    -0.413161695192E+03   -0.58704E-05   -0.75792E-05  5343   0.890E-03    0.902E-03
RMM:   9    -0.413161694856E+03    0.33635E-06   -0.12286E-05  3663   0.406E-03    0.391E-03
RMM:  10    -0.413161697703E+03   -0.28472E-05   -0.30896E-06  2680   0.229E-03    0.267E-03
RMM:  11    -0.413161701357E+03   -0.36541E-05   -0.15664E-06  2533   0.190E-03    0.149E-03
RMM:  12    -0.413161703662E+03   -0.23051E-05   -0.89592E-07  2503   0.145E-03    0.506E-04
RMM:  13    -0.413161704444E+03   -0.78115E-06   -0.40269E-07  2015   0.995E-04
  139 T=    60. E= -.41286590E+03 F= -.41316170E+03 E0= -.41314099E+03  EK= 0.29581E+00 SP= 0.00E+00 SK= 0.00E+00
       N       E                     dE             d eps       ncg     rms          rms(c)
RMM:   1    -0.413159351751E+03    0.23519E-02   -0.97614E+00  4264   0.820E-01    0.869E-01
RMM:   2    -0.413164022121E+03   -0.46704E-02   -0.12076E-01  4288   0.970E-02    0.634E-01
RMM:   3    -0.413161640602E+03    0.23815E-02   -0.99267E-03  4822   0.410E-02    0.110E-01
RMM:   4    -0.413178060403E+03   -0.16420E-01   -0.17123E-02  5151   0.109E-01    0.537E-01
RMM:   5    -0.413161468289E+03    0.16592E-01   -0.83350E-03  4824   0.895E-02    0.434E-02
RMM:   6    -0.413161474780E+03   -0.64905E-05   -0.14454E-03  5696   0.365E-02    0.268E-02
RMM:   7    -0.413161489591E+03   -0.14811E-04   -0.23841E-04  5732   0.132E-02    0.126E-02
RMM:   8    -0.413161494236E+03   -0.46453E-05   -0.37282E-05  4904   0.645E-03    0.679E-03
RMM:   9    -0.413161495468E+03   -0.12318E-05   -0.48460E-06  2972   0.276E-03    0.371E-03
RMM:  10    -0.413161500074E+03   -0.46060E-05   -0.17956E-06  2549   0.200E-03    0.229E-03
RMM:  11    -0.413161503926E+03   -0.38517E-05   -0.98166E-07  2495   0.152E-03    0.102E-03
RMM:  12    -0.413161506922E+03   -0.29962E-05   -0.66206E-07  2292   0.120E-03    0.489E-04
RMM:  13    -0.413161508549E+03   -0.16268E-05   -0.39529E-07  1907   0.922E-04    0.274E-04
RMM:  14    -0.413161509144E+03   -0.59484E-06   -0.21602E-07  1369   0.748E-04
  140 T=    60. E= -.41286552E+03 F= -.41316151E+03 E0= -.41314081E+03  EK= 0.29598E+00 SP= 0.00E+00 SK= 0.00E+00
       N       E                     dE             d eps       ncg     rms          rms(c)
RMM:   1    -0.413157887638E+03    0.36209E-02   -0.96058E+00  4266   0.797E-01    0.888E-01
RMM:   2    -0.413164340154E+03   -0.64525E-02   -0.11509E-01  4286   0.952E-02    0.627E-01
RMM:   3    -0.413162207308E+03    0.21328E-02   -0.10453E-02  4781   0.401E-02    0.112E-01
RMM:   4    -0.413174143038E+03   -0.11936E-01   -0.12560E-02  5168   0.941E-02    0.460E-01
RMM:   5    -0.413162106474E+03    0.12037E-01   -0.61082E-03  4831   0.769E-02    0.440E-02
RMM:   6    -0.413162099517E+03    0.69568E-05   -0.11309E-03  5649   0.330E-02    0.290E-02
RMM:   7    -0.413162095215E+03    0.43022E-05   -0.22565E-04  5671   0.129E-02    0.128E-02
RMM:   8    -0.413162092869E+03    0.23454E-05   -0.35285E-05  4930   0.647E-03    0.701E-03
RMM:   9    -0.413162091576E+03    0.12936E-05   -0.38352E-06  2839   0.253E-03    0.375E-03
RMM:  10    -0.413162091085E+03    0.49056E-06   -0.17002E-06  2533   0.199E-03
  141 T=    60. E= -.41286578E+03 F= -.41316209E+03 E0= -.41314140E+03  EK= 0.29631E+00 SP= 0.00E+00 SK= 0.00E+00
       N       E                     dE             d eps       ncg     rms          rms(c)
RMM:   1    -0.413158236797E+03    0.38548E-02   -0.93995E+00  4273   0.798E-01    0.867E-01
RMM:   2    -0.413164924408E+03   -0.66876E-02   -0.11360E-01  4291   0.952E-02    0.624E-01
RMM:   3    -0.413162686982E+03    0.22374E-02   -0.10906E-02  4930   0.440E-02    0.119E-01
RMM:   4    -0.413188257969E+03   -0.25571E-01   -0.27031E-02  5145   0.137E-01    0.668E-01
RMM:   5    -0.413162325621E+03    0.25932E-01   -0.12812E-02  4814   0.111E-01    0.514E-02
RMM:   6    -0.413162340061E+03   -0.14439E-04   -0.22120E-03  5706   0.447E-02    0.294E-02
RMM:   7    -0.413162353134E+03   -0.13073E-04   -0.34008E-04  5898   0.155E-02    0.153E-02
RMM:   8    -0.413162353755E+03   -0.62111E-06   -0.52882E-05  5171   0.762E-03    0.796E-03
RMM:   9    -0.413162352493E+03    0.12617E-05   -0.77504E-06  3274   0.330E-03    0.413E-03
RMM:  10    -0.413162353874E+03   -0.13810E-05   -0.24001E-06  2593   0.221E-03    0.265E-03
RMM:  11    -0.413162354738E+03   -0.86351E-06   -0.11396E-06  2508   0.168E-03
  142 T=    60. E= -.41286570E+03 F= -.41316235E+03 E0= -.41314167E+03  EK= 0.29666E+00 SP= 0.00E+00 SK= 0.00E+00
       N       E                     dE             d eps       ncg     rms          rms(c)
RMM:   1    -0.413158776499E+03    0.35774E-02   -0.93474E+00  4265   0.795E-01    0.866E-01
RMM:   2    -0.413165544221E+03   -0.67677E-02   -0.11414E-01  4288   0.949E-02    0.635E-01
RMM:   3    -0.413162493048E+03    0.30512E-02   -0.11955E-02  4544   0.397E-02    0.708E-02
RMM:   4    -0.413162543335E+03   -0.50287E-04   -0.61320E-04  5089   0.196E-02    0.410E-02
RMM:   5    -0.413162593288E+03   -0.49953E-04   -0.19767E-04  5000   0.147E-02    0.488E-02
RMM:   6    -0.413162530106E+03    0.63182E-04   -0.15263E-04  5309   0.123E-02    0.313E-02
RMM:   7    -0.413162510550E+03    0.19556E-04   -0.16968E-04  4868   0.106E-02    0.150E-02
RMM:   8    -0.413162507290E+03    0.32606E-05   -0.12275E-05  3863   0.445E-03    0.697E-03
RMM:   9    -0.413162509150E+03   -0.18605E-05   -0.49184E-06  2529   0.226E-03    0.221E-03
RMM:  10    -0.413162515978E+03   -0.68277E-05   -0.16537E-06  2509   0.176E-03    0.661E-04
RMM:  11    -0.413162518923E+03   -0.29451E-05   -0.72568E-07  2391   0.125E-03    0.383E-04
RMM:  12    -0.413162519953E+03   -0.10303E-05   -0.31748E-07  1867   0.886E-04    0.328E-04
RMM:  13    -0.413162521296E+03   -0.13428E-05   -0.45070E-07  1627   0.843E-04    0.314E-04
RMM:  14    -0.413162521440E+03   -0.14368E-06   -0.22101E-07  1430   0.700E-04
  143 T=    60. E= -.41286546E+03 F= -.41316252E+03 E0= -.41314185E+03  EK= 0.29706E+00 SP= 0.00E+00 SK= 0.00E+00
       N       E                     dE             d eps       ncg     rms          rms(c)
RMM:   1    -0.413160587494E+03    0.19338E-02   -0.92201E+00  4264   0.796E-01    0.886E-01
RMM:   2    -0.413166028678E+03   -0.54412E-02   -0.11135E-01  4288   0.949E-02    0.632E-01
RMM:   3    -0.413163339807E+03    0.26889E-02   -0.12292E-02  4584   0.398E-02    0.834E-02
RMM:   4    -0.413163871621E+03   -0.53181E-03   -0.11775E-03  5210   0.289E-02    0.103E-01
RMM:   5    -0.413163379739E+03    0.49188E-03   -0.38416E-04  4901   0.202E-02    0.439E-02
RMM:   6    -0.413163349513E+03    0.30226E-04   -0.28465E-04  5238   0.175E-02    0.296E-02
RMM:   7    -0.413163331643E+03    0.17870E-04   -0.17364E-04  4847   0.101E-02    0.164E-02
RMM:   8    -0.413163326750E+03    0.48931E-05   -0.12731E-05  3848   0.442E-03    0.751E-03
RMM:   9    -0.413163327107E+03   -0.35698E-06   -0.60004E-06  2581   0.238E-03
  144 T=    61. E= -.41286577E+03 F= -.41316333E+03 E0= -.41314267E+03  EK= 0.29756E+00 SP= 0.00E+00 SK= 0.00E+00
       N       E                     dE             d eps       ncg     rms          rms(c)
RMM:   1    -0.413160919492E+03    0.24073E-02   -0.90200E+00  4264   0.789E-01    0.873E-01
RMM:   2    -0.413166397281E+03   -0.54778E-02   -0.10932E-01  4291   0.948E-02    0.627E-01
RMM:   3    -0.413163386228E+03    0.30111E-02   -0.12785E-02  4593   0.408E-02    0.785E-02
RMM:   4    -0.413165924000E+03   -0.25378E-02   -0.30061E-03  5184   0.467E-02    0.216E-01
RMM:   5    -0.413163382173E+03    0.25418E-02   -0.13811E-03  4849   0.370E-02    0.410E-02
RMM:   6    -0.413163374220E+03    0.79530E-05   -0.44157E-04  5500   0.214E-02    0.301E-02
RMM:   7    -0.413163354223E+03    0.19997E-04   -0.19821E-04  5190   0.117E-02    0.163E-02
RMM:   8    -0.413163350183E+03    0.40404E-05   -0.21452E-05  4554   0.524E-03    0.717E-03
RMM:   9    -0.413163350286E+03   -0.10263E-06   -0.50033E-06  2646   0.234E-03
  145 T=    61. E= -.41286548E+03 F= -.41316335E+03 E0= -.41314270E+03  EK= 0.29787E+00 SP= 0.00E+00 SK= 0.00E+00
       N       E                     dE             d eps       ncg     rms          rms(c)
RMM:   1    -0.413161850947E+03    0.14992E-02   -0.89448E+00  4265   0.785E-01    0.865E-01
RMM:   2    -0.413167783559E+03   -0.59326E-02   -0.10939E-01  4293   0.953E-02    0.637E-01
RMM:   3    -0.413164246855E+03    0.35367E-02   -0.14636E-02  4817   0.465E-02    0.817E-02
RMM:   4    -0.413179715349E+03   -0.15468E-01   -0.16131E-02  5142   0.107E-01    0.523E-01
RMM:   5    -0.413164034957E+03    0.15680E-01   -0.78345E-03  4840   0.864E-02    0.487E-02
RMM:   6    -0.413164035211E+03   -0.25448E-06   -0.14387E-03  5661   0.360E-02    0.302E-02
RMM:   7    -0.413164041915E+03   -0.67037E-05   -0.27979E-04  5769   0.140E-02    0.150E-02
RMM:   8    -0.413164042732E+03   -0.81738E-06   -0.39888E-05  5133   0.687E-03    0.737E-03
RMM:   9    -0.413164042900E+03   -0.16716E-06   -0.54307E-06  3012   0.290E-03
  146 T=    61. E= -.41286554E+03 F= -.41316404E+03 E0= -.41314340E+03  EK= 0.29850E+00 SP= 0.00E+00 SK= 0.00E+00
       N       E                     dE             d eps       ncg     rms          rms(c)
RMM:   1    -0.413163409748E+03    0.63298E-03   -0.88275E+00  4268   0.783E-01    0.883E-01
RMM:   2    -0.413168143532E+03   -0.47338E-02   -0.10733E-01  4297   0.934E-02    0.637E-01
RMM:   3    -0.413165561321E+03    0.25822E-02   -0.15511E-02  5009   0.528E-02    0.133E-01
RMM:   4    -0.413198751036E+03   -0.33190E-01   -0.36955E-02  5128   0.160E-01    0.760E-01
RMM:   5    -0.413164719813E+03    0.34031E-01   -0.16528E-02  4820   0.126E-01    0.629E-02
RMM:   6    -0.413164744532E+03   -0.24719E-04   -0.27962E-03  5652   0.513E-02    0.317E-02
RMM:   7    -0.413164764399E+03   -0.19867E-04   -0.44874E-04  6063   0.177E-02    0.182E-02
RMM:   8    -0.413164761642E+03    0.27567E-05   -0.76268E-05  5379   0.936E-03    0.934E-03
RMM:   9    -0.413164758084E+03    0.35584E-05   -0.11214E-05  3623   0.400E-03    0.418E-03
RMM:  10    -0.413164757767E+03    0.31611E-06   -0.32679E-06  2714   0.247E-03
  147 T=    61. E= -.41286579E+03 F= -.41316476E+03 E0= -.41314412E+03  EK= 0.29897E+00 SP= 0.00E+00 SK= 0.00E+00
       N       E                     dE             d eps       ncg     rms          rms(c)
RMM:   1    -0.413163905015E+03    0.85307E-03   -0.86440E+00  4281   0.782E-01    0.880E-01
RMM:   2    -0.413168086881E+03   -0.41819E-02   -0.10540E-01  4295   0.914E-02    0.631E-01
RMM:   3    -0.413165231109E+03    0.28558E-02   -0.15718E-02  4987   0.486E-02    0.115E-01
RMM:   4    -0.413193175883E+03   -0.27945E-01   -0.30260E-02  5128   0.145E-01    0.698E-01
RMM:   5    -0.413164657646E+03    0.28518E-01   -0.13970E-02  4821   0.116E-01    0.589E-02
RMM:   6    -0.413164683715E+03   -0.26069E-04   -0.24388E-03  5676   0.475E-02    0.326E-02
RMM:   7    -0.413164691619E+03   -0.79041E-05   -0.40312E-04  6013   0.171E-02    0.180E-02
RMM:   8    -0.413164686762E+03    0.48571E-05   -0.66436E-05  5333   0.879E-03    0.899E-03
RMM:   9    -0.413164682508E+03    0.42537E-05   -0.95935E-06  3446   0.369E-03    0.431E-03
RMM:  10    -0.413164680116E+03    0.23922E-05   -0.29185E-06  2677   0.240E-03    0.275E-03
RMM:  11    -0.413164677344E+03    0.27718E-05   -0.12080E-06  2512   0.177E-03    0.144E-03
RMM:  12    -0.413164673730E+03    0.36138E-05   -0.76125E-07  2465   0.139E-03    0.636E-04
RMM:  13    -0.413164671599E+03    0.21311E-05   -0.39612E-07  2106   0.102E-03    0.354E-04
RMM:  14    -0.413164669417E+03    0.21823E-05   -0.25749E-07  1732   0.844E-04    0.245E-04
RMM:  15    -0.413164666863E+03    0.25541E-05   -0.18303E-07  1471   0.750E-04    0.150E-04
RMM:  16    -0.413164663157E+03    0.37055E-05   -0.19443E-07  1585   0.746E-04    0.105E-04
RMM:  17    -0.413164661743E+03    0.14145E-05   -0.88596E-08  1180   0.609E-04    0.823E-05
RMM:  18    -0.413164659645E+03    0.20980E-05   -0.71668E-08  1150   0.598E-04    0.323E-05
RMM:  19    -0.413164658679E+03    0.96575E-06   -0.41294E-08   976   0.548E-04
  148 T=    61. E= -.41286551E+03 F= -.41316466E+03 E0= -.41314403E+03  EK= 0.29915E+00 SP= 0.00E+00 SK= 0.00E+00
       N       E                     dE             d eps       ncg     rms          rms(c)
RMM:   1    -0.413164924253E+03   -0.26461E-03   -0.85255E+00  4264   0.776E-01    0.865E-01
RMM:   2    -0.413169458486E+03   -0.45342E-02   -0.10480E-01  4291   0.905E-02    0.637E-01
RMM:   3    -0.413166032193E+03    0.34263E-02   -0.17539E-02  4935   0.487E-02    0.993E-02
RMM:   4    -0.413188658295E+03   -0.22626E-01   -0.24315E-02  5129   0.130E-01    0.631E-01
RMM:   5    -0.413165571755E+03    0.23087E-01   -0.11331E-02  4827   0.104E-01    0.542E-02
RMM:   6    -0.413165587870E+03   -0.16115E-04   -0.20051E-03  5664   0.426E-02    0.314E-02
RMM:   7    -0.413165597115E+03   -0.92454E-05   -0.34028E-04  5869   0.155E-02    0.163E-02
RMM:   8    -0.413165596790E+03    0.32567E-06   -0.47817E-05  5253   0.748E-03    0.767E-03
RMM:   9    -0.413165596283E+03    0.50668E-06   -0.74791E-06  3240   0.324E-03
  149 T=    61. E= -.41286578E+03 F= -.41316560E+03 E0= -.41314497E+03  EK= 0.29981E+00 SP= 0.00E+00 SK= 0.00E+00
       N       E                     dE             d eps       ncg     rms          rms(c)
RMM:   1    -0.413166064560E+03   -0.46777E-03   -0.84277E+00  4266   0.775E-01    0.880E-01
RMM:   2    -0.413169839576E+03   -0.37750E-02   -0.10316E-01  4302   0.894E-02    0.642E-01
RMM:   3    -0.413168301021E+03    0.15386E-02   -0.20107E-02  5114   0.650E-02    0.212E-01
RMM:   4    -0.413200040254E+03   -0.31739E-01   -0.42923E-02  5103   0.174E-01    0.761E-01
RMM:   5    -0.413165907865E+03    0.34132E-01   -0.15540E-02  4797   0.126E-01    0.697E-02
RMM:   6    -0.413165848085E+03    0.59780E-04   -0.26604E-03  5493   0.509E-02    0.314E-02
RMM:   7    -0.413165877980E+03   -0.29895E-04   -0.49632E-04  6069   0.195E-02    0.202E-02
RMM:   8    -0.413165873701E+03    0.42791E-05   -0.89619E-05  5437   0.103E-02    0.962E-03
RMM:   9    -0.413165870624E+03    0.30773E-05   -0.13786E-05  4086   0.452E-03    0.419E-03
RMM:  10    -0.413165870893E+03   -0.26956E-06   -0.24222E-06  2623   0.225E-03
  150 T=    61. E= -.41286567E+03 F= -.41316587E+03 E0= -.41314525E+03  EK= 0.30021E+00 SP= 0.00E+00 SK= 0.00E+00
