       N       E                     dE             d eps       ncg     rms          rms(c)
RMM:   1     0.220117767956E+04    0.22012E+04   -0.52445E+04  2132   0.654E+02
RMM:   2     0.705631802524E+03   -0.14955E+04   -0.16264E+04  2132   0.177E+02
RMM:   3     0.137505234422E+03   -0.56813E+03   -0.65743E+03  2132   0.117E+02
RMM:   4    -0.159174122584E+03   -0.29668E+03   -0.27878E+03  2132   0.936E+01
RMM:   5    -0.287540679806E+03   -0.12837E+03   -0.11457E+03  2132   0.595E+01
RMM:   6    -0.349790793310E+03   -0.62250E+02   -0.55102E+02  2132   0.423E+01
RMM:   7    -0.382634396093E+03   -0.32844E+02   -0.30389E+02  2132   0.293E+01
RMM:   8    -0.404139456813E+03   -0.21505E+02   -0.18428E+02  2132   0.233E+01
RMM:   9    -0.435960056817E+03   -0.31821E+02   -0.30766E+02  6104   0.173E+01
RMM:  10    -0.441256899895E+03   -0.52968E+01   -0.62986E+01  6387   0.540E+00
RMM:  11    -0.442515830851E+03   -0.12589E+01   -0.11246E+01  6220   0.174E+00
RMM:  12    -0.442898672237E+03   -0.38284E+00   -0.28348E+00  6363   0.606E-01    0.134E+02
RMM:  13    -0.425615742402E+03    0.17283E+02   -0.80893E+01  4671   0.119E+01    0.712E+01
RMM:  14    -0.499325875999E+03   -0.73710E+02   -0.53957E+02  5415   0.232E+01    0.306E+01
RMM:  15    -0.416344235259E+03    0.82982E+02   -0.19952E+02  5099   0.163E+01    0.738E+00
RMM:  16    -0.414000520057E+03    0.23437E+01   -0.39962E+01  6085   0.612E+00    0.425E+00
RMM:  17    -0.413209228496E+03    0.79129E+00   -0.25780E+00  5398   0.189E+00    0.242E+00
RMM:  18    -0.413172525814E+03    0.36703E-01   -0.77086E-01  5969   0.901E-01    0.166E+00
RMM:  19    -0.413171049742E+03    0.14761E-02   -0.25707E-01  5689   0.549E-01    0.888E-01
RMM:  20    -0.413191387175E+03   -0.20337E-01   -0.29326E-01  5586   0.559E-01    0.652E-01
RMM:  21    -0.413168821644E+03    0.22566E-01   -0.35568E-02  5002   0.243E-01    0.308E-01
RMM:  22    -0.413165092390E+03    0.37293E-02   -0.25782E-02  5857   0.154E-01    0.135E-01
RMM:  23    -0.413164362479E+03    0.72991E-03   -0.54815E-03  6032   0.644E-02    0.828E-02
RMM:  24    -0.413163241316E+03    0.11212E-02   -0.17318E-03  5316   0.415E-02    0.522E-02
RMM:  25    -0.413162728400E+03    0.51292E-03   -0.86840E-04  4981   0.280E-02    0.421E-02
RMM:  26    -0.413162865139E+03   -0.13674E-03   -0.11545E-03  5764   0.343E-02    0.345E-02
RMM:  27    -0.413163287147E+03   -0.42201E-03   -0.20785E-04  4558   0.198E-02    0.198E-02
RMM:  28    -0.413163735741E+03   -0.44859E-03   -0.16904E-04  5053   0.177E-02    0.891E-03
RMM:  29    -0.413164126025E+03   -0.39028E-03   -0.11454E-04  4613   0.150E-02    0.451E-03
RMM:  30    -0.413164372917E+03   -0.24689E-03   -0.81908E-05  4384   0.108E-02    0.429E-03
RMM:  31    -0.413164526237E+03   -0.15332E-03   -0.62975E-05  3302   0.772E-03    0.337E-03
RMM:  32    -0.413164554861E+03   -0.28625E-04   -0.24141E-05  3001   0.315E-03    0.225E-03
RMM:  33    -0.413164568786E+03   -0.13925E-04   -0.96655E-06  2809   0.233E-03    0.714E-04
RMM:  34    -0.413164571246E+03   -0.24603E-05   -0.51280E-06  2610   0.152E-03    0.495E-04
RMM:  35    -0.413164572505E+03   -0.12584E-05   -0.24899E-06  2483   0.139E-03    0.822E-04
RMM:  36    -0.413164571644E+03    0.86053E-06   -0.14576E-06  1932   0.971E-04
    1 T=    61. E= -.41286678E+03 F= -.41316457E+03 E0= -.41314207E+03  EK= 0.29779E+00 SP= 0.00E+00 SK= 0.00E+00
       N       E                     dE             d eps       ncg     rms          rms(c)
RMM:   1    -0.413157330173E+03    0.72423E-02   -0.10549E+01  3988   0.683E-01    0.885E-01
RMM:   2    -0.413166572259E+03   -0.92421E-02   -0.12968E-01  3839   0.963E-02    0.644E-01
RMM:   3    -0.413164379333E+03    0.21929E-02   -0.83670E-03  4647   0.375E-02    0.126E-01
RMM:   4    -0.413178102388E+03   -0.13723E-01   -0.14388E-02  5214   0.997E-02    0.492E-01
RMM:   5    -0.413164185380E+03    0.13917E-01   -0.69267E-03  4856   0.821E-02    0.341E-02
RMM:   6    -0.413164274427E+03   -0.89047E-04   -0.11718E-03  5814   0.330E-02    0.230E-02
RMM:   7    -0.413164281591E+03   -0.71646E-05   -0.21033E-04  5674   0.133E-02    0.137E-02
RMM:   8    -0.413164284525E+03   -0.29339E-05   -0.27714E-05  4467   0.567E-03    0.589E-03
RMM:   9    -0.413164288627E+03   -0.41017E-05   -0.57889E-06  3036   0.273E-03    0.469E-03
RMM:  10    -0.413164293650E+03   -0.50234E-05   -0.12802E-06  2529   0.173E-03    0.298E-03
RMM:  11    -0.413164300347E+03   -0.66965E-05   -0.11917E-06  2517   0.157E-03    0.133E-03
RMM:  12    -0.413164306303E+03   -0.59558E-05   -0.91598E-07  2394   0.132E-03    0.565E-04
RMM:  13    -0.413164306978E+03   -0.67517E-06   -0.36961E-07  1887   0.878E-04
    2 T=    61. E= -.41286653E+03 F= -.41316431E+03 E0= -.41314181E+03  EK= 0.29777E+00 SP= 0.00E+00 SK= 0.00E+00
       N       E                     dE             d eps       ncg     rms          rms(c)
RMM:   1    -0.413158168173E+03    0.61381E-02   -0.10575E+01  4192   0.681E-01    0.909E-01
RMM:   2    -0.413166547119E+03   -0.83789E-02   -0.12730E-01  3852   0.935E-02    0.637E-01
RMM:   3    -0.413165007014E+03    0.15401E-02   -0.85883E-03  4843   0.374E-02    0.145E-01
RMM:   4    -0.413189147703E+03   -0.24141E-01   -0.24672E-02  5186   0.131E-01    0.649E-01
RMM:   5    -0.413164670732E+03    0.24477E-01   -0.11928E-02  4835   0.108E-01    0.406E-02
RMM:   6    -0.413164831217E+03   -0.16049E-03   -0.20090E-03  5806   0.434E-02    0.259E-02
RMM:   7    -0.413164834910E+03   -0.36930E-05   -0.29689E-04  5801   0.155E-02    0.165E-02
RMM:   8    -0.413164832033E+03    0.28769E-05   -0.47318E-05  4948   0.708E-03    0.774E-03
RMM:   9    -0.413164831065E+03    0.96770E-06   -0.95394E-06  3545   0.351E-03
    3 T=    61. E= -.41286676E+03 F= -.41316483E+03 E0= -.41314234E+03  EK= 0.29807E+00 SP= 0.00E+00 SK= 0.00E+00
       N       E                     dE             d eps       ncg     rms          rms(c)
RMM:   1    -0.413157630638E+03    0.72014E-02   -0.10491E+01  4224   0.682E-01    0.892E-01
RMM:   2    -0.413166442993E+03   -0.88124E-02   -0.12642E-01  4326   0.969E-02    0.632E-01
RMM:   3    -0.413172612733E+03   -0.61697E-02   -0.14798E-02  5196   0.887E-02    0.401E-01
RMM:   4    -0.413182132124E+03   -0.95194E-02   -0.34272E-02  5101   0.160E-01    0.553E-01
RMM:   5    -0.413164656159E+03    0.17476E-01   -0.61987E-03  4654   0.926E-02    0.554E-02
RMM:   6    -0.413164592209E+03    0.63950E-04   -0.11999E-03  5331   0.351E-02    0.249E-02
RMM:   7    -0.413164606997E+03   -0.14788E-04   -0.24779E-04  5982   0.155E-02    0.157E-02
RMM:   8    -0.413164605863E+03    0.11348E-05   -0.47767E-05  5228   0.777E-03    0.664E-03
RMM:   9    -0.413164605335E+03    0.52776E-06   -0.10016E-05  3784   0.395E-03    0.361E-03
RMM:  10    -0.413164606442E+03   -0.11075E-05   -0.12359E-06  2530   0.193E-03    0.221E-03
RMM:  11    -0.413164608659E+03   -0.22164E-05   -0.12173E-06  2528   0.173E-03    0.136E-03
RMM:  12    -0.413164609767E+03   -0.11080E-05   -0.56192E-07  2375   0.121E-03    0.462E-04
RMM:  13    -0.413164610577E+03   -0.81038E-06   -0.30245E-07  1652   0.820E-04
    4 T=    61. E= -.41286654E+03 F= -.41316461E+03 E0= -.41314212E+03  EK= 0.29807E+00 SP= 0.00E+00 SK= 0.00E+00
       N       E                     dE             d eps       ncg     rms          rms(c)
RMM:   1    -0.413157527218E+03    0.70825E-02   -0.10536E+01  4235   0.689E-01    0.883E-01
RMM:   2    -0.413167019488E+03   -0.94923E-02   -0.12962E-01  4032   0.949E-02    0.643E-01
RMM:   3    -0.413165055816E+03    0.19637E-02   -0.84779E-03  4884   0.408E-02    0.142E-01
RMM:   4    -0.413195153599E+03   -0.30098E-01   -0.30950E-02  5164   0.147E-01    0.723E-01
RMM:   5    -0.413164551067E+03    0.30603E-01   -0.14801E-02  4818   0.121E-01    0.423E-02
RMM:   6    -0.413164743005E+03   -0.19194E-03   -0.24435E-03  5766   0.479E-02    0.254E-02
RMM:   7    -0.413164756290E+03   -0.13285E-04   -0.33791E-04  5844   0.159E-02    0.167E-02
RMM:   8    -0.413164759827E+03   -0.35372E-05   -0.52007E-05  5012   0.724E-03    0.799E-03
RMM:   9    -0.413164762488E+03   -0.26606E-05   -0.11152E-05  3672   0.371E-03    0.571E-03
RMM:  10    -0.413164766978E+03   -0.44902E-05   -0.17616E-06  2576   0.197E-03    0.376E-03
RMM:  11    -0.413164773154E+03   -0.61758E-05   -0.15691E-06  2565   0.189E-03    0.168E-03
RMM:  12    -0.413164778451E+03   -0.52973E-05   -0.11913E-06  2504   0.160E-03    0.692E-04
RMM:  13    -0.413164778829E+03   -0.37753E-06   -0.34593E-07  2089   0.998E-04
    5 T=    61. E= -.41286658E+03 F= -.41316478E+03 E0= -.41314230E+03  EK= 0.29820E+00 SP= 0.00E+00 SK= 0.00E+00
       N       E                     dE             d eps       ncg     rms          rms(c)
RMM:   1    -0.413158490469E+03    0.62880E-02   -0.10574E+01  4250   0.693E-01    0.904E-01
RMM:   2    -0.413167077365E+03   -0.85869E-02   -0.12749E-01  4088   0.963E-02    0.639E-01
RMM:   3    -0.413165484405E+03    0.15930E-02   -0.85224E-03  4760   0.394E-02    0.142E-01
RMM:   4    -0.413188225357E+03   -0.22741E-01   -0.23083E-02  5161   0.127E-01    0.631E-01
RMM:   5    -0.413165111236E+03    0.23114E-01   -0.11269E-02  4826   0.105E-01    0.394E-02
RMM:   6    -0.413165260960E+03   -0.14972E-03   -0.19081E-03  5808   0.417E-02    0.250E-02
RMM:   7    -0.413165264674E+03   -0.37143E-05   -0.27455E-04  5785   0.150E-02    0.160E-02
RMM:   8    -0.413165261353E+03    0.33218E-05   -0.47528E-05  4918   0.711E-03    0.778E-03
RMM:   9    -0.413165260058E+03    0.12943E-05   -0.95130E-06  3559   0.356E-03    0.594E-03
RMM:  10    -0.413165260723E+03   -0.66518E-06   -0.13792E-06  2542   0.192E-03
    6 T=    61. E= -.41286678E+03 F= -.41316526E+03 E0= -.41314280E+03  EK= 0.29848E+00 SP= 0.00E+00 SK= 0.00E+00
       N       E                     dE             d eps       ncg     rms          rms(c)
RMM:   1    -0.413158274693E+03    0.69854E-02   -0.10516E+01  4260   0.696E-01    0.900E-01
RMM:   2    -0.413166662336E+03   -0.83876E-02   -0.12660E-01  4167   0.937E-02    0.632E-01
RMM:   3    -0.413167181710E+03   -0.51937E-03   -0.10043E-02  5099   0.579E-02    0.238E-01
RMM:   4    -0.413202285333E+03   -0.35104E-01   -0.45139E-02  5132   0.178E-01    0.798E-01
RMM:   5    -0.413164880350E+03    0.37405E-01   -0.16639E-02  4768   0.133E-01    0.552E-02
RMM:   6    -0.413165015248E+03   -0.13490E-03   -0.27750E-03  5633   0.522E-02    0.257E-02
RMM:   7    -0.413165034080E+03   -0.18832E-04   -0.39160E-04  6027   0.165E-02    0.168E-02
RMM:   8    -0.413165032777E+03    0.13030E-05   -0.62493E-05  5257   0.806E-03    0.779E-03
RMM:   9    -0.413165029410E+03    0.33670E-05   -0.10955E-05  3526   0.368E-03    0.379E-03
RMM:  10    -0.413165029490E+03   -0.80410E-07   -0.25191E-06  2617   0.219E-03
    7 T=    61. E= -.41286656E+03 F= -.41316503E+03 E0= -.41314258E+03  EK= 0.29847E+00 SP= 0.00E+00 SK= 0.00E+00
       N       E                     dE             d eps       ncg     rms          rms(c)
RMM:   1    -0.413162032387E+03    0.29970E-02   -0.10548E+01  4265   0.726E-01    0.881E-01
RMM:   2    -0.413167737476E+03   -0.57051E-02   -0.13416E-01  4144   0.971E-02    0.641E-01
RMM:   3    -0.413166905396E+03    0.83208E-03   -0.90635E-03  5072   0.516E-02    0.202E-01
RMM:   4    -0.413211195898E+03   -0.44291E-01   -0.50628E-02  5143   0.188E-01    0.879E-01
RMM:   5    -0.413165347049E+03    0.45849E-01   -0.21319E-02  4796   0.147E-01    0.529E-02
RMM:   6    -0.413165555031E+03   -0.20798E-03   -0.33964E-03  5721   0.578E-02    0.258E-02
RMM:   7    -0.413165579649E+03   -0.24618E-04   -0.45960E-04  6003   0.179E-02    0.182E-02
RMM:   8    -0.413165583613E+03   -0.39639E-05   -0.71925E-05  5253   0.832E-03    0.906E-03
RMM:   9    -0.413165584044E+03   -0.43074E-06   -0.14155E-05  3849   0.407E-03    0.488E-03
RMM:  10    -0.413165587701E+03   -0.36574E-05   -0.28654E-06  2636   0.222E-03    0.330E-03
RMM:  11    -0.413165591279E+03   -0.35779E-05   -0.12236E-06  2517   0.169E-03    0.166E-03
RMM:  12    -0.413165594789E+03   -0.35100E-05   -0.10610E-06  2516   0.150E-03    0.424E-04
RMM:  13    -0.413165596112E+03   -0.13227E-05   -0.47427E-07  2133   0.107E-03    0.358E-04
RMM:  14    -0.413165596275E+03   -0.16297E-06   -0.21610E-07  1594   0.793E-04
    8 T=    61. E= -.41286683E+03 F= -.41316560E+03 E0= -.41314317E+03  EK= 0.29877E+00 SP= 0.00E+00 SK= 0.00E+00
       N       E                     dE             d eps       ncg     rms          rms(c)
RMM:   1    -0.413158888072E+03    0.67080E-02   -0.10568E+01  4279   0.708E-01    0.899E-01
RMM:   2    -0.413167822895E+03   -0.89348E-02   -0.12823E-01  4178   0.971E-02    0.642E-01
RMM:   3    -0.413166080483E+03    0.17424E-02   -0.86390E-03  4840   0.417E-02    0.145E-01
RMM:   4    -0.413194985154E+03   -0.28905E-01   -0.29666E-02  5149   0.143E-01    0.709E-01
RMM:   5    -0.413165563180E+03    0.29422E-01   -0.14304E-02  4808   0.118E-01    0.426E-02
RMM:   6    -0.413165750979E+03   -0.18780E-03   -0.24074E-03  5770   0.470E-02    0.263E-02
RMM:   7    -0.413165758881E+03   -0.79019E-05   -0.33713E-04  5815   0.160E-02    0.170E-02
RMM:   8    -0.413165756972E+03    0.19095E-05   -0.51232E-05  4985   0.728E-03    0.819E-03
RMM:   9    -0.413165755623E+03    0.13484E-05   -0.11003E-05  3662   0.371E-03    0.593E-03
RMM:  10    -0.413165756463E+03   -0.83987E-06   -0.16360E-06  2560   0.196E-03
    9 T=    61. E= -.41286670E+03 F= -.41316576E+03 E0= -.41314335E+03  EK= 0.29906E+00 SP= 0.00E+00 SK= 0.00E+00
       N       E                     dE             d eps       ncg     rms          rms(c)
RMM:   1    -0.413159219527E+03    0.65361E-02   -0.10548E+01  4292   0.712E-01    0.907E-01
RMM:   2    -0.413167465700E+03   -0.82462E-02   -0.12669E-01  4257   0.960E-02    0.634E-01
RMM:   3    -0.413168272653E+03   -0.80695E-03   -0.10434E-02  5085   0.616E-02    0.250E-01
RMM:   4    -0.413201123456E+03   -0.32851E-01   -0.44003E-02  5119   0.176E-01    0.778E-01
RMM:   5    -0.413165695791E+03    0.35428E-01   -0.15611E-02  4756   0.129E-01    0.546E-02
RMM:   6    -0.413165822432E+03   -0.12664E-03   -0.26113E-03  5635   0.507E-02    0.260E-02
RMM:   7    -0.413165837675E+03   -0.15244E-04   -0.37267E-04  6004   0.163E-02    0.168E-02
RMM:   8    -0.413165834624E+03    0.30517E-05   -0.61416E-05  5248   0.811E-03    0.776E-03
RMM:   9    -0.413165829696E+03    0.49279E-05   -0.10590E-05  3490   0.369E-03    0.374E-03
RMM:  10    -0.413165828507E+03    0.11891E-05   -0.24048E-06  2603   0.217E-03    0.260E-03
RMM:  11    -0.413165826800E+03    0.17067E-05   -0.11658E-06  2515   0.168E-03    0.133E-03
RMM:  12    -0.413165824940E+03    0.18605E-05   -0.72959E-07  2450   0.132E-03    0.406E-04
RMM:  13    -0.413165824045E+03    0.89457E-06   -0.35363E-07  1957   0.948E-04
   10 T=    61. E= -.41286650E+03 F= -.41316582E+03 E0= -.41314344E+03  EK= 0.29933E+00 SP= 0.00E+00 SK= 0.00E+00
       N       E                     dE             d eps       ncg     rms          rms(c)
RMM:   1    -0.413159507066E+03    0.63179E-02   -0.10498E+01  4291   0.715E-01    0.883E-01
RMM:   2    -0.413168660580E+03   -0.91535E-02   -0.12815E-01  4215   0.948E-02    0.638E-01
RMM:   3    -0.413166999178E+03    0.16614E-02   -0.84193E-03  4892   0.425E-02    0.146E-01
RMM:   4    -0.413198154644E+03   -0.31155E-01   -0.32243E-02  5146   0.149E-01    0.736E-01
RMM:   5    -0.413166385178E+03    0.31769E-01   -0.15402E-02  4796   0.123E-01    0.433E-02
RMM:   6    -0.413166586174E+03   -0.20100E-03   -0.26074E-03  5771   0.487E-02    0.261E-02
RMM:   7    -0.413166596796E+03   -0.10622E-04   -0.35454E-04  5822   0.164E-02    0.173E-02
RMM:   8    -0.413166595857E+03    0.93918E-06   -0.56955E-05  5023   0.760E-03    0.866E-03
RMM:   9    -0.413166594619E+03    0.12377E-05   -0.12276E-05  3808   0.393E-03    0.615E-03
RMM:  10    -0.413166595952E+03   -0.13329E-05   -0.18849E-06  2574   0.204E-03    0.403E-03
RMM:  11    -0.413166597911E+03   -0.19588E-05   -0.18204E-06  2575   0.204E-03    0.175E-03
RMM:  12    -0.413166599283E+03   -0.13720E-05   -0.12058E-06  2502   0.167E-03    0.712E-04
RMM:  13    -0.413166599347E+03   -0.63828E-07   -0.35841E-07  2151   0.103E-03
   11 T=    61. E= -.41286681E+03 F= -.41316660E+03 E0= -.41314424E+03  EK= 0.29979E+00 SP= 0.00E+00 SK= 0.00E+00
       N       E                     dE             d eps       ncg     rms          rms(c)
RMM:   1    -0.413160016124E+03    0.65832E-02   -0.10578E+01  4295   0.733E-01    0.894E-01
RMM:   2    -0.413168657179E+03   -0.86411E-02   -0.13020E-01  4221   0.981E-02    0.645E-01
RMM:   3    -0.413166762659E+03    0.18945E-02   -0.85597E-03  4817   0.410E-02    0.140E-01
RMM:   4    -0.413193252626E+03   -0.26490E-01   -0.27156E-02  5143   0.137E-01    0.679E-01
RMM:   5    -0.413166322799E+03    0.26930E-01   -0.13129E-02  4804   0.113E-01    0.407E-02
RMM:   6    -0.413166495666E+03   -0.17287E-03   -0.22109E-03  5797   0.447E-02    0.251E-02
RMM:   7    -0.413166503966E+03   -0.82996E-05   -0.29867E-04  5786   0.155E-02    0.163E-02
RMM:   8    -0.413166502573E+03    0.13925E-05   -0.53647E-05  4986   0.743E-03    0.836E-03
RMM:   9    -0.413166501146E+03    0.14272E-05   -0.11186E-05  3776   0.384E-03    0.614E-03
RMM:  10    -0.413166502349E+03   -0.12034E-05   -0.16163E-06  2555   0.198E-03    0.403E-03
RMM:  11    -0.413166504115E+03   -0.17655E-05   -0.18580E-06  2580   0.206E-03    0.177E-03
RMM:  12    -0.413166505181E+03   -0.10662E-05   -0.10941E-06  2488   0.161E-03    0.683E-04
RMM:  13    -0.413166505212E+03   -0.30428E-07   -0.33305E-07  2086   0.981E-04
   12 T=    61. E= -.41286653E+03 F= -.41316651E+03 E0= -.41314417E+03  EK= 0.29998E+00 SP= 0.00E+00 SK= 0.00E+00
       N       E                     dE             d eps       ncg     rms          rms(c)
RMM:   1    -0.413161280173E+03    0.52250E-02   -0.10582E+01  4295   0.733E-01    0.912E-01
RMM:   2    -0.413168611233E+03   -0.73311E-02   -0.12658E-01  4233   0.959E-02    0.636E-01
RMM:   3    -0.413167403089E+03    0.12081E-02   -0.88000E-03  4848   0.393E-02    0.149E-01
RMM:   4    -0.413194485040E+03   -0.27082E-01   -0.27791E-02  5145   0.138E-01    0.687E-01
RMM:   5    -0.413166931736E+03    0.27553E-01   -0.13452E-02  4808   0.114E-01    0.426E-02
RMM:   6    -0.413167103561E+03   -0.17182E-03   -0.22917E-03  5808   0.455E-02    0.268E-02
RMM:   7    -0.413167102876E+03    0.68518E-06   -0.31745E-04  5777   0.160E-02    0.172E-02
RMM:   8    -0.413167095126E+03    0.77494E-05   -0.54833E-05  4973   0.758E-03    0.864E-03
RMM:   9    -0.413167090000E+03    0.51259E-05   -0.11304E-05  3765   0.384E-03    0.643E-03
RMM:  10    -0.413167087305E+03    0.26952E-05   -0.16389E-06  2553   0.201E-03    0.417E-03
RMM:  11    -0.413167083670E+03    0.36352E-05   -0.16635E-06  2555   0.199E-03    0.190E-03
RMM:  12    -0.413167079722E+03    0.39476E-05   -0.11813E-06  2501   0.168E-03    0.685E-04
RMM:  13    -0.413167079247E+03    0.47488E-06   -0.36413E-07  2161   0.104E-03
   13 T=    61. E= -.41286665E+03 F= -.41316708E+03 E0= -.41314478E+03  EK= 0.30043E+00 SP= 0.00E+00 SK= 0.00E+00
       N       E                     dE             d eps       ncg     rms          rms(c)
RMM:   1    -0.413160784637E+03    0.62951E-02   -0.10490E+01  4295   0.723E-01    0.886E-01
RMM:   2    -0.413169754184E+03   -0.89695E-02   -0.12786E-01  4230   0.938E-02    0.636E-01
RMM:   3    -0.413168000688E+03    0.17535E-02   -0.84261E-03  4807   0.396E-02    0.141E-01
RMM:   4    -0.413192986164E+03   -0.24985E-01   -0.25585E-02  5145   0.133E-01    0.660E-01
RMM:   5    -0.413167608460E+03    0.25378E-01   -0.12410E-02  4808   0.110E-01    0.403E-02
RMM:   6    -0.413167768551E+03   -0.16009E-03   -0.21037E-03  5815   0.434E-02    0.251E-02
RMM:   7    -0.413167773394E+03   -0.48437E-05   -0.28185E-04  5778   0.152E-02    0.160E-02
RMM:   8    -0.413167769182E+03    0.42128E-05   -0.53225E-05  4957   0.741E-03    0.829E-03
RMM:   9    -0.413167766191E+03    0.29910E-05   -0.10958E-05  3768   0.381E-03    0.620E-03
RMM:  10    -0.413167765855E+03    0.33512E-06   -0.15556E-06  2552   0.196E-03
   14 T=    61. E= -.41286683E+03 F= -.41316777E+03 E0= -.41314550E+03  EK= 0.30094E+00 SP= 0.00E+00 SK= 0.00E+00
       N       E                     dE             d eps       ncg     rms          rms(c)
RMM:   1    -0.413166049061E+03    0.17171E-02   -0.10626E+01  4302   0.766E-01    0.890E-01
RMM:   2    -0.413170209280E+03   -0.41602E-02   -0.13551E-01  4279   0.101E-01    0.648E-01
RMM:   3    -0.413170335077E+03   -0.12580E-03   -0.10278E-02  5091   0.611E-02    0.250E-01
RMM:   4    -0.413208847036E+03   -0.38512E-01   -0.50319E-02  5119   0.188E-01    0.835E-01
RMM:   5    -0.413167644906E+03    0.41202E-01   -0.18326E-02  4759   0.139E-01    0.557E-02
RMM:   6    -0.413167788920E+03   -0.14401E-03   -0.29749E-03  5661   0.542E-02    0.249E-02
RMM:   7    -0.413167810943E+03   -0.22023E-04   -0.41150E-04  6018   0.169E-02    0.170E-02
RMM:   8    -0.413167812771E+03   -0.18284E-05   -0.67115E-05  5270   0.831E-03    0.815E-03
RMM:   9    -0.413167810975E+03    0.17968E-05   -0.12270E-05  3626   0.388E-03    0.374E-03
RMM:  10    -0.413167812463E+03   -0.14888E-05   -0.28101E-06  2631   0.222E-03    0.262E-03
RMM:  11    -0.413167813827E+03   -0.13632E-05   -0.12300E-06  2514   0.170E-03    0.136E-03
RMM:  12    -0.413167814519E+03   -0.69263E-06   -0.77237E-07  2450   0.133E-03
   15 T=    61. E= -.41286653E+03 F= -.41316781E+03 E0= -.41314558E+03  EK= 0.30129E+00 SP= 0.00E+00 SK= 0.00E+00
       N       E                     dE             d eps       ncg     rms          rms(c)
RMM:   1    -0.413162512691E+03    0.53011E-02   -0.10596E+01  4298   0.734E-01    0.913E-01
RMM:   2    -0.413170640665E+03   -0.81280E-02   -0.12755E-01  4254   0.976E-02    0.640E-01
RMM:   3    -0.413169351177E+03    0.12895E-02   -0.90204E-03  4931   0.428E-02    0.159E-01
RMM:   4    -0.413204342803E+03   -0.34992E-01   -0.36594E-02  5141   0.159E-01    0.779E-01
RMM:   5    -0.413168667596E+03    0.35675E-01   -0.17347E-02  4796   0.130E-01    0.465E-02
RMM:   6    -0.413168876997E+03   -0.20940E-03   -0.29082E-03  5776   0.518E-02    0.285E-02
RMM:   7    -0.413168878991E+03   -0.19931E-05   -0.39115E-04  5810   0.174E-02    0.186E-02
RMM:   8    -0.413168871444E+03    0.75463E-05   -0.65167E-05  5083   0.812E-03    0.959E-03
RMM:   9    -0.413168864618E+03    0.68262E-05   -0.13734E-05  3972   0.415E-03    0.667E-03
RMM:  10    -0.413168860986E+03    0.36321E-05   -0.21072E-06  2588   0.213E-03    0.430E-03
RMM:  11    -0.413168857072E+03    0.39139E-05   -0.15365E-06  2531   0.193E-03    0.209E-03
RMM:  12    -0.413168852028E+03    0.50444E-05   -0.14250E-06  2536   0.182E-03    0.735E-04
RMM:  13    -0.413168851040E+03    0.98764E-06   -0.42411E-07  2256   0.115E-03
   16 T=    61. E= -.41286682E+03 F= -.41316885E+03 E0= -.41314665E+03  EK= 0.30203E+00 SP= 0.00E+00 SK= 0.00E+00
       N       E                     dE             d eps       ncg     rms          rms(c)
RMM:   1    -0.413162482146E+03    0.63699E-02   -0.10510E+01  4298   0.735E-01    0.893E-01
RMM:   2    -0.413171253055E+03   -0.87709E-02   -0.12793E-01  4253   0.951E-02    0.636E-01
RMM:   3    -0.413169547683E+03    0.17054E-02   -0.85454E-03  4873   0.400E-02    0.148E-01
RMM:   4    -0.413198955216E+03   -0.29408E-01   -0.30396E-02  5145   0.145E-01    0.715E-01
RMM:   5    -0.413169060781E+03    0.29894E-01   -0.14644E-02  4795   0.119E-01    0.429E-02
RMM:   6    -0.413169241190E+03   -0.18041E-03   -0.24589E-03  5809   0.473E-02    0.264E-02
RMM:   7    -0.413169245463E+03   -0.42736E-05   -0.32532E-04  5810   0.161E-02    0.169E-02
RMM:   8    -0.413169240074E+03    0.53894E-05   -0.60954E-05  5026   0.779E-03    0.907E-03
RMM:   9    -0.413169234850E+03    0.52239E-05   -0.12848E-05  3954   0.406E-03    0.653E-03
RMM:  10    -0.413169232708E+03    0.21417E-05   -0.17815E-06  2561   0.205E-03    0.424E-03
RMM:  11    -0.413169229867E+03    0.28418E-05   -0.17306E-06  2554   0.203E-03    0.198E-03
RMM:  12    -0.413169226571E+03    0.32960E-05   -0.12128E-06  2500   0.172E-03    0.664E-04
RMM:  13    -0.413169226047E+03    0.52335E-06   -0.37901E-07  2180   0.106E-03
   17 T=    62. E= -.41286664E+03 F= -.41316923E+03 E0= -.41314707E+03  EK= 0.30259E+00 SP= 0.00E+00 SK= 0.00E+00
       N       E                     dE             d eps       ncg     rms          rms(c)
RMM:   1    -0.413163030164E+03    0.61964E-02   -0.10584E+01  4297   0.752E-01    0.889E-01
RMM:   2    -0.413172134991E+03   -0.91048E-02   -0.13104E-01  4260   0.994E-02    0.648E-01
RMM:   3    -0.413170099669E+03    0.20353E-02   -0.87857E-03  4864   0.428E-02    0.142E-01
RMM:   4    -0.413200184642E+03   -0.30085E-01   -0.31189E-02  5141   0.146E-01    0.723E-01
RMM:   5    -0.413169542486E+03    0.30642E-01   -0.15017E-02  4797   0.120E-01    0.425E-02
RMM:   6    -0.413169722375E+03   -0.17989E-03   -0.24843E-03  5811   0.477E-02    0.258E-02
RMM:   7    -0.413169729798E+03   -0.74230E-05   -0.32667E-04  5806   0.161E-02    0.168E-02
RMM:   8    -0.413169727632E+03    0.21666E-05   -0.60506E-05  5026   0.778E-03    0.886E-03
RMM:   9    -0.413169724826E+03    0.28055E-05   -0.12994E-05  3949   0.407E-03    0.631E-03
RMM:  10    -0.413169725138E+03   -0.31213E-06   -0.18465E-06  2566   0.205E-03
   18 T=    62. E= -.41286656E+03 F= -.41316973E+03 E0= -.41314761E+03  EK= 0.30316E+00 SP= 0.00E+00 SK= 0.00E+00
       N       E                     dE             d eps       ncg     rms          rms(c)
RMM:   1    -0.413166956308E+03    0.27685E-02   -0.10640E+01  4304   0.762E-01    0.912E-01
RMM:   2    -0.413172844747E+03   -0.58884E-02   -0.12865E-01  4298   0.988E-02    0.644E-01
RMM:   3    -0.413174265435E+03   -0.14207E-02   -0.11376E-02  5102   0.677E-02    0.277E-01
RMM:   4    -0.413203975771E+03   -0.29710E-01   -0.44061E-02  5103   0.176E-01    0.752E-01
RMM:   5    -0.413170873193E+03    0.33103E-01   -0.14222E-02  4734   0.124E-01    0.544E-02
RMM:   6    -0.413170964838E+03   -0.91645E-04   -0.24103E-03  5605   0.488E-02    0.262E-02
RMM:   7    -0.413170973327E+03   -0.84896E-05   -0.34898E-04  5996   0.161E-02    0.169E-02
RMM:   8    -0.413170967714E+03    0.56132E-05   -0.61311E-05  5225   0.816E-03    0.771E-03
RMM:   9    -0.413170960613E+03    0.71009E-05   -0.10350E-05  3463   0.371E-03    0.360E-03
RMM:  10    -0.413170958004E+03    0.26096E-05   -0.22521E-06  2574   0.214E-03    0.248E-03
RMM:  11    -0.413170954079E+03    0.39248E-05   -0.11575E-06  2515   0.169E-03    0.133E-03
RMM:  12    -0.413170950403E+03    0.36754E-05   -0.63794E-07  2426   0.130E-03    0.420E-04
RMM:  13    -0.413170948564E+03    0.18397E-05   -0.31125E-07  1937   0.925E-04    0.257E-04
RMM:  14    -0.413170946914E+03    0.16499E-05   -0.18669E-07  1471   0.764E-04    0.175E-04
RMM:  15    -0.413170944207E+03    0.27071E-05   -0.17110E-07  1398   0.733E-04    0.875E-05
RMM:  16    -0.413170942111E+03    0.20957E-05   -0.12423E-07  1343   0.679E-04    0.870E-05
RMM:  17    -0.413170939506E+03    0.26046E-05   -0.11670E-07  1383   0.658E-04    0.473E-05
RMM:  18    -0.413170937894E+03    0.16129E-05   -0.68717E-08  1064   0.577E-04    0.281E-05
RMM:  19    -0.413170937463E+03    0.43015E-06   -0.31507E-08   805   0.530E-04
   19 T=    62. E= -.41286685E+03 F= -.41317094E+03 E0= -.41314886E+03  EK= 0.30409E+00 SP= 0.00E+00 SK= 0.00E+00
       N       E                     dE             d eps       ncg     rms          rms(c)
RMM:   1    -0.413164810506E+03    0.61274E-02   -0.10555E+01  4297   0.746E-01    0.902E-01
RMM:   2    -0.413173180409E+03   -0.83699E-02   -0.12796E-01  4260   0.986E-02    0.637E-01
RMM:   3    -0.413171942922E+03    0.12375E-02   -0.89320E-03  4920   0.445E-02    0.163E-01
RMM:   4    -0.413209304725E+03   -0.37362E-01   -0.39572E-02  5143   0.165E-01    0.804E-01
RMM:   5    -0.413171164657E+03    0.38140E-01   -0.18509E-02  4788   0.135E-01    0.481E-02
RMM:   6    -0.413171373765E+03   -0.20911E-03   -0.31273E-03  5752   0.539E-02    0.289E-02
RMM:   7    -0.413171376148E+03   -0.23824E-05   -0.42186E-04  5790   0.178E-02    0.191E-02
RMM:   8    -0.413171368169E+03    0.79784E-05   -0.68450E-05  5159   0.830E-03    0.970E-03
RMM:   9    -0.413171361115E+03    0.70546E-05   -0.14795E-05  4063   0.425E-03    0.657E-03
RMM:  10    -0.413171357340E+03    0.37750E-05   -0.21943E-06  2591   0.215E-03    0.427E-03
RMM:  11    -0.413171353530E+03    0.38094E-05   -0.14463E-06  2518   0.189E-03    0.211E-03
RMM:  12    -0.413171348765E+03    0.47650E-05   -0.13034E-06  2513   0.180E-03    0.699E-04
RMM:  13    -0.413171347725E+03    0.10399E-05   -0.43150E-07  2270   0.116E-03    0.500E-04
RMM:  14    -0.413171347594E+03    0.13172E-06   -0.20341E-07  1754   0.805E-04
   20 T=    62. E= -.41286651E+03 F= -.41317135E+03 E0= -.41314931E+03  EK= 0.30484E+00 SP= 0.00E+00 SK= 0.00E+00
       N       E                     dE             d eps       ncg     rms          rms(c)
RMM:   1    -0.413165793228E+03    0.55545E-02   -0.10595E+01  4296   0.766E-01    0.889E-01
RMM:   2    -0.413174912790E+03   -0.91196E-02   -0.13130E-01  4272   0.991E-02    0.648E-01
RMM:   3    -0.413172812823E+03    0.21000E-02   -0.88490E-03  4840   0.423E-02    0.140E-01
RMM:   4    -0.413201864819E+03   -0.29052E-01   -0.30120E-02  5142   0.144E-01    0.710E-01
RMM:   5    -0.413172309411E+03    0.29555E-01   -0.14578E-02  4798   0.119E-01    0.426E-02
RMM:   6    -0.413172478516E+03   -0.16910E-03   -0.24146E-03  5786   0.473E-02    0.263E-02
RMM:   7    -0.413172485768E+03   -0.72525E-05   -0.33263E-04  5768   0.162E-02    0.170E-02
RMM:   8    -0.413172482326E+03    0.34421E-05   -0.58887E-05  5026   0.778E-03    0.869E-03
RMM:   9    -0.413172478777E+03    0.35491E-05   -0.12330E-05  3847   0.399E-03    0.619E-03
RMM:  10    -0.413172478290E+03    0.48734E-06   -0.17426E-06  2558   0.200E-03
   21 T=    62. E= -.41286669E+03 F= -.41317248E+03 E0= -.41315049E+03  EK= 0.30578E+00 SP= 0.00E+00 SK= 0.00E+00
       N       E                     dE             d eps       ncg     rms          rms(c)
RMM:   1    -0.413167074217E+03    0.54046E-02   -0.10649E+01  4297   0.760E-01    0.910E-01
RMM:   2    -0.413175606081E+03   -0.85319E-02   -0.13015E-01  4297   0.985E-02    0.648E-01
RMM:   3    -0.413176089535E+03   -0.48345E-03   -0.10861E-02  5078   0.627E-02    0.252E-01
RMM:   4    -0.413211914347E+03   -0.35825E-01   -0.48039E-02  5110   0.183E-01    0.808E-01
RMM:   5    -0.413173340552E+03    0.38574E-01   -0.17148E-02  4748   0.135E-01    0.547E-02
RMM:   6    -0.413173471952E+03   -0.13140E-03   -0.28598E-03  5646   0.533E-02    0.268E-02
RMM:   7    -0.413173482935E+03   -0.10984E-04   -0.40245E-04  5991   0.170E-02    0.179E-02
RMM:   8    -0.413173478148E+03    0.47869E-05   -0.66845E-05  5225   0.842E-03    0.835E-03
RMM:   9    -0.413173471000E+03    0.71488E-05   -0.12199E-05  3678   0.394E-03    0.403E-03
RMM:  10    -0.413173468228E+03    0.27713E-05   -0.25810E-06  2607   0.221E-03    0.281E-03
RMM:  11    -0.413173464639E+03    0.35894E-05   -0.10728E-06  2498   0.166E-03    0.142E-03
RMM:  12    -0.413173460674E+03    0.39649E-05   -0.68683E-07  2444   0.134E-03    0.393E-04
RMM:  13    -0.413173458718E+03    0.19559E-05   -0.33606E-07  2008   0.964E-04    0.263E-04
RMM:  14    -0.413173457441E+03    0.12772E-05   -0.18537E-07  1514   0.765E-04    0.175E-04
RMM:  15    -0.413173454724E+03    0.27165E-05   -0.15352E-07  1336   0.725E-04    0.914E-05
RMM:  16    -0.413173452628E+03    0.20969E-05   -0.11672E-07  1363   0.682E-04    0.102E-04
RMM:  17    -0.413173450693E+03    0.19347E-05   -0.86631E-08  1234   0.632E-04    0.599E-05
RMM:  18    -0.413173448500E+03    0.21926E-05   -0.74966E-08  1187   0.607E-04    0.324E-05
RMM:  19    -0.413173447833E+03    0.66704E-06   -0.30879E-08   819   0.536E-04
   22 T=    62. E= -.41286674E+03 F= -.41317345E+03 E0= -.41315151E+03  EK= 0.30670E+00 SP= 0.00E+00 SK= 0.00E+00
       N       E                     dE             d eps       ncg     rms          rms(c)
RMM:   1    -0.413167784447E+03    0.56641E-02   -0.10618E+01  4295   0.763E-01    0.912E-01
RMM:   2    -0.413176184821E+03   -0.84004E-02   -0.12892E-01  4278   0.101E-01    0.641E-01
RMM:   3    -0.413174664480E+03    0.15203E-02   -0.92017E-03  4874   0.460E-02    0.159E-01
RMM:   4    -0.413209861155E+03   -0.35197E-01   -0.36905E-02  5145   0.159E-01    0.780E-01
RMM:   5    -0.413173970998E+03    0.35890E-01   -0.17592E-02  4789   0.131E-01    0.472E-02
RMM:   6    -0.413174174473E+03   -0.20347E-03   -0.29997E-03  5785   0.526E-02    0.292E-02
RMM:   7    -0.413174177413E+03   -0.29403E-05   -0.39866E-04  5773   0.178E-02    0.189E-02
RMM:   8    -0.413174168163E+03    0.92504E-05   -0.70564E-05  5121   0.848E-03    0.101E-02
RMM:   9    -0.413174159714E+03    0.84492E-05   -0.14633E-05  4104   0.432E-03    0.700E-03
RMM:  10    -0.413174154696E+03    0.50179E-05   -0.21582E-06  2593   0.216E-03    0.456E-03
RMM:  11    -0.413174149312E+03    0.53838E-05   -0.15685E-06  2519   0.198E-03    0.221E-03
RMM:  12    -0.413174142851E+03    0.64611E-05   -0.13233E-06  2506   0.184E-03    0.712E-04
RMM:  13    -0.413174141457E+03    0.13941E-05   -0.44008E-07  2279   0.118E-03    0.501E-04
RMM:  14    -0.413174141224E+03    0.23270E-06   -0.20914E-07  1772   0.816E-04
   23 T=    63. E= -.41286651E+03 F= -.41317414E+03 E0= -.41315225E+03  EK= 0.30763E+00 SP= 0.00E+00 SK= 0.00E+00
       N       E                     dE             d eps       ncg     rms          rms(c)
RMM:   1    -0.413169306421E+03    0.48350E-02   -0.10614E+01  4293   0.779E-01    0.892E-01
RMM:   2    -0.413178325033E+03   -0.90186E-02   -0.13163E-01  4275   0.104E-01    0.648E-01
RMM:   3    -0.413176035634E+03    0.22894E-02   -0.88708E-03  4755   0.436E-02    0.138E-01
RMM:   4    -0.413200816530E+03   -0.24781E-01   -0.25437E-02  5146   0.133E-01    0.657E-01
RMM:   5    -0.413175653182E+03    0.25163E-01   -0.12495E-02  4802   0.110E-01    0.409E-02
RMM:   6    -0.413175793632E+03   -0.14045E-03   -0.20806E-03  5807   0.435E-02    0.255E-02
RMM:   7    -0.413175796763E+03   -0.31310E-05   -0.28194E-04  5745   0.156E-02    0.157E-02
RMM:   8    -0.413175791718E+03    0.50450E-05   -0.57120E-05  4981   0.772E-03    0.862E-03
RMM:   9    -0.413175786810E+03    0.49085E-05   -0.11947E-05  3895   0.397E-03    0.632E-03
RMM:  10    -0.413175785099E+03    0.17106E-05   -0.15205E-06  2544   0.198E-03    0.415E-03
RMM:  11    -0.413175782476E+03    0.26233E-05   -0.17641E-06  2548   0.209E-03    0.181E-03
RMM:  12    -0.413175779929E+03    0.25467E-05   -0.96136E-07  2458   0.159E-03    0.642E-04
RMM:  13    -0.413175779600E+03    0.32879E-06   -0.32016E-07  2075   0.976E-04
   24 T=    63. E= -.41286686E+03 F= -.41317578E+03 E0= -.41315393E+03  EK= 0.30892E+00 SP= 0.00E+00 SK= 0.00E+00
       N       E                     dE             d eps       ncg     rms          rms(c)
RMM:   1    -0.413170511631E+03    0.52683E-02   -0.10696E+01  4295   0.787E-01    0.907E-01
RMM:   2    -0.413179236420E+03   -0.87248E-02   -0.13191E-01  4283   0.106E-01    0.654E-01
RMM:   3    -0.413176948555E+03    0.22879E-02   -0.90576E-03  4680   0.447E-02    0.135E-01
RMM:   4    -0.413196202760E+03   -0.19254E-01   -0.19724E-02  5146   0.117E-01    0.581E-01
RMM:   5    -0.413176635096E+03    0.19568E-01   -0.97083E-03  4814   0.967E-02    0.387E-02
RMM:   6    -0.413176731599E+03   -0.96503E-04   -0.16050E-03  5820   0.378E-02    0.230E-02
RMM:   7    -0.413176732585E+03   -0.98519E-06   -0.17763E-04  5598   0.129E-02    0.105E-02
RMM:   8    -0.413176726924E+03    0.56603E-05   -0.29843E-05  4642   0.555E-03    0.678E-03
RMM:   9    -0.413176724221E+03    0.27030E-05   -0.35530E-06  2722   0.225E-03    0.461E-03
RMM:  10    -0.413176722076E+03    0.21451E-05   -0.99701E-07  2498   0.152E-03    0.316E-03
RMM:  11    -0.413176717795E+03    0.42815E-05   -0.15720E-06  2526   0.200E-03    0.148E-03
RMM:  12    -0.413176715251E+03    0.25441E-05   -0.61233E-07  2360   0.135E-03    0.674E-04
RMM:  13    -0.413176714762E+03    0.48899E-06   -0.23611E-07  1804   0.852E-04
   25 T=    63. E= -.41286669E+03 F= -.41317671E+03 E0= -.41315492E+03  EK= 0.31003E+00 SP= 0.00E+00 SK= 0.00E+00
       N       E                     dE             d eps       ncg     rms          rms(c)
RMM:   1    -0.413171974918E+03    0.47403E-02   -0.10702E+01  4294   0.785E-01    0.922E-01
RMM:   2    -0.413179941534E+03   -0.79666E-02   -0.13040E-01  4275   0.108E-01    0.646E-01
RMM:   3    -0.413178161125E+03    0.17804E-02   -0.92293E-03  4628   0.445E-02    0.142E-01
RMM:   4    -0.413195458184E+03   -0.17297E-01   -0.17612E-02  5149   0.111E-01    0.551E-01
RMM:   5    -0.413177981910E+03    0.17476E-01   -0.87794E-03  4821   0.914E-02    0.390E-02
RMM:   6    -0.413178054535E+03   -0.72625E-04   -0.14220E-03  5818   0.357E-02    0.231E-02
RMM:   7    -0.413178047945E+03    0.65900E-05   -0.16849E-04  5562   0.128E-02    0.107E-02
RMM:   8    -0.413178038639E+03    0.93068E-05   -0.27654E-05  4612   0.542E-03    0.696E-03
RMM:   9    -0.413178035629E+03    0.30093E-05   -0.72559E-06  3329   0.306E-03    0.586E-03
RMM:  10    -0.413178030991E+03    0.46381E-05   -0.11707E-06  2525   0.189E-03    0.376E-03
RMM:  11    -0.413178022861E+03    0.81305E-05   -0.16044E-06  2541   0.201E-03    0.179E-03
RMM:  12    -0.413178016181E+03    0.66794E-05   -0.82071E-07  2428   0.151E-03    0.762E-04
RMM:  13    -0.413178015055E+03    0.11262E-05   -0.26320E-07  2035   0.919E-04    0.447E-04
RMM:  14    -0.413178013786E+03    0.12691E-05   -0.12031E-07  1361   0.690E-04    0.340E-04
RMM:  15    -0.413178008633E+03    0.51528E-05   -0.18040E-07  2008   0.800E-04    0.407E-04
RMM:  16    -0.413178007907E+03    0.72599E-06   -0.44359E-08   921   0.556E-04
   26 T=    63. E= -.41286667E+03 F= -.41317801E+03 E0= -.41315626E+03  EK= 0.31134E+00 SP= 0.00E+00 SK= 0.00E+00
       N       E                     dE             d eps       ncg     rms          rms(c)
RMM:   1    -0.413174501681E+03    0.35070E-02   -0.10666E+01  4292   0.794E-01    0.898E-01
RMM:   2    -0.413181968439E+03   -0.74668E-02   -0.13201E-01  4275   0.104E-01    0.648E-01
RMM:   3    -0.413180034683E+03    0.19338E-02   -0.91199E-03  4747   0.453E-02    0.142E-01
RMM:   4    -0.413205494113E+03   -0.25459E-01   -0.26105E-02  5153   0.134E-01    0.666E-01
RMM:   5    -0.413179623832E+03    0.25870E-01   -0.12965E-02  4814   0.111E-01    0.415E-02
RMM:   6    -0.413179757014E+03   -0.13318E-03   -0.20735E-03  5823   0.435E-02    0.260E-02
RMM:   7    -0.413179759396E+03   -0.23818E-05   -0.27089E-04  5747   0.156E-02    0.151E-02
RMM:   8    -0.413179754901E+03    0.44955E-05   -0.58646E-05  4996   0.773E-03    0.897E-03
RMM:   9    -0.413179748709E+03    0.61910E-05   -0.12419E-05  3998   0.408E-03    0.638E-03
RMM:  10    -0.413179746062E+03    0.26479E-05   -0.16296E-06  2553   0.203E-03    0.416E-03
RMM:  11    -0.413179742334E+03    0.37274E-05   -0.16543E-06  2537   0.204E-03    0.189E-03
RMM:  12    -0.413179738481E+03    0.38534E-05   -0.10053E-06  2461   0.163E-03    0.635E-04
RMM:  13    -0.413179737784E+03    0.69662E-06   -0.34488E-07  2132   0.102E-03
   27 T=    64. E= -.41286679E+03 F= -.41317974E+03 E0= -.41315804E+03  EK= 0.31295E+00 SP= 0.00E+00 SK= 0.00E+00
       N       E                     dE             d eps       ncg     rms          rms(c)
RMM:   1    -0.413175638259E+03    0.41002E-02   -0.10776E+01  4291   0.831E-01    0.906E-01
RMM:   2    -0.413183403184E+03   -0.77649E-02   -0.13541E-01  4272   0.108E-01    0.660E-01
RMM:   3    -0.413181000358E+03    0.24028E-02   -0.93269E-03  4483   0.444E-02    0.128E-01
RMM:   4    -0.413190755642E+03   -0.97553E-02   -0.10178E-02  5154   0.850E-02    0.416E-01
RMM:   5    -0.413180894545E+03    0.98611E-02   -0.49695E-03  4828   0.684E-02    0.345E-02
RMM:   6    -0.413180924595E+03   -0.30050E-04   -0.83539E-04  5845   0.271E-02    0.210E-02
RMM:   7    -0.413180929457E+03   -0.48621E-05   -0.18033E-04  5498   0.132E-02    0.141E-02
RMM:   8    -0.413180915028E+03    0.14429E-04   -0.25865E-05  4522   0.598E-03    0.591E-03
RMM:   9    -0.413180913510E+03    0.15176E-05   -0.51293E-06  3035   0.283E-03    0.461E-03
RMM:  10    -0.413180911364E+03    0.21469E-05   -0.11537E-06  2493   0.186E-03    0.271E-03
RMM:  11    -0.413180908541E+03    0.28229E-05   -0.83391E-07  2472   0.153E-03    0.132E-03
RMM:  12    -0.413180905657E+03    0.28839E-05   -0.49288E-07  2283   0.115E-03    0.530E-04
RMM:  13    -0.413180904679E+03    0.97750E-06   -0.20685E-07  1721   0.803E-04
   28 T=    64. E= -.41286649E+03 F= -.41318090E+03 E0= -.41315926E+03  EK= 0.31441E+00 SP= 0.00E+00 SK= 0.00E+00
       N       E                     dE             d eps       ncg     rms          rms(c)
RMM:   1    -0.413177054736E+03    0.38509E-02   -0.10799E+01  4293   0.803E-01    0.929E-01
RMM:   2    -0.413185070252E+03   -0.80155E-02   -0.13247E-01  4273   0.107E-01    0.653E-01
RMM:   3    -0.413183023515E+03    0.20467E-02   -0.96370E-03  4423   0.457E-02    0.137E-01
RMM:   4    -0.413189993902E+03   -0.69704E-02   -0.74336E-03  5164   0.726E-02    0.352E-01
RMM:   5    -0.413183014732E+03    0.69792E-02   -0.35619E-03  4826   0.579E-02    0.355E-02
RMM:   6    -0.413183027200E+03   -0.12468E-04   -0.65240E-04  5797   0.243E-02    0.229E-02
RMM:   7    -0.413183016070E+03    0.11130E-04   -0.19154E-04  5346   0.137E-02    0.138E-02
RMM:   8    -0.413183002115E+03    0.13956E-04   -0.16515E-05  4164   0.533E-03    0.584E-03
RMM:   9    -0.413182998478E+03    0.36366E-05   -0.32091E-06  2775   0.238E-03    0.408E-03
RMM:  10    -0.413182992422E+03    0.60555E-05   -0.12310E-06  2486   0.183E-03    0.220E-03
RMM:  11    -0.413182985826E+03    0.65969E-05   -0.74498E-07  2446   0.146E-03    0.103E-03
RMM:  12    -0.413182980785E+03    0.50406E-05   -0.38592E-07  2169   0.107E-03    0.476E-04
RMM:  13    -0.413182978269E+03    0.25155E-05   -0.19712E-07  1651   0.786E-04    0.231E-04
RMM:  14    -0.413182974529E+03    0.37403E-05   -0.12250E-07  1307   0.699E-04    0.142E-04
RMM:  15    -0.413182969759E+03    0.47700E-05   -0.10455E-07  1327   0.681E-04    0.879E-05
RMM:  16    -0.413182967891E+03    0.18677E-05   -0.56055E-08  1015   0.597E-04    0.684E-05
RMM:  17    -0.413182963340E+03    0.45519E-05   -0.80447E-08  1333   0.640E-04    0.377E-05
RMM:  18    -0.413182962231E+03    0.11085E-05   -0.31047E-08   855   0.536E-04    0.197E-05
RMM:  19    -0.413182961784E+03    0.44706E-06   -0.17567E-08   740   0.514E-04
   29 T=    64. E= -.41286674E+03 F= -.41318296E+03 E0= -.41316136E+03  EK= 0.31622E+00 SP= 0.00E+00 SK= 0.00E+00
       N       E                     dE             d eps       ncg     rms          rms(c)
RMM:   1    -0.413178400972E+03    0.45613E-02   -0.10738E+01  4290   0.807E-01    0.908E-01
RMM:   2    -0.413187271474E+03   -0.88705E-02   -0.13355E-01  4269   0.112E-01    0.652E-01
RMM:   3    -0.413184978200E+03    0.22933E-02   -0.94639E-03  4433   0.493E-02    0.132E-01
RMM:   4    -0.413193093352E+03   -0.81152E-02   -0.86062E-03  5154   0.781E-02    0.380E-01
RMM:   5    -0.413184900234E+03    0.81931E-02   -0.41602E-03  4829   0.625E-02    0.353E-02
RMM:   6    -0.413184920338E+03   -0.20105E-04   -0.74841E-04  5827   0.255E-02    0.227E-02
RMM:   7    -0.413184917276E+03    0.30625E-05   -0.19579E-04  5387   0.137E-02    0.144E-02
RMM:   8    -0.413184902879E+03    0.14397E-04   -0.21202E-05  4382   0.574E-03    0.609E-03
RMM:   9    -0.413184900592E+03    0.22876E-05   -0.38793E-06  2864   0.257E-03    0.439E-03
RMM:  10    -0.413184896919E+03    0.36724E-05   -0.12434E-06  2491   0.184E-03    0.245E-03
RMM:  11    -0.413184892846E+03    0.40733E-05   -0.79812E-07  2457   0.150E-03    0.118E-03
RMM:  12    -0.413184889395E+03    0.34510E-05   -0.44077E-07  2246   0.112E-03    0.547E-04
RMM:  13    -0.413184887909E+03    0.14860E-05   -0.20257E-07  1706   0.800E-04    0.245E-04
RMM:  14    -0.413184885836E+03    0.20728E-05   -0.11815E-07  1276   0.685E-04    0.149E-04
RMM:  15    -0.413184882890E+03    0.29469E-05   -0.88555E-08  1164   0.657E-04    0.694E-05
RMM:  16    -0.413184881732E+03    0.11575E-05   -0.48628E-08   944   0.604E-04    0.574E-05
RMM:  17    -0.413184879269E+03    0.24626E-05   -0.57120E-08  1118   0.617E-04    0.370E-05
RMM:  18    -0.413184877501E+03    0.17689E-05   -0.37986E-08   967   0.575E-04    0.242E-05
RMM:  19    -0.413184877013E+03    0.48702E-06   -0.14923E-08   689   0.530E-04
   30 T=    65. E= -.41286683E+03 F= -.41318488E+03 E0= -.41316333E+03  EK= 0.31804E+00 SP= 0.00E+00 SK= 0.00E+00
       N       E                     dE             d eps       ncg     rms          rms(c)
RMM:   1    -0.413186646873E+03   -0.17694E-02   -0.10917E+01  4292   0.892E-01    0.908E-01
RMM:   2    -0.413189580449E+03   -0.29336E-02   -0.14563E-01  4275   0.124E-01    0.666E-01
RMM:   3    -0.413186510697E+03    0.30698E-02   -0.94342E-03  4423   0.494E-02    0.137E-01
RMM:   4    -0.413193948742E+03   -0.74380E-02   -0.80236E-03  5156   0.758E-02    0.363E-01
RMM:   5    -0.413186504579E+03    0.74442E-02   -0.37478E-03  4823   0.595E-02    0.344E-02
RMM:   6    -0.413186524356E+03   -0.19778E-04   -0.68482E-04  5819   0.244E-02    0.223E-02
RMM:   7    -0.413186524499E+03   -0.14226E-06   -0.18977E-04  5367   0.135E-02    0.140E-02
RMM:   8    -0.413186512106E+03    0.12393E-04   -0.19857E-05  4333   0.560E-03    0.594E-03
RMM:   9    -0.413186510921E+03    0.11844E-05   -0.34324E-06  2806   0.249E-03    0.417E-03
RMM:  10    -0.413186508993E+03    0.19282E-05   -0.12160E-06  2488   0.181E-03    0.230E-03
RMM:  11    -0.413186506834E+03    0.21589E-05   -0.78377E-07  2452   0.147E-03    0.110E-03
RMM:  12    -0.413186504910E+03    0.19245E-05   -0.42974E-07  2214   0.109E-03    0.521E-04
RMM:  13    -0.413186503949E+03    0.96107E-06   -0.19488E-07  1630   0.780E-04
   31 T=    65. E= -.41286664E+03 F= -.41318650E+03 E0= -.41316501E+03  EK= 0.31986E+00 SP= 0.00E+00 SK= 0.00E+00
       N       E                     dE             d eps       ncg     rms          rms(c)
RMM:   1    -0.413185004228E+03    0.15007E-02   -0.10923E+01  4292   0.855E-01    0.934E-01
RMM:   2    -0.413191527527E+03   -0.65233E-02   -0.13591E-01  4283   0.122E-01    0.661E-01
RMM:   3    -0.413189164147E+03    0.23634E-02   -0.10018E-02  4238   0.523E-02    0.133E-01
RMM:   4    -0.413189949758E+03   -0.78561E-03   -0.16469E-03  5066   0.325E-02    0.120E-01
RMM:   5    -0.413189193065E+03    0.75669E-03   -0.42702E-04  4797   0.208E-02    0.350E-02
RMM:   6    -0.413189191761E+03    0.13038E-05   -0.24806E-04  5401   0.159E-02    0.254E-02
RMM:   7    -0.413189159309E+03    0.32453E-04   -0.15411E-04  4867   0.120E-02    0.134E-02
RMM:   8    -0.413189156101E+03    0.32075E-05   -0.12704E-05  3620   0.416E-03    0.466E-03
RMM:   9    -0.413189154241E+03    0.18605E-05   -0.19289E-06  2474   0.200E-03    0.248E-03
RMM:  10    -0.413189145467E+03    0.87739E-05   -0.86547E-07  2407   0.146E-03    0.989E-04
RMM:  11    -0.413189140657E+03    0.48097E-05   -0.35931E-07  2033   0.962E-04    0.370E-04
RMM:  12    -0.413189136294E+03    0.43630E-05   -0.20411E-07  1741   0.797E-04    0.223E-04
RMM:  13    -0.413189132930E+03    0.33644E-05   -0.10889E-07  1282   0.672E-04    0.138E-04
RMM:  14    -0.413189126830E+03    0.60998E-05   -0.97457E-08  1242   0.665E-04    0.108E-04
RMM:  15    -0.413189122555E+03    0.42743E-05   -0.65043E-08  1125   0.616E-04    0.765E-05
RMM:  16    -0.413189119472E+03    0.30835E-05   -0.49997E-08  1043   0.578E-04    0.461E-05
RMM:  17    -0.413189117893E+03    0.15788E-05   -0.26200E-08   775   0.526E-04    0.274E-05
RMM:  18    -0.413189117231E+03    0.66222E-06   -0.14485E-08   653   0.508E-04
   32 T=    66. E= -.41286698E+03 F= -.41318912E+03 E0= -.41316767E+03  EK= 0.32214E+00 SP= 0.00E+00 SK= 0.00E+00
       N       E                     dE             d eps       ncg     rms          rms(c)
RMM:   1    -0.413185361192E+03    0.37567E-02   -0.10869E+01  4285   0.857E-01    0.921E-01
RMM:   2    -0.413193656185E+03   -0.82950E-02   -0.13700E-01  4280   0.127E-01    0.657E-01
RMM:   3    -0.413190958331E+03    0.26979E-02   -0.97673E-03  4209   0.488E-02    0.135E-01
RMM:   4    -0.413191276032E+03   -0.31770E-03   -0.12000E-03  4952   0.263E-02    0.676E-02
RMM:   5    -0.413191085014E+03    0.19102E-03   -0.16417E-04  4722   0.130E-02    0.361E-02
RMM:   6    -0.413191075668E+03    0.93454E-05   -0.19758E-04  5285   0.141E-02    0.246E-02
RMM:   7    -0.413191047726E+03    0.27942E-04   -0.14929E-04  4794   0.115E-02    0.135E-02
RMM:   8    -0.413191044214E+03    0.35126E-05   -0.11844E-05  3524   0.409E-03    0.473E-03
RMM:   9    -0.413191042888E+03    0.13251E-05   -0.22030E-06  2340   0.194E-03    0.203E-03
RMM:  10    -0.413191035090E+03    0.77981E-05   -0.79495E-07  2261   0.135E-03    0.717E-04
RMM:  11    -0.413191031362E+03    0.37283E-05   -0.24421E-07  1678   0.829E-04    0.306E-04
RMM:  12    -0.413191027572E+03    0.37903E-05   -0.14625E-07  1394   0.721E-04    0.183E-04
RMM:  13    -0.413191024095E+03    0.34768E-05   -0.81211E-08  1034   0.640E-04    0.102E-04
RMM:  14    -0.413191019446E+03    0.46491E-05   -0.65568E-08   969   0.624E-04    0.899E-05
RMM:  15    -0.413191015863E+03    0.35830E-05   -0.45303E-08   874   0.587E-04    0.475E-05
RMM:  16    -0.413191013269E+03    0.25938E-05   -0.35643E-08   826   0.558E-04    0.320E-05
RMM:  17    -0.413191012411E+03    0.85769E-06   -0.11808E-08   530   0.504E-04
   33 T=    66. E= -.41286669E+03 F= -.41319101E+03 E0= -.41316961E+03  EK= 0.32432E+00 SP= 0.00E+00 SK= 0.00E+00
       N       E                     dE             d eps       ncg     rms          rms(c)
RMM:   1    -0.413195904821E+03   -0.48916E-02   -0.11047E+01  4295   0.948E-01    0.913E-01
RMM:   2    -0.413196369956E+03   -0.46513E-03   -0.15176E-01  4278   0.137E-01    0.672E-01
RMM:   3    -0.413193483725E+03    0.28862E-02   -0.96360E-03  4248   0.547E-02    0.140E-01
RMM:   4    -0.413194540855E+03   -0.10571E-02   -0.20216E-03  5081   0.379E-02    0.137E-01
RMM:   5    -0.413193546690E+03    0.99417E-03   -0.52186E-04  4750   0.232E-02    0.336E-02
RMM:   6    -0.413193545207E+03    0.14821E-05   -0.23402E-04  5497   0.156E-02    0.237E-02
RMM:   7    -0.413193528614E+03    0.16594E-04   -0.16103E-04  4925   0.120E-02    0.142E-02
RMM:   8    -0.413193523457E+03    0.51570E-05   -0.11968E-05  3526   0.422E-03    0.516E-03
RMM:   9    -0.413193522734E+03    0.72302E-06   -0.20052E-06  2457   0.192E-03
   34 T=    67. E= -.41286675E+03 F= -.41319352E+03 E0= -.41317217E+03  EK= 0.32677E+00 SP= 0.00E+00 SK= 0.00E+00
       N       E                     dE             d eps       ncg     rms          rms(c)
RMM:   1    -0.413190769642E+03    0.27538E-02   -0.11045E+01  4301   0.888E-01    0.938E-01
RMM:   2    -0.413198721647E+03   -0.79520E-02   -0.14190E-01  4271   0.130E-01    0.671E-01
RMM:   3    -0.413196192759E+03    0.25289E-02   -0.10090E-02  4297   0.531E-02    0.135E-01
RMM:   4    -0.413196266777E+03   -0.74018E-04   -0.11170E-03  4793   0.213E-02    0.369E-02
RMM:   5    -0.413196327552E+03   -0.60775E-04   -0.17975E-04  5020   0.135E-02    0.502E-02
RMM:   6    -0.413196255604E+03    0.71948E-04   -0.15416E-04  5266   0.121E-02    0.309E-02
RMM:   7    -0.413196210358E+03    0.45245E-04   -0.17654E-04  4908   0.123E-02    0.128E-02
RMM:   8    -0.413196206279E+03    0.40795E-05   -0.12928E-05  3918   0.451E-03    0.509E-03
RMM:   9    -0.413196204816E+03    0.14628E-05   -0.25692E-06  2395   0.189E-03    0.184E-03
RMM:  10    -0.413196195808E+03    0.90085E-05   -0.70760E-07  2303   0.132E-03    0.854E-04
RMM:  11    -0.413196190500E+03    0.53073E-05   -0.21461E-07  1567   0.779E-04    0.425E-04
RMM:  12    -0.413196186322E+03    0.41782E-05   -0.10823E-07  1139   0.657E-04    0.220E-04
RMM:  13    -0.413196181243E+03    0.50791E-05   -0.94303E-08  1112   0.645E-04    0.147E-04
RMM:  14    -0.413196175261E+03    0.59822E-05   -0.82339E-08  1067   0.627E-04    0.131E-04
RMM:  15    -0.413196172592E+03    0.26687E-05   -0.32280E-08   680   0.543E-04    0.646E-05
RMM:  16    -0.413196167896E+03    0.46961E-05   -0.52565E-08   955   0.587E-04    0.490E-05
RMM:  17    -0.413196166971E+03    0.92548E-06   -0.14921E-08   572   0.503E-04
   35 T=    67. E= -.41286692E+03 F= -.41319617E+03 E0= -.41317486E+03  EK= 0.32925E+00 SP= 0.00E+00 SK= 0.00E+00
       N       E                     dE             d eps       ncg     rms          rms(c)
RMM:   1    -0.413193165107E+03    0.30028E-02   -0.11033E+01  4297   0.917E-01    0.938E-01
RMM:   2    -0.413200426229E+03   -0.72611E-02   -0.14248E-01  4259   0.131E-01    0.665E-01
RMM:   3    -0.413198354200E+03    0.20720E-02   -0.10279E-02  4662   0.543E-02    0.155E-01
RMM:   4    -0.413222739686E+03   -0.24385E-01   -0.24686E-02  5164   0.132E-01    0.653E-01
RMM:   5    -0.413198125735E+03    0.24614E-01   -0.12532E-02  4811   0.109E-01    0.441E-02
RMM:   6    -0.413198153180E+03   -0.27446E-04   -0.19848E-03  5851   0.426E-02    0.279E-02
RMM:   7    -0.413198159470E+03   -0.62895E-05   -0.28569E-04  5656   0.160E-02    0.157E-02
RMM:   8    -0.413198146883E+03    0.12587E-04   -0.54703E-05  4994   0.779E-03    0.889E-03
RMM:   9    -0.413198143374E+03    0.35088E-05   -0.13837E-05  4154   0.436E-03    0.630E-03
RMM:  10    -0.413198136928E+03    0.64460E-05   -0.18260E-06  2573   0.224E-03    0.366E-03
RMM:  11    -0.413198132503E+03    0.44257E-05   -0.97545E-07  2486   0.162E-03    0.221E-03
RMM:  12    -0.413198122655E+03    0.98474E-05   -0.13088E-06  2501   0.187E-03    0.107E-03
RMM:  13    -0.413198118545E+03    0.41100E-05   -0.46999E-07  2285   0.122E-03    0.616E-04
RMM:  14    -0.413198118049E+03    0.49643E-06   -0.19929E-07  1757   0.809E-04
   36 T=    68. E= -.41286653E+03 F= -.41319812E+03 E0= -.41317686E+03  EK= 0.33159E+00 SP= 0.00E+00 SK= 0.00E+00
       N       E                     dE             d eps       ncg     rms          rms(c)
RMM:   1    -0.413217107426E+03   -0.18989E-01   -0.11295E+01  4304   0.106E+00    0.920E-01
RMM:   2    -0.413204360378E+03    0.12747E-01   -0.16908E-01  4258   0.142E-01    0.678E-01
RMM:   3    -0.413201420648E+03    0.29397E-02   -0.93254E-03  4617   0.541E-02    0.175E-01
RMM:   4    -0.413223398395E+03   -0.21978E-01   -0.22494E-02  5162   0.127E-01    0.621E-01
RMM:   5    -0.413201206654E+03    0.22192E-01   -0.11233E-02  4810   0.103E-01    0.432E-02
RMM:   6    -0.413201229530E+03   -0.22876E-04   -0.18366E-03  5848   0.405E-02    0.275E-02
RMM:   7    -0.413201238849E+03   -0.93186E-05   -0.28505E-04  5639   0.158E-02    0.159E-02
RMM:   8    -0.413201226028E+03    0.12820E-04   -0.56733E-05  4988   0.801E-03    0.832E-03
RMM:   9    -0.413201223800E+03    0.22283E-05   -0.12461E-05  4004   0.423E-03    0.563E-03
RMM:  10    -0.413201219765E+03    0.40356E-05   -0.16664E-06  2575   0.211E-03    0.340E-03
RMM:  11    -0.413201216438E+03    0.33265E-05   -0.95814E-07  2493   0.158E-03    0.192E-03
RMM:  12    -0.413201210266E+03    0.61718E-05   -0.10938E-06  2491   0.166E-03    0.871E-04
RMM:  13    -0.413201207714E+03    0.25524E-05   -0.40492E-07  2189   0.110E-03    0.504E-04
RMM:  14    -0.413201207136E+03    0.57790E-06   -0.18112E-07  1564   0.766E-04
   37 T=    68. E= -.41286684E+03 F= -.41320121E+03 E0= -.41317999E+03  EK= 0.33437E+00 SP= 0.00E+00 SK= 0.00E+00
       N       E                     dE             d eps       ncg     rms          rms(c)
RMM:   1    -0.413205406213E+03   -0.41985E-02   -0.11254E+01  4307   0.104E+00    0.941E-01
RMM:   2    -0.413206992721E+03   -0.15865E-02   -0.15403E-01  4258   0.133E-01    0.682E-01
RMM:   3    -0.413203871243E+03    0.31215E-02   -0.10343E-02  4716   0.547E-02    0.161E-01
RMM:   4    -0.413231950083E+03   -0.28079E-01   -0.28558E-02  5151   0.141E-01    0.700E-01
RMM:   5    -0.413203564757E+03    0.28385E-01   -0.14482E-02  4808   0.117E-01    0.459E-02
RMM:   6    -0.413203603723E+03   -0.38966E-04   -0.22641E-03  5844   0.451E-02    0.290E-02
RMM:   7    -0.413203613272E+03   -0.95494E-05   -0.33029E-04  5693   0.168E-02    0.167E-02
RMM:   8    -0.413203600593E+03    0.12679E-04   -0.63898E-05  5055   0.837E-03    0.928E-03
RMM:   9    -0.413203597283E+03    0.33102E-05   -0.15226E-05  4253   0.459E-03    0.602E-03
RMM:  10    -0.413203592043E+03    0.52405E-05   -0.21060E-06  2610   0.226E-03    0.364E-03
RMM:  11    -0.413203588136E+03    0.39072E-05   -0.10411E-06  2488   0.166E-03    0.212E-03
RMM:  12    -0.413203579986E+03    0.81494E-05   -0.12434E-06  2498   0.181E-03    0.996E-04
RMM:  13    -0.413203576324E+03    0.36620E-05   -0.47187E-07  2287   0.121E-03    0.627E-04
RMM:  14    -0.413203575989E+03    0.33542E-06   -0.20747E-07  1766   0.811E-04
   38 T=    69. E= -.41286670E+03 F= -.41320358E+03 E0= -.41318240E+03  EK= 0.33688E+00 SP= 0.00E+00 SK= 0.00E+00
       N       E                     dE             d eps       ncg     rms          rms(c)
RMM:   1    -0.413203781154E+03   -0.20483E-03   -0.11224E+01  4307   0.103E+00    0.955E-01
RMM:   2    -0.413209189117E+03   -0.54080E-02   -0.14786E-01  4262   0.125E-01    0.675E-01
RMM:   3    -0.413206758500E+03    0.24306E-02   -0.10903E-02  4910   0.542E-02    0.179E-01
RMM:   4    -0.413249259130E+03   -0.42501E-01   -0.44616E-02  5137   0.176E-01    0.856E-01
RMM:   5    -0.413206068444E+03    0.43191E-01   -0.21661E-02  4802   0.143E-01    0.528E-02
RMM:   6    -0.413206180403E+03   -0.11196E-03   -0.34430E-03  5831   0.549E-02    0.320E-02
RMM:   7    -0.413206188295E+03   -0.78919E-05   -0.39828E-04  5711   0.181E-02    0.166E-02
RMM:   8    -0.413206178120E+03    0.10175E-04   -0.49453E-05  4792   0.693E-03    0.851E-03
RMM:   9    -0.413206173159E+03    0.49612E-05   -0.14763E-05  3936   0.395E-03    0.633E-03
RMM:  10    -0.413206167789E+03    0.53701E-05   -0.28542E-06  2681   0.240E-03    0.405E-03
RMM:  11    -0.413206161157E+03    0.66313E-05   -0.14929E-06  2500   0.199E-03    0.229E-03
RMM:  12    -0.413206149491E+03    0.11666E-04   -0.15074E-06  2509   0.202E-03    0.105E-03
RMM:  13    -0.413206146815E+03    0.26762E-05   -0.44901E-07  2360   0.126E-03    0.649E-04
RMM:  14    -0.413206146582E+03    0.23368E-06   -0.19679E-07  1825   0.813E-04
   39 T=    69. E= -.41286677E+03 F= -.41320615E+03 E0= -.41318501E+03  EK= 0.33938E+00 SP= 0.00E+00 SK= 0.00E+00
       N       E                     dE             d eps       ncg     rms          rms(c)
RMM:   1    -0.413215664131E+03   -0.95173E-02   -0.11307E+01  4309   0.114E+00    0.932E-01
RMM:   2    -0.413212576712E+03    0.30874E-02   -0.15951E-01  4261   0.134E-01    0.681E-01
RMM:   3    -0.413209862935E+03    0.27138E-02   -0.10620E-02  4950   0.567E-02    0.197E-01
RMM:   4    -0.413260261582E+03   -0.50399E-01   -0.54275E-02  5132   0.194E-01    0.930E-01
RMM:   5    -0.413208811073E+03    0.51451E-01   -0.25488E-02  4790   0.156E-01    0.562E-02
RMM:   6    -0.413208967822E+03   -0.15675E-03   -0.40786E-03  5823   0.597E-02    0.328E-02
RMM:   7    -0.413208980022E+03   -0.12200E-04   -0.47019E-04  5804   0.193E-02    0.187E-02
RMM:   8    -0.413208980236E+03   -0.21396E-06   -0.95785E-05  5209   0.940E-03    0.122E-02
RMM:   9    -0.413208969409E+03    0.10827E-04   -0.26885E-05  4679   0.567E-03    0.683E-03
RMM:  10    -0.413208965137E+03    0.42719E-05   -0.42278E-06  2783   0.286E-03    0.419E-03
RMM:  11    -0.413208961436E+03    0.37011E-05   -0.15944E-06  2498   0.207E-03    0.248E-03
RMM:  12    -0.413208954112E+03    0.73244E-05   -0.13984E-06  2499   0.198E-03    0.864E-04
RMM:  13    -0.413208950531E+03    0.35806E-05   -0.59171E-07  2383   0.135E-03    0.632E-04
RMM:  14    -0.413208949782E+03    0.74974E-06   -0.25744E-07  1978   0.902E-04
   40 T=    70. E= -.41286702E+03 F= -.41320895E+03 E0= -.41318785E+03  EK= 0.34193E+00 SP= 0.00E+00 SK= 0.00E+00
       N       E                     dE             d eps       ncg     rms          rms(c)
RMM:   1    -0.413242730474E+03   -0.33780E-01   -0.11673E+01  4309   0.127E+00    0.942E-01
RMM:   2    -0.413214591741E+03    0.28139E-01   -0.19817E-01  4269   0.147E-01    0.696E-01
RMM:   3    -0.413212484858E+03    0.21069E-02   -0.10108E-02  5043   0.596E-02    0.267E-01
RMM:   4    -0.413273588768E+03   -0.61104E-01   -0.69227E-02  5129   0.219E-01    0.103E+00
RMM:   5    -0.413210583281E+03    0.63005E-01   -0.30786E-02  4778   0.174E-01    0.637E-02
RMM:   6    -0.413210795484E+03   -0.21220E-03   -0.50599E-03  5809   0.663E-02    0.346E-02
RMM:   7    -0.413210815771E+03   -0.20287E-04   -0.60534E-04  5868   0.213E-02    0.230E-02
RMM:   8    -0.413210814898E+03    0.87353E-06   -0.13241E-04  5299   0.112E-02    0.140E-02
RMM:   9    -0.413210800905E+03    0.13993E-04   -0.28377E-05  4683   0.620E-03    0.608E-03
RMM:  10    -0.413210796946E+03    0.39590E-05   -0.63267E-06  3037   0.307E-03    0.384E-03
RMM:  11    -0.413210793494E+03    0.34522E-05   -0.15604E-06  2508   0.204E-03    0.226E-03
RMM:  12    -0.413210787513E+03    0.59813E-05   -0.10756E-06  2485   0.175E-03    0.726E-04
RMM:  13    -0.413210784129E+03    0.33841E-05   -0.51508E-07  2367   0.124E-03    0.428E-04
RMM:  14    -0.413210782733E+03    0.13955E-05   -0.25034E-07  1938   0.881E-04    0.301E-04
RMM:  15    -0.413210779925E+03    0.28079E-05   -0.14415E-07  1411   0.718E-04    0.133E-04
RMM:  16    -0.413210776745E+03    0.31804E-05   -0.99759E-08  1174   0.665E-04    0.110E-04
RMM:  17    -0.413210774695E+03    0.20495E-05   -0.66874E-08  1090   0.631E-04    0.705E-05
RMM:  18    -0.413210772009E+03    0.26868E-05   -0.59764E-08  1157   0.632E-04    0.469E-05
RMM:  19    -0.413210770008E+03    0.20008E-05   -0.40814E-08  1016   0.598E-04    0.316E-05
RMM:  20    -0.413210769363E+03    0.64480E-06   -0.22830E-08   844   0.560E-04
   41 T=    70. E= -.41286670E+03 F= -.41321077E+03 E0= -.41318970E+03  EK= 0.34407E+00 SP= 0.00E+00 SK= 0.00E+00
       N       E                     dE             d eps       ncg     rms          rms(c)
RMM:   1    -0.413220046013E+03   -0.92760E-02   -0.11435E+01  4309   0.121E+00    0.968E-01
RMM:   2    -0.413216170840E+03    0.38752E-02   -0.15306E-01  4291   0.137E-01    0.685E-01
RMM:   3    -0.413216828861E+03   -0.65802E-03   -0.13961E-02  5078   0.753E-02    0.296E-01
RMM:   4    -0.413253536090E+03   -0.36707E-01   -0.52575E-02  5092   0.193E-01    0.829E-01
RMM:   5    -0.413213146355E+03    0.40390E-01   -0.17970E-02  4739   0.138E-01    0.586E-02
RMM:   6    -0.413213224994E+03   -0.78639E-04   -0.31485E-03  5765   0.529E-02    0.334E-02
RMM:   7    -0.413213230288E+03   -0.52944E-05   -0.43833E-04  5779   0.189E-02    0.216E-02
RMM:   8    -0.413213226069E+03    0.42194E-05   -0.11602E-04  5196   0.109E-02    0.121E-02
RMM:   9    -0.413213212272E+03    0.13797E-04   -0.19863E-05  4429   0.552E-03    0.498E-03
RMM:  10    -0.413213207213E+03    0.50591E-05   -0.41785E-06  2816   0.262E-03    0.315E-03
RMM:  11    -0.413213201890E+03    0.53228E-05   -0.12013E-06  2491   0.185E-03    0.171E-03
RMM:  12    -0.413213194017E+03    0.78734E-05   -0.76764E-07  2456   0.152E-03    0.638E-04
RMM:  13    -0.413213189725E+03    0.42912E-05   -0.37273E-07  2163   0.106E-03    0.317E-04
RMM:  14    -0.413213187441E+03    0.22849E-05   -0.19665E-07  1665   0.797E-04    0.210E-04
RMM:  15    -0.413213182079E+03    0.53618E-05   -0.13131E-07  1341   0.712E-04    0.131E-04
RMM:  16    -0.413213179447E+03    0.26320E-05   -0.81998E-08  1127   0.650E-04    0.948E-05
RMM:  17    -0.413213176288E+03    0.31587E-05   -0.67829E-08  1158   0.639E-04    0.659E-05
RMM:  18    -0.413213173268E+03    0.30198E-05   -0.56007E-08  1173   0.622E-04    0.411E-05
RMM:  19    -0.413213171198E+03    0.20702E-05   -0.39038E-08  1038   0.584E-04    0.294E-05
RMM:  20    -0.413213170721E+03    0.47720E-06   -0.20037E-08   775   0.539E-04
   42 T=    70. E= -.41286695E+03 F= -.41321317E+03 E0= -.41319213E+03  EK= 0.34622E+00 SP= 0.00E+00 SK= 0.00E+00
       N       E                     dE             d eps       ncg     rms          rms(c)
RMM:   1    -0.413232295332E+03   -0.19124E-01   -0.11467E+01  4310   0.134E+00    0.944E-01
RMM:   2    -0.413218204084E+03    0.14091E-01   -0.16393E-01  4301   0.148E-01    0.685E-01
RMM:   3    -0.413219833442E+03   -0.16294E-02   -0.14333E-02  5088   0.825E-02    0.333E-01
RMM:   4    -0.413253279727E+03   -0.33446E-01   -0.52696E-02  5083   0.194E-01    0.807E-01
RMM:   5    -0.413215077357E+03    0.38202E-01   -0.16569E-02  4718   0.134E-01    0.590E-02
RMM:   6    -0.413215131241E+03   -0.53884E-04   -0.29301E-03  5748   0.512E-02    0.327E-02
RMM:   7    -0.413215134398E+03   -0.31569E-05   -0.41463E-04  5777   0.185E-02    0.218E-02
RMM:   8    -0.413215130178E+03    0.42203E-05   -0.11246E-04  5183   0.108E-02    0.114E-02
RMM:   9    -0.413215118027E+03    0.12151E-04   -0.19567E-05  4419   0.552E-03    0.447E-03
RMM:  10    -0.413215114739E+03    0.32880E-05   -0.38603E-06  2772   0.252E-03    0.280E-03
RMM:  11    -0.413215110531E+03    0.42080E-05   -0.12570E-06  2492   0.184E-03    0.151E-03
RMM:  12    -0.413215105324E+03    0.52072E-05   -0.69987E-07  2434   0.143E-03    0.601E-04
RMM:  13    -0.413215102384E+03    0.29396E-05   -0.34661E-07  2018   0.996E-04    0.276E-04
RMM:  14    -0.413215100056E+03    0.23279E-05   -0.19425E-07  1530   0.779E-04    0.168E-04
RMM:  15    -0.413215095831E+03    0.42255E-05   -0.14185E-07  1290   0.717E-04    0.109E-04
RMM:  16    -0.413215094008E+03    0.18231E-05   -0.90203E-08  1146   0.659E-04    0.796E-05
RMM:  17    -0.413215090982E+03    0.30254E-05   -0.80120E-08  1249   0.657E-04    0.534E-05
RMM:  18    -0.413215088810E+03    0.21723E-05   -0.57025E-08  1109   0.610E-04    0.390E-05
RMM:  19    -0.413215087551E+03    0.12591E-05   -0.33583E-08   887   0.567E-04    0.213E-05
RMM:  20    -0.413215087063E+03    0.48788E-06   -0.20860E-08   761   0.546E-04
   43 T=    71. E= -.41286710E+03 F= -.41321509E+03 E0= -.41319408E+03  EK= 0.34799E+00 SP= 0.00E+00 SK= 0.00E+00
       N       E                     dE             d eps       ncg     rms          rms(c)
RMM:   1    -0.413235259116E+03   -0.20172E-01   -0.11574E+01  4311   0.138E+00    0.946E-01
RMM:   2    -0.413219549102E+03    0.15710E-01   -0.17658E-01  4299   0.165E-01    0.700E-01
RMM:   3    -0.413221986357E+03   -0.24373E-02   -0.15263E-02  5078   0.905E-02    0.368E-01
RMM:   4    -0.413253967484E+03   -0.31981E-01   -0.54566E-02  5066   0.198E-01    0.804E-01
RMM:   5    -0.413216093013E+03    0.37874E-01   -0.16140E-02  4711   0.134E-01    0.602E-02
RMM:   6    -0.413216130709E+03   -0.37696E-04   -0.28425E-03  5718   0.506E-02    0.325E-02
RMM:   7    -0.413216133017E+03   -0.23084E-05   -0.39668E-04  5812   0.183E-02    0.220E-02
RMM:   8    -0.413216129536E+03    0.34815E-05   -0.10777E-04  5176   0.107E-02    0.111E-02
RMM:   9    -0.413216119372E+03    0.10164E-04   -0.20195E-05  4428   0.556E-03    0.425E-03
RMM:  10    -0.413216117199E+03    0.21730E-05   -0.37680E-06  2769   0.247E-03    0.260E-03
RMM:  11    -0.413216114103E+03    0.30955E-05   -0.13964E-06  2513   0.186E-03    0.144E-03
RMM:  12    -0.413216110707E+03    0.33962E-05   -0.65850E-07  2438   0.138E-03    0.613E-04
RMM:  13    -0.413216108518E+03    0.21893E-05   -0.32953E-07  1902   0.955E-04    0.274E-04
RMM:  14    -0.413216106429E+03    0.20890E-05   -0.19725E-07  1482   0.773E-04    0.158E-04
RMM:  15    -0.413216103367E+03    0.30622E-05   -0.15005E-07  1325   0.717E-04    0.996E-05
RMM:  16    -0.413216101671E+03    0.16954E-05   -0.92957E-08  1130   0.655E-04    0.750E-05
RMM:  17    -0.413216098990E+03    0.26809E-05   -0.85290E-08  1232   0.657E-04    0.463E-05
RMM:  18    -0.413216097353E+03    0.16373E-05   -0.56034E-08  1082   0.607E-04    0.415E-05
RMM:  19    -0.413216096340E+03    0.10125E-05   -0.32371E-08   857   0.563E-04    0.228E-05
RMM:  20    -0.413216095966E+03    0.37456E-06   -0.19832E-08   748   0.545E-04
   44 T=    71. E= -.41286688E+03 F= -.41321610E+03 E0= -.41319511E+03  EK= 0.34922E+00 SP= 0.00E+00 SK= 0.00E+00
       N       E                     dE             d eps       ncg     rms          rms(c)
RMM:   1    -0.413234753837E+03   -0.18657E-01   -0.11530E+01  4309   0.146E+00    0.972E-01
RMM:   2    -0.413220079207E+03    0.14675E-01   -0.16765E-01  4326   0.169E-01    0.694E-01
RMM:   3    -0.413227205711E+03   -0.71265E-02   -0.19515E-02  5119   0.108E-01    0.455E-01
RMM:   4    -0.413240179903E+03   -0.12974E-01   -0.43832E-02  5036   0.181E-01    0.634E-01
RMM:   5    -0.413217308152E+03    0.22872E-01   -0.86714E-03  4632   0.107E-01    0.560E-02
RMM:   6    -0.413217283280E+03    0.24872E-04   -0.17382E-03  5569   0.402E-02    0.314E-02
RMM:   7    -0.413217280947E+03    0.23327E-05   -0.28865E-04  5630   0.164E-02    0.210E-02
RMM:   8    -0.413217272250E+03    0.86969E-05   -0.11003E-04  5070   0.108E-02    0.991E-03
RMM:   9    -0.413217259148E+03    0.13102E-04   -0.15187E-05  4247   0.530E-03    0.402E-03
RMM:  10    -0.413217255479E+03    0.36690E-05   -0.25964E-06  2681   0.222E-03    0.234E-03
RMM:  11    -0.413217249248E+03    0.62305E-05   -0.11478E-06  2479   0.175E-03    0.128E-03
RMM:  12    -0.413217243398E+03    0.58504E-05   -0.56620E-07  2407   0.131E-03    0.620E-04
RMM:  13    -0.413217239832E+03    0.35658E-05   -0.26680E-07  1818   0.892E-04    0.294E-04
RMM:  14    -0.413217236343E+03    0.34892E-05   -0.15097E-07  1336   0.715E-04    0.156E-04
RMM:  15    -0.413217231383E+03    0.49596E-05   -0.11984E-07  1247   0.688E-04    0.118E-04
RMM:  16    -0.413217228665E+03    0.27182E-05   -0.77096E-08  1093   0.635E-04    0.993E-05
RMM:  17    -0.413217224149E+03    0.45156E-05   -0.79044E-08  1293   0.649E-04    0.658E-05
RMM:  18    -0.413217221624E+03    0.25257E-05   -0.49949E-08  1074   0.584E-04    0.427E-05
RMM:  19    -0.413217220739E+03    0.88417E-06   -0.27635E-08   821   0.532E-04
   45 T=    71. E= -.41286714E+03 F= -.41321722E+03 E0= -.41319626E+03  EK= 0.35008E+00 SP= 0.00E+00 SK= 0.00E+00
       N       E                     dE             d eps       ncg     rms          rms(c)
RMM:   1    -0.413249925731E+03   -0.32704E-01   -0.11549E+01  4309   0.160E+00    0.953E-01
RMM:   2    -0.413219806273E+03    0.30119E-01   -0.17777E-01  4337   0.184E-01    0.690E-01
RMM:   3    -0.413229016606E+03   -0.92103E-02   -0.20776E-02  5115   0.116E-01    0.504E-01
RMM:   4    -0.413236359038E+03   -0.73424E-02   -0.42438E-02  5025   0.179E-01    0.591E-01
RMM:   5    -0.413216865890E+03    0.19493E-01   -0.73133E-03  4602   0.102E-01    0.558E-02
RMM:   6    -0.413216819687E+03    0.46203E-04   -0.14268E-03  5445   0.372E-02    0.306E-02
RMM:   7    -0.413216816787E+03    0.29007E-05   -0.24579E-04  5631   0.153E-02    0.207E-02
RMM:   8    -0.413216808732E+03    0.80544E-05   -0.11805E-04  5079   0.112E-02    0.998E-03
RMM:   9    -0.413216795275E+03    0.13457E-04   -0.15866E-05  4294   0.548E-03    0.399E-03
RMM:  10    -0.413216792251E+03    0.30246E-05   -0.26923E-06  2691   0.221E-03    0.229E-03
RMM:  11    -0.413216786466E+03    0.57846E-05   -0.12430E-06  2489   0.180E-03    0.127E-03
RMM:  12    -0.413216781842E+03    0.46246E-05   -0.56101E-07  2412   0.131E-03    0.670E-04
RMM:  13    -0.413216778401E+03    0.34405E-05   -0.26275E-07  1787   0.892E-04    0.323E-04
RMM:  14    -0.413216775001E+03    0.34004E-05   -0.14588E-07  1332   0.707E-04    0.168E-04
RMM:  15    -0.413216770955E+03    0.40455E-05   -0.11050E-07  1245   0.673E-04    0.118E-04
RMM:  16    -0.413216768381E+03    0.25742E-05   -0.72104E-08  1076   0.621E-04    0.105E-04
RMM:  17    -0.413216764630E+03    0.37510E-05   -0.67298E-08  1174   0.626E-04    0.626E-05
RMM:  18    -0.413216762022E+03    0.26077E-05   -0.48118E-08  1058   0.586E-04    0.527E-05
RMM:  19    -0.413216761286E+03    0.73605E-06   -0.22380E-08   759   0.527E-04
   46 T=    71. E= -.41286688E+03 F= -.41321676E+03 E0= -.41319582E+03  EK= 0.34988E+00 SP= 0.00E+00 SK= 0.00E+00
       N       E                     dE             d eps       ncg     rms          rms(c)
RMM:   1    -0.413236220803E+03   -0.19459E-01   -0.11408E+01  4311   0.163E+00    0.941E-01
RMM:   2    -0.413219097855E+03    0.17123E-01   -0.18178E-01  4354   0.193E-01    0.702E-01
RMM:   3    -0.413229002791E+03   -0.99049E-02   -0.21790E-02  5113   0.123E-01    0.526E-01
RMM:   4    -0.413236041889E+03   -0.70391E-02   -0.45192E-02  5020   0.186E-01    0.603E-01
RMM:   5    -0.413215563862E+03    0.20478E-01   -0.76097E-03  4602   0.104E-01    0.574E-02
RMM:   6    -0.413215504654E+03    0.59208E-04   -0.14529E-03  5432   0.377E-02    0.305E-02
RMM:   7    -0.413215502210E+03    0.24445E-05   -0.24651E-04  5656   0.153E-02    0.210E-02
RMM:   8    -0.413215493565E+03    0.86449E-05   -0.12157E-04  5108   0.113E-02    0.102E-02
RMM:   9    -0.413215481218E+03    0.12347E-04   -0.17190E-05  4345   0.566E-03    0.404E-03
RMM:  10    -0.413215479207E+03    0.20115E-05   -0.29153E-06  2724   0.226E-03    0.233E-03
RMM:  11    -0.413215475369E+03    0.38381E-05   -0.13705E-06  2496   0.186E-03    0.131E-03
RMM:  12    -0.413215472409E+03    0.29592E-05   -0.59872E-07  2431   0.135E-03    0.709E-04
RMM:  13    -0.413215469836E+03    0.25732E-05   -0.29478E-07  1831   0.935E-04    0.335E-04
RMM:  14    -0.413215467389E+03    0.24472E-05   -0.16764E-07  1389   0.736E-04    0.178E-04
RMM:  15    -0.413215464695E+03    0.26944E-05   -0.12131E-07  1226   0.679E-04    0.107E-04
RMM:  16    -0.413215462705E+03    0.19895E-05   -0.83721E-08  1143   0.635E-04    0.965E-05
RMM:  17    -0.413215460547E+03    0.21583E-05   -0.65561E-08  1104   0.611E-04    0.521E-05
RMM:  18    -0.413215458071E+03    0.24755E-05   -0.57910E-08  1093   0.599E-04    0.457E-05
RMM:  19    -0.413215457627E+03    0.44437E-06   -0.22978E-08   740   0.532E-04
   47 T=    71. E= -.41286685E+03 F= -.41321546E+03 E0= -.41319453E+03  EK= 0.34861E+00 SP= 0.00E+00 SK= 0.00E+00
       N       E                     dE             d eps       ncg     rms          rms(c)
RMM:   1    -0.413246440191E+03   -0.30982E-01   -0.11415E+01  4304   0.176E+00    0.962E-01
RMM:   2    -0.413216060707E+03    0.30379E-01   -0.18186E-01  4407   0.202E-01    0.696E-01
RMM:   3    -0.413233425405E+03   -0.17365E-01   -0.28160E-02  5142   0.143E-01    0.635E-01
RMM:   4    -0.413225333520E+03    0.80919E-02   -0.40899E-02  4982   0.180E-01    0.481E-01
RMM:   5    -0.413213073869E+03    0.12260E-01   -0.47907E-03  4536   0.906E-02    0.572E-02
RMM:   6    -0.413212960973E+03    0.11290E-03   -0.68561E-04  4884   0.299E-02    0.296E-02
RMM:   7    -0.413212947532E+03    0.13441E-04   -0.17082E-04  5897   0.129E-02    0.126E-02
RMM:   8    -0.413212938712E+03    0.88206E-05   -0.47542E-05  5159   0.831E-03    0.837E-03
RMM:   9    -0.413212934647E+03    0.40651E-05   -0.10915E-05  3829   0.404E-03    0.363E-03
RMM:  10    -0.413212931260E+03    0.33871E-05   -0.19722E-06  2540   0.224E-03    0.232E-03
RMM:  11    -0.413212925878E+03    0.53818E-05   -0.14808E-06  2465   0.200E-03    0.152E-03
RMM:  12    -0.413212922166E+03    0.37121E-05   -0.54415E-07  2380   0.137E-03    0.876E-04
RMM:  13    -0.413212918350E+03    0.38160E-05   -0.25221E-07  1917   0.904E-04    0.457E-04
RMM:  14    -0.413212912730E+03    0.56194E-05   -0.21305E-07  1756   0.819E-04    0.434E-04
RMM:  15    -0.413212908937E+03    0.37934E-05   -0.96953E-08  1013   0.609E-04    0.167E-04
RMM:  16    -0.413212906960E+03    0.19767E-05   -0.61476E-08   942   0.580E-04    0.893E-05
RMM:  17    -0.413212903060E+03    0.38999E-05   -0.71113E-08  1150   0.618E-04    0.121E-04
RMM:  18    -0.413212902038E+03    0.10224E-05   -0.27711E-08   740   0.530E-04    0.788E-05
RMM:  19    -0.413212901143E+03    0.89470E-06   -0.21471E-08   734   0.522E-04
   48 T=    70. E= -.41286712E+03 F= -.41321290E+03 E0= -.41319198E+03  EK= 0.34578E+00 SP= 0.00E+00 SK= 0.00E+00
       N       E                     dE             d eps       ncg     rms          rms(c)
RMM:   1    -0.413245497946E+03   -0.32596E-01   -0.11190E+01  4304   0.187E+00    0.951E-01
RMM:   2    -0.413210597669E+03    0.34900E-01   -0.17976E-01  4465   0.212E-01    0.685E-01
RMM:   3    -0.413234887506E+03   -0.24290E-01   -0.33878E-02  5155   0.160E-01    0.723E-01
RMM:   4    -0.413215999804E+03    0.18888E-01   -0.39814E-02  4958   0.181E-01    0.407E-01
RMM:   5    -0.413207819665E+03    0.81801E-02   -0.43162E-03  4607   0.882E-02    0.632E-02
RMM:   6    -0.413207638298E+03    0.18137E-03   -0.46668E-04  4665   0.291E-02    0.322E-02
RMM:   7    -0.413207646236E+03   -0.79381E-05   -0.27700E-04  5764   0.174E-02    0.238E-02
RMM:   8    -0.413207613705E+03    0.32531E-04   -0.94395E-05  5007   0.110E-02    0.925E-03
RMM:   9    -0.413207606626E+03    0.70790E-05   -0.18480E-05  4689   0.548E-03    0.464E-03
RMM:  10    -0.413207602382E+03    0.42434E-05   -0.22612E-06  2624   0.238E-03    0.257E-03
RMM:  11    -0.413207596275E+03    0.61074E-05   -0.12508E-06  2494   0.185E-03    0.177E-03
RMM:  12    -0.413207592540E+03    0.37349E-05   -0.40227E-07  2385   0.118E-03    0.907E-04
RMM:  13    -0.413207587779E+03    0.47605E-05   -0.27737E-07  2001   0.889E-04    0.423E-04
RMM:  14    -0.413207582667E+03    0.51122E-05   -0.20276E-07  1719   0.769E-04    0.343E-04
RMM:  15    -0.413207577998E+03    0.46697E-05   -0.11822E-07  1151   0.639E-04    0.137E-04
RMM:  16    -0.413207575388E+03    0.26093E-05   -0.71463E-08  1054   0.597E-04    0.876E-05
RMM:  17    -0.413207571745E+03    0.36429E-05   -0.69497E-08  1149   0.608E-04    0.729E-05
RMM:  18    -0.413207570488E+03    0.12577E-05   -0.35352E-08   893   0.547E-04    0.573E-05
RMM:  19    -0.413207568376E+03    0.21119E-05   -0.36223E-08  1031   0.560E-04    0.327E-05
RMM:  20    -0.413207567732E+03    0.64351E-06   -0.18785E-08   768   0.500E-04
   49 T=    69. E= -.41286682E+03 F= -.41320757E+03 E0= -.41318666E+03  EK= 0.34074E+00 SP= 0.00E+00 SK= 0.00E+00
       N       E                     dE             d eps       ncg     rms          rms(c)
RMM:   1    -0.413224320264E+03   -0.16752E-01   -0.10807E+01  4304   0.190E+00    0.920E-01
RMM:   2    -0.413204585542E+03    0.19735E-01   -0.17715E-01  4490   0.220E-01    0.687E-01
RMM:   3    -0.413229406078E+03   -0.24821E-01   -0.34540E-02  5157   0.164E-01    0.738E-01
RMM:   4    -0.413209476197E+03    0.19930E-01   -0.41120E-02  4953   0.185E-01    0.406E-01
RMM:   5    -0.413201117984E+03    0.83582E-02   -0.46541E-03  4658   0.918E-02    0.667E-02
RMM:   6    -0.413200901424E+03    0.21656E-03   -0.48663E-04  4650   0.305E-02    0.326E-02
RMM:   7    -0.413200907740E+03   -0.63162E-05   -0.27553E-04  5765   0.175E-02    0.239E-02
RMM:   8    -0.413200876759E+03    0.30980E-04   -0.90285E-05  5037   0.107E-02    0.994E-03
RMM:   9    -0.413200871077E+03    0.56823E-05   -0.20167E-05  4803   0.570E-03    0.462E-03
RMM:  10    -0.413200867784E+03    0.32933E-05   -0.26433E-06  2659   0.248E-03    0.266E-03
RMM:  11    -0.413200863494E+03    0.42899E-05   -0.11726E-06  2490   0.183E-03    0.179E-03
RMM:  12    -0.413200860717E+03    0.27768E-05   -0.40545E-07  2394   0.117E-03    0.925E-04
RMM:  13    -0.413200857274E+03    0.34426E-05   -0.32191E-07  2108   0.926E-04    0.445E-04
RMM:  14    -0.413200853858E+03    0.34162E-05   -0.20742E-07  1598   0.759E-04    0.315E-04
RMM:  15    -0.413200850413E+03    0.34450E-05   -0.14232E-07  1166   0.665E-04    0.139E-04
RMM:  16    -0.413200848529E+03    0.18840E-05   -0.84791E-08  1082   0.615E-04    0.850E-05
RMM:  17    -0.413200845717E+03    0.28125E-05   -0.90581E-08  1222   0.632E-04    0.779E-05
RMM:  18    -0.413200844848E+03    0.86840E-06   -0.43186E-08   950   0.554E-04
[...]
  137 T=    60. E= -.41286721E+03 F= -.41316143E+03 E0= -.41314070E+03  EK= 0.29422E+00 SP= 0.00E+00 SK= 0.00E+00
       N       E                     dE             d eps       ncg     rms          rms(c)
RMM:   1    -0.413153928640E+03    0.75043E-02   -0.99128E+00  4265   0.820E-01    0.847E-01
RMM:   2    -0.413162350508E+03   -0.84219E-02   -0.11710E-01  4296   0.952E-02    0.594E-01
RMM:   3    -0.413161845183E+03    0.50532E-03   -0.66884E-03  4974   0.406E-02    0.156E-01
RMM:   4    -0.413192311635E+03   -0.30466E-01   -0.31979E-02  5151   0.149E-01    0.728E-01
RMM:   5    -0.413161389516E+03    0.30922E-01   -0.15314E-02  4812   0.122E-01    0.463E-02
RMM:   6    -0.413161423672E+03   -0.34156E-04   -0.25052E-03  5730   0.472E-02    0.200E-02
RMM:   7    -0.413161453217E+03   -0.29545E-04   -0.30580E-04  5886   0.144E-02    0.133E-02
RMM:   8    -0.413161461792E+03   -0.85747E-05   -0.43451E-05  4924   0.640E-03    0.717E-03
RMM:   9    -0.413161465431E+03   -0.36386E-05   -0.78820E-06  3159   0.320E-03    0.338E-03
RMM:  10    -0.413161469768E+03   -0.43375E-05   -0.23347E-06  2569   0.203E-03    0.222E-03
RMM:  11    -0.413161473469E+03   -0.37006E-05   -0.12313E-06  2492   0.157E-03    0.113E-03
RMM:  12    -0.413161475570E+03   -0.21013E-05   -0.86342E-07  2370   0.125E-03    0.379E-04
RMM:  13    -0.413161476009E+03   -0.43880E-06   -0.39950E-07  1880   0.930E-04
  138 T=    60. E= -.41286743E+03 F= -.41316148E+03 E0= -.41314076E+03  EK= 0.29405E+00 SP= 0.00E+00 SK= 0.00E+00
       N       E                     dE             d eps       ncg     rms          rms(c)
RMM:   1    -0.413154212826E+03    0.72627E-02   -0.96139E+00  4265   0.812E-01    0.831E-01
RMM:   2    -0.413162487073E+03   -0.82742E-02   -0.11502E-01  4289   0.953E-02    0.592E-01
RMM:   3    -0.413161362429E+03    0.11246E-02   -0.68534E-03  4853   0.369E-02    0.133E-01
RMM:   4    -0.413177794326E+03   -0.16432E-01   -0.17078E-02  5157   0.109E-01    0.538E-01
RMM:   5    -0.413161183842E+03    0.16610E-01   -0.83861E-03  4820   0.897E-02    0.392E-02
RMM:   6    -0.413161187977E+03   -0.41348E-05   -0.14080E-03  5695   0.360E-02    0.214E-02
RMM:   7    -0.413161209273E+03   -0.21296E-04   -0.19194E-04  5715   0.118E-02    0.115E-02
RMM:   8    -0.413161219687E+03   -0.10414E-04   -0.35949E-05  4846   0.616E-03    0.614E-03
RMM:   9    -0.413161222943E+03   -0.32559E-05   -0.50931E-06  2960   0.281E-03    0.307E-03
RMM:  10    -0.413161228375E+03   -0.54319E-05   -0.18916E-06  2542   0.197E-03    0.208E-03
RMM:  11    -0.413161233383E+03   -0.50079E-05   -0.12493E-06  2498   0.157E-03    0.102E-03
RMM:  12    -0.413161236445E+03   -0.30624E-05   -0.84735E-07  2381   0.123E-03    0.436E-04
RMM:  13    -0.413161237485E+03   -0.10402E-05   -0.44487E-07  1799   0.907E-04    0.287E-04
RMM:  14    -0.413161237863E+03   -0.37816E-06   -0.38179E-07  1591   0.841E-04
  139 T=    60. E= -.41286732E+03 F= -.41316124E+03 E0= -.41314053E+03  EK= 0.29392E+00 SP= 0.00E+00 SK= 0.00E+00
       N       E                     dE             d eps       ncg     rms          rms(c)
RMM:   1    -0.413155526826E+03    0.57107E-02   -0.93726E+00  4264   0.804E-01    0.824E-01
RMM:   2    -0.413163749390E+03   -0.82226E-02   -0.11380E-01  4295   0.944E-02    0.603E-01
RMM:   3    -0.413161761966E+03    0.19874E-02   -0.79248E-03  4830   0.389E-02    0.112E-01
RMM:   4    -0.413176619147E+03   -0.14857E-01   -0.15508E-02  5153   0.104E-01    0.512E-01
RMM:   5    -0.413161622375E+03    0.14997E-01   -0.75981E-03  4830   0.853E-02    0.394E-02
RMM:   6    -0.413161621674E+03    0.70142E-06   -0.12499E-03  5688   0.344E-02    0.231E-02
RMM:   7    -0.413161647349E+03   -0.25675E-04   -0.19140E-04  5697   0.119E-02    0.113E-02
RMM:   8    -0.413161660906E+03   -0.13557E-04   -0.36384E-05  4882   0.631E-03    0.624E-03
RMM:   9    -0.413161665260E+03   -0.43544E-05   -0.47095E-06  2920   0.274E-03    0.322E-03
RMM:  10    -0.413161673730E+03   -0.84691E-05   -0.18829E-06  2548   0.199E-03    0.211E-03
RMM:  11    -0.413161681870E+03   -0.81408E-05   -0.12665E-06  2505   0.158E-03    0.101E-03
RMM:  12    -0.413161687547E+03   -0.56769E-05   -0.87687E-07  2380   0.123E-03    0.473E-04
RMM:  13    -0.413161690307E+03   -0.27598E-05   -0.50212E-07  1837   0.929E-04    0.299E-04
RMM:  14    -0.413161692005E+03   -0.16978E-05   -0.38521E-07  1572   0.836E-04    0.182E-04
RMM:  15    -0.413161692895E+03   -0.88992E-06   -0.36260E-07  1768   0.818E-04
  140 T=    60. E= -.41286726E+03 F= -.41316169E+03 E0= -.41314100E+03  EK= 0.29443E+00 SP= 0.00E+00 SK= 0.00E+00
       N       E                     dE             d eps       ncg     rms          rms(c)
RMM:   1    -0.413157165584E+03    0.45264E-02   -0.90577E+00  4264   0.801E-01    0.840E-01
RMM:   2    -0.413163883121E+03   -0.67175E-02   -0.10979E-01  4303   0.935E-02    0.602E-01
RMM:   3    -0.413161797819E+03    0.20853E-02   -0.91585E-03  4795   0.379E-02    0.104E-01
RMM:   4    -0.413171324988E+03   -0.95272E-02   -0.10104E-02  5171   0.845E-02    0.411E-01
RMM:   5    -0.413161742281E+03    0.95827E-02   -0.48711E-03  4833   0.688E-02    0.399E-02
RMM:   6    -0.413161737178E+03    0.51026E-05   -0.89715E-04  5649   0.296E-02    0.264E-02
RMM:   7    -0.413161750154E+03   -0.12976E-04   -0.18780E-04  5609   0.119E-02    0.119E-02
RMM:   8    -0.413161754292E+03   -0.41377E-05   -0.32078E-05  4867   0.623E-03    0.651E-03
RMM:   9    -0.413161755726E+03   -0.14345E-05   -0.32749E-06  2770   0.237E-03    0.348E-03
RMM:  10    -0.413161760602E+03   -0.48758E-05   -0.16128E-06  2531   0.190E-03    0.202E-03
RMM:  11    -0.413161764253E+03   -0.36510E-05   -0.98199E-07  2470   0.144E-03    0.942E-04
RMM:  12    -0.413161766711E+03   -0.24582E-05   -0.73506E-07  2254   0.116E-03    0.472E-04
RMM:  13    -0.413161767865E+03   -0.11532E-05   -0.53727E-07  2002   0.956E-04    0.275E-04
RMM:  14    -0.413161768079E+03   -0.21469E-06   -0.28413E-07  1433   0.770E-04
  141 T=    60. E= -.41286741E+03 F= -.41316177E+03 E0= -.41314108E+03  EK= 0.29436E+00 SP= 0.00E+00 SK= 0.00E+00
       N       E                     dE             d eps       ncg     rms          rms(c)
RMM:   1    -0.413157967415E+03    0.38004E-02   -0.86417E+00  4264   0.780E-01    0.833E-01
RMM:   2    -0.413164054539E+03   -0.60871E-02   -0.10501E-01  4304   0.893E-02    0.599E-01
RMM:   3    -0.413161317590E+03    0.27369E-02   -0.10642E-02  4664   0.367E-02    0.824E-02
RMM:   4    -0.413162611891E+03   -0.12943E-02   -0.18962E-03  5188   0.363E-02    0.154E-01
RMM:   5    -0.413161344400E+03    0.12675E-02   -0.73405E-04  4858   0.273E-02    0.389E-02
RMM:   6    -0.413161337095E+03    0.73055E-05   -0.29265E-04  5363   0.178E-02    0.275E-02
RMM:   7    -0.413161340998E+03   -0.39030E-05   -0.16211E-04  5131   0.103E-02    0.148E-02
RMM:   8    -0.413161338017E+03    0.29806E-05   -0.15965E-05  4244   0.496E-03    0.712E-03
RMM:   9    -0.413161339612E+03   -0.15946E-05   -0.43163E-06  2589   0.217E-03    0.282E-03
RMM:  10    -0.413161344399E+03   -0.47874E-05   -0.16345E-06  2516   0.179E-03    0.138E-03
RMM:  11    -0.413161348355E+03   -0.39560E-05   -0.12754E-06  2472   0.151E-03    0.659E-04
RMM:  12    -0.413161349814E+03   -0.14587E-05   -0.60351E-07  2073   0.107E-03    0.421E-04
RMM:  13    -0.413161350379E+03   -0.56551E-06   -0.41358E-07  1811   0.884E-04
  142 T=    60. E= -.41286722E+03 F= -.41316135E+03 E0= -.41314068E+03  EK= 0.29413E+00 SP= 0.00E+00 SK= 0.00E+00
       N       E                     dE             d eps       ncg     rms          rms(c)
RMM:   1    -0.413159996958E+03    0.13529E-02   -0.82885E+00  4264   0.767E-01    0.823E-01
RMM:   2    -0.413165645189E+03   -0.56482E-02   -0.10190E-01  4308   0.872E-02    0.607E-01
RMM:   3    -0.413162091586E+03    0.35536E-02   -0.13503E-02  4657   0.378E-02    0.524E-02
RMM:   4    -0.413162170904E+03   -0.79318E-04   -0.49540E-04  5145   0.193E-02    0.478E-02
RMM:   5    -0.413162201459E+03   -0.30555E-04   -0.19608E-04  4975   0.142E-02    0.529E-02
RMM:   6    -0.413162123000E+03    0.78459E-04   -0.21018E-04  5198   0.146E-02    0.286E-02
RMM:   7    -0.413162133195E+03   -0.10195E-04   -0.16983E-04  4854   0.104E-02    0.157E-02
RMM:   8    -0.413162130403E+03    0.27919E-05   -0.11763E-05  3746   0.428E-03    0.743E-03
RMM:   9    -0.413162133488E+03   -0.30841E-05   -0.55634E-06  2564   0.232E-03    0.243E-03
RMM:  10    -0.413162144906E+03   -0.11419E-04   -0.22358E-06  2504   0.199E-03    0.931E-04
RMM:  11    -0.413162153307E+03   -0.84009E-05   -0.13508E-06  2461   0.152E-03    0.539E-04
RMM:  12    -0.413162155847E+03   -0.25402E-05   -0.48030E-07  2039   0.100E-03    0.485E-04
RMM:  13    -0.413162159116E+03   -0.32687E-05   -0.57204E-07  1766   0.911E-04    0.420E-04
RMM:  14    -0.413162160975E+03   -0.18594E-05   -0.50076E-07  1633   0.825E-04    0.231E-04
RMM:  15    -0.413162161021E+03   -0.45722E-07   -0.15484E-07  1168   0.612E-04
  143 T=    60. E= -.41286732E+03 F= -.41316216E+03 E0= -.41314150E+03  EK= 0.29484E+00 SP= 0.00E+00 SK= 0.00E+00
       N       E                     dE             d eps       ncg     rms          rms(c)
RMM:   1    -0.413161967457E+03    0.19352E-03   -0.79016E+00  4264   0.754E-01    0.837E-01
RMM:   2    -0.413166056131E+03   -0.40887E-02   -0.97388E-02  4310   0.861E-02    0.611E-01
RMM:   3    -0.413162276510E+03    0.37796E-02   -0.16247E-02  4599   0.401E-02    0.533E-02
RMM:   4    -0.413162482084E+03   -0.20557E-03   -0.56291E-04  5193   0.220E-02    0.729E-02
RMM:   5    -0.413162295216E+03    0.18687E-03   -0.23455E-04  4927   0.157E-02    0.457E-02
RMM:   6    -0.413162274047E+03    0.21169E-04   -0.28809E-04  5212   0.172E-02    0.295E-02
RMM:   7    -0.413162271692E+03    0.23554E-05   -0.16959E-04  4705   0.107E-02    0.164E-02
RMM:   8    -0.413162268477E+03    0.32147E-05   -0.12415E-05  3723   0.417E-03    0.756E-03
RMM:   9    -0.413162271384E+03   -0.29067E-05   -0.67585E-06  2558   0.248E-03    0.213E-03
RMM:  10    -0.413162279009E+03   -0.76253E-05   -0.22807E-06  2518   0.210E-03    0.102E-03
RMM:  11    -0.413162284008E+03   -0.49989E-05   -0.12332E-06  2451   0.157E-03    0.647E-04
RMM:  12    -0.413162285940E+03   -0.19320E-05   -0.49618E-07  2085   0.104E-03    0.457E-04
RMM:  13    -0.413162287728E+03   -0.17884E-05   -0.48119E-07  1788   0.887E-04    0.480E-04
RMM:  14    -0.413162288545E+03   -0.81685E-06   -0.41252E-07  1606   0.798E-04
  144 T=    60. E= -.41286739E+03 F= -.41316229E+03 E0= -.41314163E+03  EK= 0.29490E+00 SP= 0.00E+00 SK= 0.00E+00
       N       E                     dE             d eps       ncg     rms          rms(c)
RMM:   1    -0.413163033599E+03   -0.74587E-03   -0.74605E+00  4264   0.736E-01    0.841E-01
RMM:   2    -0.413165893999E+03   -0.28604E-02   -0.92870E-02  4298   0.864E-02    0.609E-01
RMM:   3    -0.413161816739E+03    0.40773E-02   -0.18940E-02  4614   0.436E-02    0.626E-02
RMM:   4    -0.413163508851E+03   -0.16921E-02   -0.20421E-03  5179   0.403E-02    0.182E-01
RMM:   5    -0.413161733020E+03    0.17758E-02   -0.97754E-04  4842   0.313E-02    0.411E-02
RMM:   6    -0.413161745113E+03   -0.12094E-04   -0.43459E-04  5373   0.212E-02    0.309E-02
RMM:   7    -0.413161734830E+03    0.10283E-04   -0.17875E-04  4954   0.118E-02    0.163E-02
RMM:   8    -0.413161732537E+03    0.22936E-05   -0.19948E-05  4402   0.486E-03    0.689E-03
RMM:   9    -0.413161734770E+03   -0.22340E-05   -0.54185E-06  2610   0.245E-03    0.256E-03
RMM:  10    -0.413161738453E+03   -0.36828E-05   -0.16282E-06  2510   0.187E-03    0.147E-03
RMM:  11    -0.413161741320E+03   -0.28669E-05   -0.11411E-06  2471   0.150E-03    0.824E-04
RMM:  12    -0.413161742567E+03   -0.12463E-05   -0.64565E-07  2220   0.112E-03    0.347E-04
RMM:  13    -0.413161743023E+03   -0.45665E-06   -0.45750E-07  1902   0.915E-04
  145 T=    60. E= -.41286721E+03 F= -.41316174E+03 E0= -.41314110E+03  EK= 0.29453E+00 SP= 0.00E+00 SK= 0.00E+00
       N       E                     dE             d eps       ncg     rms          rms(c)
RMM:   1    -0.413165062272E+03   -0.33197E-02   -0.70761E+00  4264   0.723E-01    0.830E-01
RMM:   2    -0.413167440309E+03   -0.23780E-02   -0.88722E-02  4300   0.851E-02    0.612E-01
RMM:   3    -0.413162872277E+03    0.45680E-02   -0.24264E-02  4545   0.476E-02    0.100E-01
RMM:   4    -0.413163032612E+03   -0.16034E-03   -0.85247E-04  5073   0.297E-02    0.966E-02
RMM:   5    -0.413162610318E+03    0.42229E-03   -0.30687E-04  4884   0.181E-02    0.416E-02
RMM:   6    -0.413162619014E+03   -0.86961E-05   -0.32058E-04  5211   0.182E-02    0.295E-02
RMM:   7    -0.413162620758E+03   -0.17439E-05   -0.15495E-04  4650   0.112E-02    0.162E-02
RMM:   8    -0.413162619374E+03    0.13847E-05   -0.15741E-05  3955   0.430E-03    0.655E-03
RMM:   9    -0.413162624886E+03   -0.55125E-05   -0.77041E-06  2566   0.256E-03    0.225E-03
RMM:  10    -0.413162633805E+03   -0.89183E-05   -0.19472E-06  2502   0.193E-03    0.104E-03
RMM:  11    -0.413162640254E+03   -0.64493E-05   -0.11572E-06  2437   0.144E-03    0.633E-04
RMM:  12    -0.413162643666E+03   -0.34119E-05   -0.53633E-07  2051   0.101E-03    0.392E-04
RMM:  13    -0.413162646342E+03   -0.26768E-05   -0.44635E-07  1677   0.844E-04    0.394E-04
RMM:  14    -0.413162648017E+03   -0.16749E-05   -0.42778E-07  1657   0.810E-04    0.164E-04
RMM:  15    -0.413162648551E+03   -0.53392E-06   -0.24023E-07  1373   0.688E-04
  146 T=    60. E= -.41286742E+03 F= -.41316265E+03 E0= -.41314201E+03  EK= 0.29523E+00 SP= 0.00E+00 SK= 0.00E+00
       N       E                     dE             d eps       ncg     rms          rms(c)
RMM:   1    -0.413167042332E+03   -0.43943E-02   -0.67464E+00  4264   0.707E-01    0.843E-01
RMM:   2    -0.413168200321E+03   -0.11580E-02   -0.84965E-02  4312   0.824E-02    0.618E-01
RMM:   3    -0.413163367323E+03    0.48330E-02   -0.29271E-02  4758   0.515E-02    0.137E-01
RMM:   4    -0.413168167458E+03   -0.48001E-02   -0.60393E-03  5133   0.677E-02    0.310E-01
RMM:   5    -0.413162831014E+03    0.53364E-02   -0.26802E-03  4828   0.516E-02    0.412E-02
RMM:   6    -0.413162841615E+03   -0.10601E-04   -0.66095E-04  5500   0.259E-02    0.297E-02
RMM:   7    -0.413162850047E+03   -0.84326E-05   -0.18725E-04  5269   0.125E-02    0.156E-02
RMM:   8    -0.413162852531E+03   -0.24840E-05   -0.24749E-05  4671   0.541E-03    0.607E-03
RMM:   9    -0.413162856466E+03   -0.39343E-05   -0.41770E-06  2714   0.249E-03    0.318E-03
RMM:  10    -0.413162863915E+03   -0.74492E-05   -0.15483E-06  2514   0.183E-03    0.168E-03
RMM:  11    -0.413162870001E+03   -0.60859E-05   -0.10309E-06  2465   0.143E-03    0.923E-04
RMM:  12    -0.413162874254E+03   -0.42533E-05   -0.69823E-07  2253   0.115E-03    0.429E-04
RMM:  13    -0.413162876684E+03   -0.24298E-05   -0.41654E-07  1881   0.904E-04    0.295E-04
RMM:  14    -0.413162878449E+03   -0.17649E-05   -0.34494E-07  1529   0.801E-04    0.230E-04
RMM:  15    -0.413162879631E+03   -0.11825E-05   -0.31808E-07  1551   0.778E-04    0.117E-04
RMM:  16    -0.413162880004E+03   -0.37311E-06   -0.18946E-07  1299   0.675E-04
  147 T=    60. E= -.41286721E+03 F= -.41316288E+03 E0= -.41314225E+03  EK= 0.29567E+00 SP= 0.00E+00 SK= 0.00E+00
       N       E                     dE             d eps       ncg     rms          rms(c)
RMM:   1    -0.413168602322E+03   -0.57227E-02   -0.63678E+00  4264   0.691E-01    0.856E-01
RMM:   2    -0.413168251843E+03    0.35048E-03   -0.81179E-02  4319   0.801E-02    0.617E-01
RMM:   3    -0.413163290258E+03    0.49616E-02   -0.31822E-02  4828   0.520E-02    0.142E-01
RMM:   4    -0.413170315219E+03   -0.70250E-02   -0.84683E-03  5136   0.789E-02    0.369E-01
RMM:   5    -0.413162672897E+03    0.76423E-02   -0.38220E-03  4828   0.612E-02    0.423E-02
RMM:   6    -0.413162683701E+03   -0.10804E-04   -0.83317E-04  5557   0.287E-02    0.303E-02
RMM:   7    -0.413162689709E+03   -0.60079E-05   -0.20156E-04  5387   0.132E-02    0.161E-02
RMM:   8    -0.413162690289E+03   -0.58017E-06   -0.27873E-05  4759   0.565E-03    0.612E-03
RMM:   9    -0.413162692428E+03   -0.21389E-05   -0.44791E-06  2818   0.259E-03    0.341E-03
RMM:  10    -0.413162696144E+03   -0.37164E-05   -0.16184E-06  2511   0.186E-03    0.182E-03
RMM:  11    -0.413162698667E+03   -0.25228E-05   -0.10137E-06  2474   0.144E-03    0.101E-03
RMM:  12    -0.413162700371E+03   -0.17042E-05   -0.75463E-07  2314   0.119E-03    0.489E-04
RMM:  13    -0.413162701040E+03   -0.66886E-06   -0.40699E-07  1934   0.913E-04
  148 T=    60. E= -.41286732E+03 F= -.41316270E+03 E0= -.41314207E+03  EK= 0.29538E+00 SP= 0.00E+00 SK= 0.00E+00
       N       E                     dE             d eps       ncg     rms          rms(c)
RMM:   1    -0.413169647458E+03   -0.69471E-02   -0.60578E+00  4264   0.680E-01    0.844E-01
RMM:   2    -0.413168789871E+03    0.85759E-03   -0.77543E-02  4329   0.784E-02    0.615E-01
RMM:   3    -0.413163813840E+03    0.49760E-02   -0.37467E-02  4733   0.541E-02    0.183E-01
RMM:   4    -0.413165869564E+03   -0.20557E-02   -0.43497E-03  5134   0.557E-02    0.231E-01
RMM:   5    -0.413162962304E+03    0.29073E-02   -0.14925E-03  4826   0.394E-02    0.386E-02
RMM:   6    -0.413162973620E+03   -0.11316E-04   -0.46107E-04  5418   0.219E-02    0.280E-02
RMM:   7    -0.413162985261E+03   -0.11641E-04   -0.14607E-04  5056   0.114E-02    0.153E-02
RMM:   8    -0.413162987234E+03   -0.19729E-05   -0.20655E-05  4310   0.486E-03    0.520E-03
RMM:   9    -0.413162991837E+03   -0.46032E-05   -0.42071E-06  2660   0.243E-03    0.286E-03
RMM:  10    -0.413162998906E+03   -0.70690E-05   -0.15334E-06  2517   0.173E-03    0.144E-03
RMM:  11    -0.413163004868E+03   -0.59621E-05   -0.10877E-06  2419   0.136E-03    0.766E-04
RMM:  12    -0.413163008700E+03   -0.38321E-05   -0.63307E-07  2115   0.105E-03    0.357E-04
RMM:  13    -0.413163011032E+03   -0.23323E-05   -0.40729E-07  1710   0.863E-04    0.266E-04
RMM:  14    -0.413163013007E+03   -0.19752E-05   -0.47984E-07  1725   0.858E-04    0.215E-04
RMM:  15    -0.413163013799E+03   -0.79123E-06   -0.32017E-07  1459   0.741E-04
  149 T=    60. E= -.41286728E+03 F= -.41316301E+03 E0= -.41314239E+03  EK= 0.29573E+00 SP= 0.00E+00 SK= 0.00E+00
       N       E                     dE             d eps       ncg     rms          rms(c)
RMM:   1    -0.413171178395E+03   -0.81654E-02   -0.58715E+00  4264   0.671E-01    0.853E-01
RMM:   2    -0.413169477873E+03    0.17005E-02   -0.75290E-02  4320   0.787E-02    0.622E-01
RMM:   3    -0.413164812059E+03    0.46658E-02   -0.43230E-02  4895   0.617E-02    0.232E-01
RMM:   4    -0.413176032448E+03   -0.11220E-01   -0.15098E-02  5126   0.103E-01    0.473E-01
RMM:   5    -0.413163340337E+03    0.12692E-01   -0.62902E-03  4816   0.794E-02    0.431E-02
RMM:   6    -0.413163353869E+03   -0.13532E-04   -0.11360E-03  5628   0.327E-02    0.271E-02
RMM:   7    -0.413163387273E+03   -0.33404E-04   -0.21578E-04  5633   0.128E-02    0.155E-02
RMM:   8    -0.413163397004E+03   -0.97307E-05   -0.29473E-05  4590   0.576E-03    0.555E-03
RMM:   9    -0.413163402589E+03   -0.55850E-05   -0.47553E-06  2897   0.268E-03    0.355E-03
RMM:  10    -0.413163411077E+03   -0.84878E-05   -0.15855E-06  2515   0.183E-03    0.201E-03
RMM:  11    -0.413163417898E+03   -0.68213E-05   -0.10728E-06  2480   0.140E-03    0.104E-03
RMM:  12    -0.413163424379E+03   -0.64804E-05   -0.88958E-07  2343   0.121E-03    0.546E-04
RMM:  13    -0.413163426787E+03   -0.24078E-05   -0.35386E-07  1770   0.878E-04    0.328E-04
RMM:  14    -0.413163428983E+03   -0.21961E-05   -0.29599E-07  1534   0.804E-04    0.212E-04
RMM:  15    -0.413163431305E+03   -0.23226E-05   -0.38574E-07  1638   0.815E-04    0.178E-04
RMM:  16    -0.413163432160E+03   -0.85511E-06   -0.19756E-07  1285   0.681E-04
  150 T=    60. E= -.41286716E+03 F= -.41316343E+03 E0= -.41314281E+03  EK= 0.29627E+00 SP= 0.00E+00 SK= 0.00E+00
