       N       E                     dE             d eps       ncg     rms          rms(c)
RMM:   1     0.220121642182E+04    0.22012E+04   -0.52440E+04  2132   0.654E+02
RMM:   2     0.705289691186E+03   -0.14959E+04   -0.16260E+04  2132   0.177E+02
RMM:   3     0.137410083090E+03   -0.56788E+03   -0.65686E+03  2132   0.117E+02
RMM:   4    -0.159212310965E+03   -0.29662E+03   -0.27835E+03  2132   0.936E+01
RMM:   5    -0.287545284993E+03   -0.12833E+03   -0.11462E+03  2132   0.595E+01
RMM:   6    -0.349780083876E+03   -0.62235E+02   -0.55111E+02  2132   0.423E+01
RMM:   7    -0.382712525633E+03   -0.32932E+02   -0.30418E+02  2132   0.293E+01
RMM:   8    -0.404187757402E+03   -0.21475E+02   -0.18448E+02  2132   0.233E+01
RMM:   9    -0.435976884976E+03   -0.31789E+02   -0.30733E+02  6096   0.173E+01
RMM:  10    -0.441326251761E+03   -0.53494E+01   -0.63341E+01  6399   0.540E+00
RMM:  11    -0.442516392119E+03   -0.11901E+01   -0.10887E+01  6212   0.172E+00
RMM:  12    -0.442889941619E+03   -0.37355E+00   -0.27320E+00  6362   0.602E-01    0.134E+02
RMM:  13    -0.425595071283E+03    0.17295E+02   -0.80782E+01  4671   0.119E+01    0.712E+01
RMM:  14    -0.499252248470E+03   -0.73657E+02   -0.53814E+02  5420   0.232E+01    0.307E+01
RMM:  15    -0.415227937677E+03    0.84024E+02   -0.19809E+02  5073   0.163E+01    0.656E+00
RMM:  16    -0.414049134187E+03    0.11788E+01   -0.39075E+01  6080   0.607E+00    0.430E+00
RMM:  17    -0.413212392961E+03    0.83674E+00   -0.24495E+00  5363   0.185E+00    0.245E+00
RMM:  18    -0.413170728044E+03    0.41665E-01   -0.83512E-01  5987   0.931E-01    0.163E+00
RMM:  19    -0.413168398107E+03    0.23299E-02   -0.28285E-01  5683   0.568E-01    0.858E-01
RMM:  20    -0.413185210878E+03   -0.16813E-01   -0.23865E-01  5488   0.521E-01    0.573E-01
RMM:  21    -0.413167257309E+03    0.17954E-01   -0.33779E-02  4988   0.233E-01    0.262E-01
RMM:  22    -0.413165324650E+03    0.19327E-02   -0.16341E-02  6043   0.112E-01    0.141E-01
RMM:  23    -0.413164147544E+03    0.11771E-02   -0.57160E-03  5942   0.683E-02    0.834E-02
RMM:  24    -0.413162980967E+03    0.11666E-02   -0.15715E-03  5309   0.393E-02    0.419E-02
RMM:  25    -0.413162678887E+03    0.30208E-03   -0.82909E-04  5440   0.252E-02    0.341E-02
RMM:  26    -0.413162871189E+03   -0.19230E-03   -0.83439E-04  5795   0.295E-02    0.332E-02
RMM:  27    -0.413163288024E+03   -0.41683E-03   -0.18847E-04  4542   0.191E-02    0.190E-02
RMM:  28    -0.413163765633E+03   -0.47761E-03   -0.18758E-04  5197   0.193E-02    0.868E-03
RMM:  29    -0.413164150352E+03   -0.38472E-03   -0.10876E-04  4485   0.149E-02    0.472E-03
RMM:  30    -0.413164353481E+03   -0.20313E-03   -0.67961E-05  4015   0.917E-03    0.309E-03
RMM:  31    -0.413164487629E+03   -0.13415E-03   -0.52418E-05  3208   0.699E-03    0.303E-03
RMM:  32    -0.413164513361E+03   -0.25733E-04   -0.19941E-05  2961   0.300E-03    0.150E-03
RMM:  33    -0.413164526310E+03   -0.12948E-04   -0.80136E-06  2763   0.211E-03    0.578E-04
RMM:  34    -0.413164530884E+03   -0.45743E-05   -0.48436E-06  2690   0.174E-03    0.897E-04
RMM:  35    -0.413164531276E+03   -0.39197E-06   -0.24246E-06  2302   0.119E-03
    1 T=    61. E= -.41286670E+03 F= -.41316453E+03 E0= -.41314203E+03  EK= 0.29783E+00 SP= 0.00E+00 SK= 0.00E+00
       N       E                     dE             d eps       ncg     rms          rms(c)
RMM:   1    -0.413154433013E+03    0.10098E-01   -0.11192E+01  4004   0.702E-01    0.887E-01
RMM:   2    -0.413165567696E+03   -0.11135E-01   -0.13814E-01  3841   0.975E-02    0.641E-01
RMM:   3    -0.413164055188E+03    0.15125E-02   -0.62293E-03  4611   0.355E-02    0.152E-01
RMM:   4    -0.413175162010E+03   -0.11107E-01   -0.11848E-02  5223   0.911E-02    0.444E-01
RMM:   5    -0.413163843149E+03    0.11319E-01   -0.56898E-03  4869   0.738E-02    0.238E-02
RMM:   6    -0.413163900349E+03   -0.57200E-04   -0.90481E-04  5835   0.288E-02    0.134E-02
RMM:   7    -0.413163913546E+03   -0.13198E-04   -0.11479E-04  5419   0.915E-03    0.937E-03
RMM:   8    -0.413163921335E+03   -0.77885E-05   -0.12585E-05  3382   0.358E-03    0.494E-03
RMM:   9    -0.413163928982E+03   -0.76468E-05   -0.30220E-06  2649   0.220E-03    0.293E-03
RMM:  10    -0.413163936247E+03   -0.72659E-05   -0.14583E-06  2532   0.169E-03    0.159E-03
RMM:  11    -0.413163943071E+03   -0.68233E-05   -0.10300E-06  2469   0.136E-03    0.537E-04
RMM:  12    -0.413163945454E+03   -0.23829E-05   -0.52548E-07  2026   0.971E-04    0.257E-04
RMM:  13    -0.413163947622E+03   -0.21684E-05   -0.36177E-07  1517   0.800E-04    0.168E-04
RMM:  14    -0.413163950208E+03   -0.25859E-05   -0.32744E-07  1416   0.757E-04    0.118E-04
RMM:  15    -0.413163951228E+03   -0.10199E-05   -0.22355E-07  1247   0.679E-04    0.553E-05
RMM:  16    -0.413163952145E+03   -0.91697E-06   -0.18491E-07  1212   0.650E-04
    2 T=    61. E= -.41286619E+03 F= -.41316395E+03 E0= -.41314145E+03  EK= 0.29776E+00 SP= 0.00E+00 SK= 0.00E+00
       N       E                     dE             d eps       ncg     rms          rms(c)
RMM:   1    -0.413155588887E+03    0.83623E-02   -0.11229E+01  4199   0.708E-01    0.912E-01
RMM:   2    -0.413165439228E+03   -0.98503E-02   -0.13552E-01  3982   0.995E-02    0.633E-01
RMM:   3    -0.413164975274E+03    0.46395E-03   -0.68361E-03  4927   0.400E-02    0.172E-01
RMM:   4    -0.413196703997E+03   -0.31729E-01   -0.32514E-02  5184   0.150E-01    0.741E-01
RMM:   5    -0.413164497181E+03    0.32207E-01   -0.15667E-02  4826   0.124E-01    0.384E-02
RMM:   6    -0.413164681673E+03   -0.18449E-03   -0.25568E-03  5795   0.485E-02    0.185E-02
RMM:   7    -0.413164696377E+03   -0.14704E-04   -0.30510E-04  5909   0.142E-02    0.140E-02
RMM:   8    -0.413164696973E+03   -0.59574E-06   -0.38452E-05  4417   0.531E-03    0.897E-03
RMM:   9    -0.413164696067E+03    0.90585E-06   -0.58915E-06  2938   0.271E-03
    3 T=    61. E= -.41286661E+03 F= -.41316470E+03 E0= -.41314220E+03  EK= 0.29809E+00 SP= 0.00E+00 SK= 0.00E+00
       N       E                     dE             d eps       ncg     rms          rms(c)
RMM:   1    -0.413155078495E+03    0.96185E-02   -0.11144E+01  4229   0.706E-01    0.895E-01
RMM:   2    -0.413165448576E+03   -0.10370E-01   -0.13440E-01  4200   0.971E-02    0.627E-01
RMM:   3    -0.413167972481E+03   -0.25239E-02   -0.92349E-03  5169   0.663E-02    0.298E-01
RMM:   4    -0.413193711527E+03   -0.25739E-01   -0.40518E-02  5137   0.170E-01    0.713E-01
RMM:   5    -0.413164324217E+03    0.29387E-01   -0.12366E-02  4738   0.119E-01    0.536E-02
RMM:   6    -0.413164362396E+03   -0.38179E-04   -0.21094E-03  5573   0.454E-02    0.160E-02
RMM:   7    -0.413164386212E+03   -0.23815E-04   -0.30085E-04  6036   0.149E-02    0.117E-02
RMM:   8    -0.413164389017E+03   -0.28054E-05   -0.36953E-05  4623   0.541E-03    0.738E-03
RMM:   9    -0.413164391116E+03   -0.20984E-05   -0.67847E-06  3106   0.363E-03    0.359E-03
RMM:  10    -0.413164392991E+03   -0.18750E-05   -0.19468E-06  2562   0.221E-03    0.220E-03
RMM:  11    -0.413164394928E+03   -0.19372E-05   -0.10055E-06  2538   0.157E-03    0.999E-04
RMM:  12    -0.413164395903E+03   -0.97506E-06   -0.47168E-07  2151   0.105E-03
    4 T=    61. E= -.41286627E+03 F= -.41316440E+03 E0= -.41314191E+03  EK= 0.29813E+00 SP= 0.00E+00 SK= 0.00E+00
       N       E                     dE             d eps       ncg     rms          rms(c)
RMM:   1    -0.413154895077E+03    0.94999E-02   -0.11184E+01  4236   0.712E-01    0.884E-01
RMM:   2    -0.413165832355E+03   -0.10937E-01   -0.13860E-01  3882   0.938E-02    0.640E-01
RMM:   3    -0.413164710922E+03    0.11214E-02   -0.62757E-03  4853   0.368E-02    0.161E-01
RMM:   4    -0.413189930593E+03   -0.25220E-01   -0.25603E-02  5171   0.133E-01    0.663E-01
RMM:   5    -0.413164319662E+03    0.25611E-01   -0.12489E-02  4824   0.110E-01    0.321E-02
RMM:   6    -0.413164478767E+03   -0.15910E-03   -0.20192E-03  5828   0.428E-02    0.160E-02
RMM:   7    -0.413164495234E+03   -0.16468E-04   -0.23127E-04  5815   0.126E-02    0.123E-02
RMM:   8    -0.413164500132E+03   -0.48980E-05   -0.29944E-05  4220   0.485E-03    0.800E-03
RMM:   9    -0.413164504408E+03   -0.42753E-05   -0.48445E-06  2870   0.262E-03    0.545E-03
RMM:  10    -0.413164511287E+03   -0.68791E-05   -0.20347E-06  2568   0.209E-03    0.267E-03
RMM:  11    -0.413164516796E+03   -0.55096E-05   -0.14468E-06  2554   0.174E-03    0.141E-03
RMM:  12    -0.413164520019E+03   -0.32223E-05   -0.71616E-07  2424   0.130E-03    0.528E-04
RMM:  13    -0.413164521444E+03   -0.14252E-05   -0.33064E-07  1938   0.911E-04    0.298E-04
RMM:  14    -0.413164522874E+03   -0.14306E-05   -0.23210E-07  1518   0.784E-04    0.176E-04
RMM:  15    -0.413164524346E+03   -0.14720E-05   -0.23146E-07  1532   0.755E-04    0.151E-04
RMM:  16    -0.413164524648E+03   -0.30172E-06   -0.10384E-07  1106   0.630E-04
    5 T=    61. E= -.41286622E+03 F= -.41316452E+03 E0= -.41314205E+03  EK= 0.29830E+00 SP= 0.00E+00 SK= 0.00E+00
       N       E                     dE             d eps       ncg     rms          rms(c)
RMM:   1    -0.413155877905E+03    0.86464E-02   -0.11241E+01  4246   0.717E-01    0.907E-01
RMM:   2    -0.413166145719E+03   -0.10268E-01   -0.13542E-01  4035   0.995E-02    0.635E-01
RMM:   3    -0.413165443280E+03    0.70244E-03   -0.66104E-03  4820   0.397E-02    0.168E-01
RMM:   4    -0.413193060224E+03   -0.27617E-01   -0.27866E-02  5166   0.139E-01    0.693E-01
RMM:   5    -0.413165004618E+03    0.28056E-01   -0.13782E-02  4822   0.115E-01    0.350E-02
RMM:   6    -0.413165168782E+03   -0.16416E-03   -0.21801E-03  5805   0.447E-02    0.178E-02
RMM:   7    -0.413165180455E+03   -0.11673E-04   -0.25779E-04  5852   0.132E-02    0.133E-02
RMM:   8    -0.413165181136E+03   -0.68075E-06   -0.31933E-05  4241   0.498E-03    0.843E-03
RMM:   9    -0.413165180755E+03    0.38093E-06   -0.52411E-06  2873   0.267E-03
    6 T=    61. E= -.41286654E+03 F= -.41316518E+03 E0= -.41314272E+03  EK= 0.29864E+00 SP= 0.00E+00 SK= 0.00E+00
       N       E                     dE             d eps       ncg     rms          rms(c)
RMM:   1    -0.413155517975E+03    0.96632E-02   -0.11182E+01  4269   0.722E-01    0.902E-01
RMM:   2    -0.413165545261E+03   -0.10027E-01   -0.13477E-01  4241   0.989E-02    0.628E-01
RMM:   3    -0.413167766021E+03   -0.22208E-02   -0.89558E-03  5140   0.624E-02    0.282E-01
RMM:   4    -0.413196313233E+03   -0.28547E-01   -0.41622E-02  5128   0.171E-01    0.739E-01
RMM:   5    -0.413164578474E+03    0.31735E-01   -0.13638E-02  4755   0.123E-01    0.533E-02
RMM:   6    -0.413164638335E+03   -0.59861E-04   -0.22553E-03  5608   0.471E-02    0.161E-02
RMM:   7    -0.413164662244E+03   -0.23909E-04   -0.31324E-04  6030   0.150E-02    0.120E-02
RMM:   8    -0.413164663691E+03   -0.14468E-05   -0.38534E-05  4621   0.547E-03    0.753E-03
RMM:   9    -0.413164662091E+03    0.16003E-05   -0.64172E-06  2977   0.345E-03    0.353E-03
RMM:  10    -0.413164661942E+03    0.14876E-06   -0.20200E-06  2551   0.219E-03
    7 T=    61. E= -.41286605E+03 F= -.41316466E+03 E0= -.41314221E+03  EK= 0.29861E+00 SP= 0.00E+00 SK= 0.00E+00
       N       E                     dE             d eps       ncg     rms          rms(c)
RMM:   1    -0.413155617472E+03    0.90446E-02   -0.11176E+01  4278   0.724E-01    0.883E-01
RMM:   2    -0.413166694866E+03   -0.11077E-01   -0.13768E-01  4062   0.960E-02    0.637E-01
RMM:   3    -0.413166024270E+03    0.67060E-03   -0.65253E-03  5019   0.413E-02    0.179E-01
RMM:   4    -0.413206465968E+03   -0.40442E-01   -0.42369E-02  5154   0.171E-01    0.835E-01
RMM:   5    -0.413165228460E+03    0.41238E-01   -0.19995E-02  4806   0.140E-01    0.427E-02
RMM:   6    -0.413165434251E+03   -0.20579E-03   -0.31140E-03  5772   0.542E-02    0.166E-02
RMM:   7    -0.413165461469E+03   -0.27218E-04   -0.37887E-04  5931   0.156E-02    0.136E-02
RMM:   8    -0.413165465614E+03   -0.41448E-05   -0.43983E-05  4397   0.552E-03    0.866E-03
RMM:   9    -0.413165468545E+03   -0.29306E-05   -0.67803E-06  2963   0.278E-03    0.585E-03
RMM:  10    -0.413165473638E+03   -0.50928E-05   -0.26523E-06  2592   0.232E-03    0.272E-03
RMM:  11    -0.413165477616E+03   -0.39785E-05   -0.15284E-06  2540   0.182E-03    0.129E-03
RMM:  12    -0.413165479939E+03   -0.23229E-05   -0.82673E-07  2455   0.138E-03    0.432E-04
RMM:  13    -0.413165481202E+03   -0.12631E-05   -0.40305E-07  2053   0.977E-04    0.302E-04
RMM:  14    -0.413165482342E+03   -0.11398E-05   -0.31840E-07  1686   0.835E-04    0.211E-04
RMM:  15    -0.413165482925E+03   -0.58318E-06   -0.20734E-07  1404   0.731E-04
    8 T=    61. E= -.41286655E+03 F= -.41316548E+03 E0= -.41314305E+03  EK= 0.29893E+00 SP= 0.00E+00 SK= 0.00E+00
       N       E                     dE             d eps       ncg     rms          rms(c)
RMM:   1    -0.413156120440E+03    0.93619E-02   -0.11245E+01  4288   0.730E-01    0.901E-01
RMM:   2    -0.413166588384E+03   -0.10468E-01   -0.13699E-01  4137   0.101E-01    0.638E-01
RMM:   3    -0.413165760730E+03    0.82765E-03   -0.65624E-03  4847   0.398E-02    0.168E-01
RMM:   4    -0.413195782518E+03   -0.30022E-01   -0.30576E-02  5154   0.146E-01    0.722E-01
RMM:   5    -0.413165235478E+03    0.30547E-01   -0.14880E-02  4814   0.120E-01    0.357E-02
RMM:   6    -0.413165418298E+03   -0.18282E-03   -0.23784E-03  5799   0.468E-02    0.175E-02
RMM:   7    -0.413165432583E+03   -0.14285E-04   -0.27645E-04  5865   0.137E-02    0.134E-02
RMM:   8    -0.413165433805E+03   -0.12215E-05   -0.33988E-05  4317   0.514E-03    0.867E-03
RMM:   9    -0.413165433564E+03    0.24039E-06   -0.53931E-06  2897   0.270E-03
    9 T=    61. E= -.41286633E+03 F= -.41316543E+03 E0= -.41314302E+03  EK= 0.29910E+00 SP= 0.00E+00 SK= 0.00E+00
       N       E                     dE             d eps       ncg     rms          rms(c)
RMM:   1    -0.413156394371E+03    0.90394E-02   -0.11228E+01  4292   0.734E-01    0.910E-01
RMM:   2    -0.413166227249E+03   -0.98329E-02   -0.13509E-01  4289   0.995E-02    0.630E-01
RMM:   3    -0.413169147604E+03   -0.29204E-02   -0.94756E-03  5145   0.652E-02    0.297E-01
RMM:   4    -0.413194646491E+03   -0.25499E-01   -0.39911E-02  5116   0.168E-01    0.710E-01
RMM:   5    -0.413165600818E+03    0.29046E-01   -0.12291E-02  4730   0.118E-01    0.529E-02
RMM:   6    -0.413165648398E+03   -0.47580E-04   -0.20671E-03  5569   0.447E-02    0.168E-02
RMM:   7    -0.413165667579E+03   -0.19181E-04   -0.28826E-04  6025   0.146E-02    0.120E-02
RMM:   8    -0.413165667568E+03    0.10656E-07   -0.35714E-05  4606   0.535E-03    0.751E-03
RMM:   9    -0.413165663301E+03    0.42677E-05   -0.65816E-06  3014   0.350E-03    0.357E-03
RMM:  10    -0.413165661636E+03    0.16647E-05   -0.18777E-06  2545   0.215E-03    0.209E-03
RMM:  11    -0.413165659955E+03    0.16812E-05   -0.95454E-07  2525   0.153E-03    0.962E-04
RMM:  12    -0.413165658992E+03    0.96233E-06   -0.44400E-07  2090   0.103E-03
   10 T=    61. E= -.41286627E+03 F= -.41316566E+03 E0= -.41314327E+03  EK= 0.29939E+00 SP= 0.00E+00 SK= 0.00E+00
       N       E                     dE             d eps       ncg     rms          rms(c)
RMM:   1    -0.413156690342E+03    0.89696E-02   -0.11181E+01  4288   0.736E-01    0.885E-01
RMM:   2    -0.413167796843E+03   -0.11107E-01   -0.13663E-01  4198   0.967E-02    0.634E-01
RMM:   3    -0.413166720616E+03    0.10762E-02   -0.62078E-03  4848   0.387E-02    0.166E-01
RMM:   4    -0.413195153117E+03   -0.28433E-01   -0.29035E-02  5156   0.141E-01    0.704E-01
RMM:   5    -0.413166201928E+03    0.28951E-01   -0.14265E-02  4812   0.117E-01    0.340E-02
RMM:   6    -0.413166370683E+03   -0.16875E-03   -0.22095E-03  5818   0.451E-02    0.170E-02
RMM:   7    -0.413166383889E+03   -0.13207E-04   -0.25592E-04  5836   0.132E-02    0.128E-02
RMM:   8    -0.413166385830E+03   -0.19405E-05   -0.33132E-05  4331   0.505E-03    0.847E-03
RMM:   9    -0.413166386087E+03   -0.25746E-06   -0.52979E-06  2896   0.267E-03
   11 T=    61. E= -.41286651E+03 F= -.41316639E+03 E0= -.41314403E+03  EK= 0.29988E+00 SP= 0.00E+00 SK= 0.00E+00
       N       E                     dE             d eps       ncg     rms          rms(c)
RMM:   1    -0.413156741705E+03    0.96441E-02   -0.11263E+01  4288   0.744E-01    0.896E-01
RMM:   2    -0.413167346102E+03   -0.10604E-01   -0.13843E-01  4275   0.977E-02    0.641E-01
RMM:   3    -0.413169614324E+03   -0.22682E-02   -0.90556E-03  5138   0.644E-02    0.292E-01
RMM:   4    -0.413200027375E+03   -0.30413E-01   -0.45274E-02  5121   0.178E-01    0.763E-01
RMM:   5    -0.413166040999E+03    0.33986E-01   -0.14580E-02  4733   0.127E-01    0.536E-02
RMM:   6    -0.413166120575E+03   -0.79576E-04   -0.24159E-03  5627   0.483E-02    0.147E-02
RMM:   7    -0.413166147427E+03   -0.26852E-04   -0.32604E-04  6033   0.152E-02    0.117E-02
RMM:   8    -0.413166150661E+03   -0.32343E-05   -0.40273E-05  4671   0.553E-03    0.746E-03
RMM:   9    -0.413166152682E+03   -0.20212E-05   -0.68643E-06  3061   0.356E-03    0.374E-03
RMM:  10    -0.413166154464E+03   -0.17819E-05   -0.21881E-06  2558   0.224E-03    0.224E-03
RMM:  11    -0.413166155938E+03   -0.14736E-05   -0.11349E-06  2545   0.158E-03    0.976E-04
RMM:  12    -0.413166156571E+03   -0.63352E-06   -0.49976E-07  2162   0.106E-03
   12 T=    61. E= -.41286604E+03 F= -.41316616E+03 E0= -.41314382E+03  EK= 0.30011E+00 SP= 0.00E+00 SK= 0.00E+00
       N       E                     dE             d eps       ncg     rms          rms(c)
RMM:   1    -0.413157810190E+03    0.83457E-02   -0.11289E+01  4297   0.747E-01    0.915E-01
RMM:   2    -0.413167613543E+03   -0.98034E-02   -0.13509E-01  4198   0.937E-02    0.632E-01
RMM:   3    -0.413167151863E+03    0.46168E-03   -0.67906E-03  4931   0.367E-02    0.173E-01
RMM:   4    -0.413197097148E+03   -0.29945E-01   -0.30480E-02  5159   0.145E-01    0.721E-01
RMM:   5    -0.413166737446E+03    0.30360E-01   -0.15015E-02  4809   0.120E-01    0.364E-02
RMM:   6    -0.413166913718E+03   -0.17627E-03   -0.22944E-03  5809   0.464E-02    0.188E-02
RMM:   7    -0.413166923761E+03   -0.10043E-04   -0.27201E-04  5854   0.137E-02    0.138E-02
RMM:   8    -0.413166921877E+03    0.18840E-05   -0.35473E-05  4412   0.527E-03    0.913E-03
RMM:   9    -0.413166917366E+03    0.45112E-05   -0.56798E-06  2919   0.278E-03    0.620E-03
RMM:  10    -0.413166912855E+03    0.45112E-05   -0.21670E-06  2564   0.220E-03    0.298E-03
RMM:  11    -0.413166909581E+03    0.32734E-05   -0.16127E-06  2542   0.189E-03    0.145E-03
RMM:  12    -0.413166907017E+03    0.25641E-05   -0.78424E-07  2442   0.140E-03    0.488E-04
RMM:  13    -0.413166906097E+03    0.92013E-06   -0.33199E-07  2050   0.950E-04
   13 T=    61. E= -.41286625E+03 F= -.41316691E+03 E0= -.41314460E+03  EK= 0.30066E+00 SP= 0.00E+00 SK= 0.00E+00
       N       E                     dE             d eps       ncg     rms          rms(c)
RMM:   1    -0.413157839564E+03    0.90675E-02   -0.11203E+01  4295   0.751E-01    0.889E-01
RMM:   2    -0.413168468423E+03   -0.10629E-01   -0.13718E-01  4219   0.954E-02    0.632E-01
RMM:   3    -0.413167667802E+03    0.80062E-03   -0.63101E-03  4847   0.369E-02    0.167E-01
RMM:   4    -0.413194277040E+03   -0.26609E-01   -0.27182E-02  5147   0.138E-01    0.682E-01
RMM:   5    -0.413167148182E+03    0.27129E-01   -0.13385E-02  4811   0.113E-01    0.330E-02
RMM:   6    -0.413167302855E+03   -0.15467E-03   -0.20371E-03  5801   0.436E-02    0.168E-02
RMM:   7    -0.413167313075E+03   -0.10220E-04   -0.23754E-04  5813   0.129E-02    0.126E-02
RMM:   8    -0.413167313158E+03   -0.83099E-07   -0.30768E-05  4261   0.492E-03    0.825E-03
RMM:   9    -0.413167311334E+03    0.18240E-05   -0.48553E-06  2845   0.261E-03    0.565E-03
RMM:  10    -0.413167310286E+03    0.10477E-05   -0.19963E-06  2553   0.210E-03    0.271E-03
RMM:  11    -0.413167309812E+03    0.47373E-06   -0.14649E-06  2538   0.178E-03
   14 T=    61. E= -.41286623E+03 F= -.41316731E+03 E0= -.41314504E+03  EK= 0.30108E+00 SP= 0.00E+00 SK= 0.00E+00
       N       E                     dE             d eps       ncg     rms          rms(c)
RMM:   1    -0.413157748225E+03    0.95621E-02   -0.11292E+01  4301   0.757E-01    0.892E-01
RMM:   2    -0.413169257241E+03   -0.11509E-01   -0.13970E-01  4252   0.100E-01    0.643E-01
RMM:   3    -0.413168592129E+03    0.66511E-03   -0.68619E-03  5028   0.473E-02    0.199E-01
RMM:   4    -0.413214699726E+03   -0.46108E-01   -0.50163E-02  5140   0.186E-01    0.892E-01
RMM:   5    -0.413167416594E+03    0.47283E-01   -0.22684E-02  4791   0.149E-01    0.454E-02
RMM:   6    -0.413167649634E+03   -0.23304E-03   -0.35438E-03  5781   0.575E-02    0.179E-02
RMM:   7    -0.413167674247E+03   -0.24613E-04   -0.41857E-04  5955   0.166E-02    0.147E-02
RMM:   8    -0.413167676063E+03   -0.18151E-05   -0.50911E-05  4654   0.595E-03    0.964E-03
RMM:   9    -0.413167675691E+03    0.37185E-06   -0.74396E-06  3033   0.290E-03
   15 T=    61. E= -.41286619E+03 F= -.41316768E+03 E0= -.41314544E+03  EK= 0.30149E+00 SP= 0.00E+00 SK= 0.00E+00
       N       E                     dE             d eps       ncg     rms          rms(c)
RMM:   1    -0.413159520660E+03    0.81554E-02   -0.11342E+01  4304   0.766E-01    0.917E-01
RMM:   2    -0.413169458925E+03   -0.99383E-02   -0.13654E-01  4323   0.100E-01    0.635E-01
RMM:   3    -0.413171804609E+03   -0.23457E-02   -0.91804E-03  5114   0.647E-02    0.287E-01
RMM:   4    -0.413200347525E+03   -0.28543E-01   -0.42043E-02  5114   0.172E-01    0.741E-01
RMM:   5    -0.413168460755E+03    0.31887E-01   -0.13709E-02  4741   0.123E-01    0.515E-02
RMM:   6    -0.413168537119E+03   -0.76365E-04   -0.22544E-03  5635   0.466E-02    0.164E-02
RMM:   7    -0.413168552294E+03   -0.15175E-04   -0.29917E-04  6014   0.148E-02    0.122E-02
RMM:   8    -0.413168550752E+03    0.15417E-05   -0.37324E-05  4600   0.541E-03    0.763E-03
RMM:   9    -0.413168543606E+03    0.71461E-05   -0.61655E-06  2886   0.345E-03    0.356E-03
RMM:  10    -0.413168540108E+03    0.34983E-05   -0.20735E-06  2549   0.222E-03    0.203E-03
RMM:  11    -0.413168536460E+03    0.36483E-05   -0.94938E-07  2522   0.152E-03    0.911E-04
RMM:  12    -0.413168534402E+03    0.20579E-05   -0.45396E-07  2004   0.102E-03    0.421E-04
RMM:  13    -0.413168531895E+03    0.25069E-05   -0.35585E-07  1871   0.902E-04    0.248E-04
RMM:  14    -0.413168529971E+03    0.19237E-05   -0.22136E-07  1471   0.748E-04    0.124E-04
RMM:  15    -0.413168527431E+03    0.25405E-05   -0.23768E-07  1594   0.753E-04    0.105E-04
RMM:  16    -0.413168526212E+03    0.12187E-05   -0.11265E-07  1196   0.629E-04    0.853E-05
RMM:  17    -0.413168523967E+03    0.22444E-05   -0.12438E-07  1306   0.652E-04    0.418E-05
RMM:  18    -0.413168522770E+03    0.11976E-05   -0.69532E-08  1050   0.569E-04    0.237E-05
RMM:  19    -0.413168522192E+03    0.57759E-06   -0.36517E-08   840   0.524E-04
   16 T=    62. E= -.41286630E+03 F= -.41316852E+03 E0= -.41314632E+03  EK= 0.30222E+00 SP= 0.00E+00 SK= 0.00E+00
       N       E                     dE             d eps       ncg     rms          rms(c)
RMM:   1    -0.413159476538E+03    0.90462E-02   -0.11257E+01  4294   0.763E-01    0.896E-01
RMM:   2    -0.413170018412E+03   -0.10542E-01   -0.13740E-01  4253   0.102E-01    0.631E-01
RMM:   3    -0.413169348164E+03    0.67025E-03   -0.65504E-03  4926   0.440E-02    0.180E-01
RMM:   4    -0.413206713652E+03   -0.37365E-01   -0.38749E-02  5144   0.163E-01    0.803E-01
RMM:   5    -0.413168682619E+03    0.38031E-01   -0.18561E-02  4792   0.134E-01    0.405E-02
RMM:   6    -0.413168901137E+03   -0.21852E-03   -0.30251E-03  5788   0.519E-02    0.187E-02
RMM:   7    -0.413168916106E+03   -0.14969E-04   -0.34353E-04  5865   0.151E-02    0.144E-02
RMM:   8    -0.413168914833E+03    0.12728E-05   -0.42392E-05  4495   0.556E-03    0.951E-03
RMM:   9    -0.413168911087E+03    0.37467E-05   -0.65370E-06  2972   0.278E-03    0.662E-03
RMM:  10    -0.413168907482E+03    0.36048E-05   -0.23900E-06  2567   0.232E-03    0.312E-03
RMM:  11    -0.413168905176E+03    0.23059E-05   -0.16267E-06  2531   0.193E-03    0.154E-03
RMM:  12    -0.413168903436E+03    0.17400E-05   -0.78765E-07  2450   0.143E-03    0.511E-04
RMM:  13    -0.413168902777E+03    0.65847E-06   -0.34583E-07  2121   0.983E-04
   17 T=    62. E= -.41286610E+03 F= -.41316890E+03 E0= -.41314674E+03  EK= 0.30280E+00 SP= 0.00E+00 SK= 0.00E+00
       N       E                     dE             d eps       ncg     rms          rms(c)
RMM:   1    -0.413159630621E+03    0.92728E-02   -0.11338E+01  4296   0.770E-01    0.890E-01
RMM:   2    -0.413171186987E+03   -0.11556E-01   -0.14019E-01  4263   0.998E-02    0.644E-01
RMM:   3    -0.413169777750E+03    0.14092E-02   -0.62384E-03  4883   0.368E-02    0.167E-01
RMM:   4    -0.413198598650E+03   -0.28821E-01   -0.29569E-02  5149   0.143E-01    0.708E-01
RMM:   5    -0.413169274554E+03    0.29324E-01   -0.14443E-02  4804   0.118E-01    0.344E-02
RMM:   6    -0.413169453761E+03   -0.17921E-03   -0.23335E-03  5810   0.454E-02    0.167E-02
RMM:   7    -0.413169467592E+03   -0.13830E-04   -0.26417E-04  5804   0.134E-02    0.128E-02
RMM:   8    -0.413169468420E+03   -0.82893E-06   -0.33683E-05  4342   0.510E-03    0.854E-03
RMM:   9    -0.413169467555E+03    0.86591E-06   -0.54608E-06  2898   0.272E-03
   18 T=    62. E= -.41286597E+03 F= -.41316947E+03 E0= -.41314735E+03  EK= 0.30350E+00 SP= 0.00E+00 SK= 0.00E+00
       N       E                     dE             d eps       ncg     rms          rms(c)
RMM:   1    -0.413161413480E+03    0.80549E-02   -0.11401E+01  4297   0.774E-01    0.915E-01
RMM:   2    -0.413171376759E+03   -0.99633E-02   -0.13884E-01  4321   0.973E-02    0.639E-01
RMM:   3    -0.413174491351E+03   -0.31146E-02   -0.97375E-03  5136   0.687E-02    0.312E-01
RMM:   4    -0.413199568895E+03   -0.25078E-01   -0.41293E-02  5100   0.171E-01    0.710E-01
RMM:   5    -0.413170442848E+03    0.29126E-01   -0.12147E-02  4713   0.117E-01    0.518E-02
RMM:   6    -0.413170491762E+03   -0.48914E-04   -0.20600E-03  5578   0.441E-02    0.161E-02
RMM:   7    -0.413170508319E+03   -0.16557E-04   -0.28027E-04  6024   0.145E-02    0.118E-02
RMM:   8    -0.413170506773E+03    0.15454E-05   -0.35078E-05  4585   0.529E-03    0.740E-03
RMM:   9    -0.413170499385E+03    0.73884E-05   -0.63462E-06  2961   0.356E-03    0.366E-03
RMM:  10    -0.413170495767E+03    0.36182E-05   -0.19085E-06  2534   0.218E-03    0.210E-03
RMM:  11    -0.413170491840E+03    0.39265E-05   -0.94512E-07  2519   0.153E-03    0.943E-04
RMM:  12    -0.413170489697E+03    0.21430E-05   -0.44352E-07  2126   0.104E-03    0.458E-04
RMM:  13    -0.413170486751E+03    0.29459E-05   -0.35323E-07  1862   0.902E-04    0.245E-04
RMM:  14    -0.413170485216E+03    0.15348E-05   -0.18467E-07  1374   0.717E-04    0.152E-04
RMM:  15    -0.413170482375E+03    0.28415E-05   -0.21006E-07  1530   0.756E-04    0.934E-05
RMM:  16    -0.413170480761E+03    0.16143E-05   -0.12351E-07  1303   0.653E-04    0.876E-05
RMM:  17    -0.413170478108E+03    0.26530E-05   -0.12924E-07  1367   0.653E-04    0.376E-05
RMM:  18    -0.413170476948E+03    0.11601E-05   -0.63352E-08   948   0.546E-04    0.228E-05
RMM:  19    -0.413170476270E+03    0.67778E-06   -0.35705E-08   823   0.523E-04
   19 T=    62. E= -.41286598E+03 F= -.41317048E+03 E0= -.41314840E+03  EK= 0.30449E+00 SP= 0.00E+00 SK= 0.00E+00
       N       E                     dE             d eps       ncg     rms          rms(c)
RMM:   1    -0.413161615283E+03    0.88617E-02   -0.11360E+01  4297   0.780E-01    0.906E-01
RMM:   2    -0.413172054066E+03   -0.10439E-01   -0.13766E-01  4268   0.101E-01    0.633E-01
RMM:   3    -0.413171676352E+03    0.37771E-03   -0.66999E-03  4973   0.424E-02    0.187E-01
RMM:   4    -0.413211808345E+03   -0.40132E-01   -0.42116E-02  5146   0.170E-01    0.832E-01
RMM:   5    -0.413170915265E+03    0.40893E-01   -0.19919E-02  4793   0.139E-01    0.427E-02
RMM:   6    -0.413171137076E+03   -0.22181E-03   -0.32122E-03  5798   0.536E-02    0.194E-02
RMM:   7    -0.413171149821E+03   -0.12744E-04   -0.36334E-04  5863   0.156E-02    0.149E-02
RMM:   8    -0.413171146985E+03    0.28359E-05   -0.45460E-05  4578   0.572E-03    0.980E-03
RMM:   9    -0.413171141241E+03    0.57436E-05   -0.68502E-06  3004   0.285E-03    0.670E-03
RMM:  10    -0.413171135087E+03    0.61539E-05   -0.24576E-06  2567   0.234E-03    0.312E-03
RMM:  11    -0.413171130893E+03    0.41944E-05   -0.15477E-06  2520   0.191E-03    0.155E-03
RMM:  12    -0.413171127755E+03    0.31383E-05   -0.78972E-07  2449   0.145E-03    0.504E-04
RMM:  13    -0.413171126530E+03    0.12250E-05   -0.34839E-07  2151   0.997E-04    0.331E-04
RMM:  14    -0.413171124960E+03    0.15699E-05   -0.20285E-07  1672   0.789E-04    0.197E-04
RMM:  15    -0.413171122612E+03    0.23481E-05   -0.16498E-07  1482   0.730E-04    0.121E-04
RMM:  16    -0.413171122090E+03    0.52138E-06   -0.71873E-08  1056   0.616E-04
   20 T=    62. E= -.41286581E+03 F= -.41317112E+03 E0= -.41314909E+03  EK= 0.30531E+00 SP= 0.00E+00 SK= 0.00E+00
       N       E                     dE             d eps       ncg     rms          rms(c)
RMM:   1    -0.413162207043E+03    0.89156E-02   -0.11399E+01  4296   0.786E-01    0.891E-01
RMM:   2    -0.413173491796E+03   -0.11285E-01   -0.14193E-01  4256   0.101E-01    0.644E-01
RMM:   3    -0.413172459913E+03    0.10319E-02   -0.63925E-03  4953   0.397E-02    0.177E-01
RMM:   4    -0.413209809000E+03   -0.37349E-01   -0.38934E-02  5144   0.164E-01    0.803E-01
RMM:   5    -0.413171710544E+03    0.38098E-01   -0.18669E-02  4793   0.134E-01    0.392E-02
RMM:   6    -0.413171928084E+03   -0.21754E-03   -0.30064E-03  5794   0.518E-02    0.178E-02
RMM:   7    -0.413171943675E+03   -0.15591E-04   -0.33360E-04  5874   0.151E-02    0.139E-02
RMM:   8    -0.413171943584E+03    0.91142E-07   -0.42845E-05  4549   0.560E-03    0.943E-03
RMM:   9    -0.413171940884E+03    0.27002E-05   -0.64178E-06  2975   0.283E-03    0.658E-03
RMM:  10    -0.413171939231E+03    0.16533E-05   -0.24593E-06  2576   0.235E-03    0.315E-03
RMM:  11    -0.413171938406E+03    0.82432E-06   -0.17084E-06  2536   0.197E-03
   21 T=    62. E= -.41286581E+03 F= -.41317194E+03 E0= -.41314995E+03  EK= 0.30613E+00 SP= 0.00E+00 SK= 0.00E+00
       N       E                     dE             d eps       ncg     rms          rms(c)
RMM:   1    -0.413163378997E+03    0.85602E-02   -0.11478E+01  4299   0.787E-01    0.912E-01
RMM:   2    -0.413174191763E+03   -0.10813E-01   -0.14086E-01  4298   0.100E-01    0.644E-01
RMM:   3    -0.413174348069E+03   -0.15631E-03   -0.71995E-03  5038   0.492E-02    0.213E-01
RMM:   4    -0.413219906228E+03   -0.45558E-01   -0.51035E-02  5133   0.187E-01    0.889E-01
RMM:   5    -0.413172930996E+03    0.46975E-01   -0.22482E-02  4786   0.149E-01    0.465E-02
RMM:   6    -0.413173147539E+03   -0.21654E-03   -0.34570E-03  5778   0.571E-02    0.184E-02
RMM:   7    -0.413173166442E+03   -0.18903E-04   -0.40719E-04  5954   0.167E-02    0.149E-02
RMM:   8    -0.413173164681E+03    0.17608E-05   -0.51090E-05  4723   0.601E-03    0.975E-03
RMM:   9    -0.413173159424E+03    0.52569E-05   -0.71654E-06  2992   0.290E-03    0.626E-03
RMM:  10    -0.413173153721E+03    0.57031E-05   -0.28075E-06  2594   0.244E-03    0.280E-03
RMM:  11    -0.413173149717E+03    0.40040E-05   -0.14929E-06  2520   0.188E-03    0.128E-03
RMM:  12    -0.413173146609E+03    0.31085E-05   -0.76024E-07  2452   0.141E-03    0.444E-04
RMM:  13    -0.413173145007E+03    0.16017E-05   -0.33943E-07  2098   0.978E-04    0.319E-04
RMM:  14    -0.413173142481E+03    0.25262E-05   -0.23774E-07  1715   0.816E-04    0.219E-04
RMM:  15    -0.413173140363E+03    0.21176E-05   -0.14971E-07  1414   0.708E-04    0.111E-04
RMM:  16    -0.413173139459E+03    0.90435E-06   -0.83099E-08  1132   0.624E-04
   22 T=    63. E= -.41286611E+03 F= -.41317314E+03 E0= -.41315120E+03  EK= 0.30703E+00 SP= 0.00E+00 SK= 0.00E+00
       N       E                     dE             d eps       ncg     rms          rms(c)
RMM:   1    -0.413164417227E+03    0.87231E-02   -0.11474E+01  4295   0.791E-01    0.916E-01
RMM:   2    -0.413174691564E+03   -0.10274E-01   -0.13936E-01  4280   0.106E-01    0.636E-01
RMM:   3    -0.413174189009E+03    0.50255E-03   -0.68050E-03  4857   0.453E-02    0.184E-01
RMM:   4    -0.413211613802E+03   -0.37425E-01   -0.38691E-02  5146   0.164E-01    0.803E-01
RMM:   5    -0.413173520709E+03    0.38093E-01   -0.18636E-02  4799   0.135E-01    0.403E-02
RMM:   6    -0.413173734127E+03   -0.21342E-03   -0.29996E-03  5810   0.520E-02    0.201E-02
RMM:   7    -0.413173744300E+03   -0.10174E-04   -0.32814E-04  5878   0.153E-02    0.148E-02
RMM:   8    -0.413173740300E+03    0.40001E-05   -0.43126E-05  4600   0.570E-03    0.101E-02
RMM:   9    -0.413173732891E+03    0.74092E-05   -0.66570E-06  2984   0.291E-03    0.691E-03
RMM:  10    -0.413173724310E+03    0.85812E-05   -0.24944E-06  2576   0.241E-03    0.328E-03
RMM:  11    -0.413173717841E+03    0.64688E-05   -0.16491E-06  2522   0.201E-03    0.165E-03
RMM:  12    -0.413173713287E+03    0.45543E-05   -0.80681E-07  2458   0.149E-03    0.557E-04
RMM:  13    -0.413173711584E+03    0.17024E-05   -0.35487E-07  2154   0.101E-03    0.356E-04
RMM:  14    -0.413173709548E+03    0.20365E-05   -0.19732E-07  1688   0.793E-04    0.204E-04
RMM:  15    -0.413173705632E+03    0.39154E-05   -0.18084E-07  1669   0.766E-04    0.177E-04
RMM:  16    -0.413173704883E+03    0.74914E-06   -0.73779E-08  1082   0.610E-04
   23 T=    63. E= -.41286585E+03 F= -.41317370E+03 E0= -.41315181E+03  EK= 0.30786E+00 SP= 0.00E+00 SK= 0.00E+00
       N       E                     dE             d eps       ncg     rms          rms(c)
RMM:   1    -0.413165052267E+03    0.86534E-02   -0.11460E+01  4293   0.796E-01    0.894E-01
RMM:   2    -0.413176845875E+03   -0.11794E-01   -0.14287E-01  4276   0.107E-01    0.643E-01
RMM:   3    -0.413175643441E+03    0.12024E-02   -0.62406E-03  4797   0.410E-02    0.173E-01
RMM:   4    -0.413205490904E+03   -0.29847E-01   -0.30517E-02  5152   0.145E-01    0.719E-01
RMM:   5    -0.413175161864E+03    0.30329E-01   -0.15045E-02  4803   0.120E-01    0.343E-02
RMM:   6    -0.413175336776E+03   -0.17491E-03   -0.23729E-03  5810   0.458E-02    0.173E-02
RMM:   7    -0.413175347613E+03   -0.10837E-04   -0.25159E-04  5781   0.134E-02    0.126E-02
RMM:   8    -0.413175346554E+03    0.10586E-05   -0.34821E-05  4435   0.517E-03    0.894E-03
RMM:   9    -0.413175342252E+03    0.43020E-05   -0.56848E-06  2945   0.278E-03    0.619E-03
RMM:  10    -0.413175338753E+03    0.34998E-05   -0.20365E-06  2549   0.219E-03    0.306E-03
RMM:  11    -0.413175336298E+03    0.24549E-05   -0.15481E-06  2526   0.189E-03    0.156E-03
RMM:  12    -0.413175334479E+03    0.18182E-05   -0.68854E-07  2425   0.137E-03    0.570E-04
RMM:  13    -0.413175333775E+03    0.70488E-06   -0.30719E-07  2045   0.940E-04
   24 T=    63. E= -.41286622E+03 F= -.41317533E+03 E0= -.41315349E+03  EK= 0.30912E+00 SP= 0.00E+00 SK= 0.00E+00
       N       E                     dE             d eps       ncg     rms          rms(c)
RMM:   1    -0.413166481034E+03    0.88534E-02   -0.11581E+01  4295   0.805E-01    0.910E-01
RMM:   2    -0.413177883277E+03   -0.11402E-01   -0.14262E-01  4276   0.108E-01    0.649E-01
RMM:   3    -0.413176665092E+03    0.12182E-02   -0.63990E-03  4796   0.431E-02    0.175E-01
RMM:   4    -0.413206788725E+03   -0.30124E-01   -0.30624E-02  5147   0.146E-01    0.722E-01
RMM:   5    -0.413176168950E+03    0.30620E-01   -0.15061E-02  4805   0.120E-01    0.346E-02
RMM:   6    -0.413176337906E+03   -0.16896E-03   -0.23936E-03  5814   0.461E-02    0.176E-02
RMM:   7    -0.413176347443E+03   -0.95373E-05   -0.25062E-04  5803   0.134E-02    0.128E-02
RMM:   8    -0.413176345488E+03    0.19552E-05   -0.34768E-05  4436   0.520E-03    0.910E-03
RMM:   9    -0.413176340003E+03    0.54848E-05   -0.56781E-06  2944   0.282E-03    0.624E-03
RMM:  10    -0.413176334985E+03    0.50179E-05   -0.20637E-06  2551   0.225E-03    0.306E-03
RMM:  11    -0.413176331106E+03    0.38794E-05   -0.15630E-06  2530   0.191E-03    0.157E-03
RMM:  12    -0.413176328304E+03    0.28020E-05   -0.68888E-07  2427   0.139E-03    0.560E-04
RMM:  13    -0.413176327215E+03    0.10887E-05   -0.30567E-07  2061   0.939E-04    0.337E-04
RMM:  14    -0.413176325792E+03    0.14234E-05   -0.17449E-07  1575   0.759E-04    0.193E-04
RMM:  15    -0.413176323060E+03    0.27318E-05   -0.16625E-07  1635   0.751E-04    0.194E-04
RMM:  16    -0.413176322422E+03    0.63806E-06   -0.63777E-08  1020   0.599E-04
   25 T=    63. E= -.41286608E+03 F= -.41317632E+03 E0= -.41315452E+03  EK= 0.31025E+00 SP= 0.00E+00 SK= 0.00E+00
       N       E                     dE             d eps       ncg     rms          rms(c)
RMM:   1    -0.413167844889E+03    0.84782E-02   -0.11612E+01  4293   0.814E-01    0.926E-01
RMM:   2    -0.413178210123E+03   -0.10365E-01   -0.14161E-01  4271   0.106E-01    0.641E-01
RMM:   3    -0.413177726970E+03    0.48315E-03   -0.66745E-03  4796   0.392E-02    0.176E-01
RMM:   4    -0.413202920713E+03   -0.25194E-01   -0.25557E-02  5155   0.133E-01    0.662E-01
RMM:   5    -0.413177355508E+03    0.25565E-01   -0.12766E-02  4809   0.110E-01    0.333E-02
RMM:   6    -0.413177491302E+03   -0.13579E-03   -0.19845E-03  5817   0.418E-02    0.177E-02
RMM:   7    -0.413177494570E+03   -0.32675E-05   -0.19946E-04  5655   0.121E-02    0.117E-02
RMM:   8    -0.413177489613E+03    0.49563E-05   -0.28368E-05  4213   0.473E-03    0.850E-03
RMM:   9    -0.413177481796E+03    0.78173E-05   -0.55773E-06  2980   0.282E-03    0.577E-03
RMM:  10    -0.413177473507E+03    0.82887E-05   -0.17346E-06  2532   0.215E-03    0.288E-03
RMM:  11    -0.413177465930E+03    0.75768E-05   -0.13859E-06  2511   0.185E-03    0.147E-03
RMM:  12    -0.413177460857E+03    0.50739E-05   -0.60485E-07  2409   0.133E-03    0.533E-04
RMM:  13    -0.413177459108E+03    0.17481E-05   -0.26017E-07  1984   0.896E-04    0.331E-04
RMM:  14    -0.413177457035E+03    0.20731E-05   -0.13764E-07  1460   0.721E-04    0.187E-04
RMM:  15    -0.413177452204E+03    0.48314E-05   -0.15713E-07  1749   0.758E-04    0.245E-04
RMM:  16    -0.413177451316E+03    0.88793E-06   -0.51513E-08   951   0.576E-04
   26 T=    63. E= -.41286592E+03 F= -.41317745E+03 E0= -.41315570E+03  EK= 0.31154E+00 SP= 0.00E+00 SK= 0.00E+00
       N       E                     dE             d eps       ncg     rms          rms(c)
RMM:   1    -0.413169901417E+03    0.75508E-02   -0.11586E+01  4297   0.826E-01    0.901E-01
RMM:   2    -0.413180587668E+03   -0.10686E-01   -0.14308E-01  4288   0.105E-01    0.643E-01
RMM:   3    -0.413179788937E+03    0.79873E-03   -0.63609E-03  4805   0.429E-02    0.177E-01
RMM:   4    -0.413210017543E+03   -0.30229E-01   -0.30651E-02  5156   0.146E-01    0.723E-01
RMM:   5    -0.413179349719E+03    0.30668E-01   -0.15384E-02  4808   0.120E-01    0.341E-02
RMM:   6    -0.413179510077E+03   -0.16036E-03   -0.23012E-03  5820   0.462E-02    0.176E-02
RMM:   7    -0.413179518257E+03   -0.81802E-05   -0.24951E-04  5805   0.134E-02    0.127E-02
RMM:   8    -0.413179515778E+03    0.24790E-05   -0.34398E-05  4427   0.516E-03    0.901E-03
RMM:   9    -0.413179510045E+03    0.57334E-05   -0.56223E-06  2946   0.280E-03    0.618E-03
RMM:  10    -0.413179504520E+03    0.55251E-05   -0.20419E-06  2549   0.223E-03    0.302E-03
RMM:  11    -0.413179500393E+03    0.41261E-05   -0.15420E-06  2524   0.190E-03    0.151E-03
RMM:  12    -0.413179497471E+03    0.29221E-05   -0.68362E-07  2425   0.139E-03    0.535E-04
RMM:  13    -0.413179496349E+03    0.11228E-05   -0.29979E-07  2059   0.935E-04    0.331E-04
RMM:  14    -0.413179494877E+03    0.14712E-05   -0.16629E-07  1550   0.752E-04    0.188E-04
RMM:  15    -0.413179492346E+03    0.25311E-05   -0.14105E-07  1532   0.726E-04    0.168E-04
RMM:  16    -0.413179491686E+03    0.66027E-06   -0.57344E-08   968   0.597E-04
   27 T=    64. E= -.41286626E+03 F= -.41317949E+03 E0= -.41315779E+03  EK= 0.31323E+00 SP= 0.00E+00 SK= 0.00E+00
       N       E                     dE             d eps       ncg     rms          rms(c)
RMM:   1    -0.413172615338E+03    0.68770E-02   -0.11739E+01  4297   0.839E-01    0.909E-01
RMM:   2    -0.413181645296E+03   -0.90300E-02   -0.14775E-01  4271   0.110E-01    0.655E-01
RMM:   3    -0.413180617304E+03    0.10280E-02   -0.64301E-03  4727   0.426E-02    0.174E-01
RMM:   4    -0.413205494424E+03   -0.24877E-01   -0.25271E-02  5149   0.133E-01    0.659E-01
RMM:   5    -0.413180150891E+03    0.25344E-01   -0.12634E-02  4803   0.109E-01    0.309E-02
RMM:   6    -0.413180278337E+03   -0.12745E-03   -0.19388E-03  5816   0.418E-02    0.161E-02
RMM:   7    -0.413180284700E+03   -0.63632E-05   -0.19517E-04  5674   0.118E-02    0.111E-02
RMM:   8    -0.413180283066E+03    0.16343E-05   -0.27840E-05  4215   0.469E-03    0.823E-03
RMM:   9    -0.413180278105E+03    0.49604E-05   -0.53338E-06  2952   0.279E-03    0.562E-03
RMM:  10    -0.413180273873E+03    0.42323E-05   -0.17660E-06  2532   0.214E-03    0.283E-03
RMM:  11    -0.413180270238E+03    0.36355E-05   -0.13880E-06  2514   0.182E-03    0.146E-03
RMM:  12    -0.413180267614E+03    0.26237E-05   -0.59338E-07  2395   0.130E-03    0.538E-04
RMM:  13    -0.413180266567E+03    0.10471E-05   -0.25807E-07  1972   0.885E-04    0.316E-04
RMM:  14    -0.413180265003E+03    0.15639E-05   -0.14835E-07  1484   0.735E-04    0.173E-04
RMM:  15    -0.413180262600E+03    0.24028E-05   -0.12912E-07  1524   0.714E-04    0.177E-04
RMM:  16    -0.413180261951E+03    0.64902E-06   -0.49130E-08   933   0.584E-04
   28 T=    64. E= -.41286551E+03 F= -.41318026E+03 E0= -.41315861E+03  EK= 0.31475E+00 SP= 0.00E+00 SK= 0.00E+00
       N       E                     dE             d eps       ncg     rms          rms(c)
RMM:   1    -0.413172991806E+03    0.72708E-02   -0.11804E+01  4292   0.840E-01    0.934E-01
RMM:   2    -0.413183432401E+03   -0.10441E-01   -0.14493E-01  4270   0.112E-01    0.647E-01
RMM:   3    -0.413182866959E+03    0.56544E-03   -0.68617E-03  4637   0.440E-02    0.177E-01
RMM:   4    -0.413202178868E+03   -0.19312E-01   -0.19344E-02  5153   0.117E-01    0.580E-01
RMM:   5    -0.413182682116E+03    0.19497E-01   -0.97508E-03  4810   0.956E-02    0.295E-02
RMM:   6    -0.413182773780E+03   -0.91664E-04   -0.15136E-03  5842   0.363E-02    0.165E-02
RMM:   7    -0.413182775104E+03   -0.13243E-05   -0.14304E-04  5450   0.103E-02    0.104E-02
RMM:   8    -0.413182767288E+03    0.78162E-05   -0.17429E-05  3634   0.393E-03    0.692E-03
RMM:   9    -0.413182760956E+03    0.63314E-05   -0.51279E-06  2940   0.282E-03    0.475E-03
RMM:  10    -0.413182754035E+03    0.69210E-05   -0.13644E-06  2519   0.199E-03    0.256E-03
RMM:  11    -0.413182745956E+03    0.80798E-05   -0.12254E-06  2513   0.174E-03    0.131E-03
RMM:  12    -0.413182741212E+03    0.47437E-05   -0.47463E-07  2360   0.121E-03    0.499E-04
RMM:  13    -0.413182739591E+03    0.16210E-05   -0.19938E-07  1766   0.818E-04    0.297E-04
RMM:  14    -0.413182736647E+03    0.29434E-05   -0.12223E-07  1433   0.708E-04    0.145E-04
RMM:  15    -0.413182732559E+03    0.40882E-05   -0.10956E-07  1529   0.696E-04    0.182E-04
RMM:  16    -0.413182731382E+03    0.11777E-05   -0.41072E-08   911   0.568E-04    0.117E-04
RMM:  17    -0.413182727525E+03    0.38563E-05   -0.66164E-08  1224   0.622E-04    0.578E-05
RMM:  18    -0.413182725742E+03    0.17830E-05   -0.33548E-08   937   0.561E-04    0.350E-05
RMM:  19    -0.413182725094E+03    0.64853E-06   -0.18311E-08   764   0.529E-04
   29 T=    64. E= -.41286600E+03 F= -.41318273E+03 E0= -.41316113E+03  EK= 0.31672E+00 SP= 0.00E+00 SK= 0.00E+00
       N       E                     dE             d eps       ncg     rms          rms(c)
RMM:   1    -0.413174646303E+03    0.80794E-02   -0.11769E+01  4290   0.853E-01    0.912E-01
RMM:   2    -0.413185474836E+03   -0.10829E-01   -0.14789E-01  4271   0.113E-01    0.647E-01
RMM:   3    -0.413184417516E+03    0.10573E-02   -0.64423E-03  4482   0.447E-02    0.174E-01
RMM:   4    -0.413194855130E+03   -0.10438E-01   -0.10796E-02  5152   0.903E-02    0.430E-01
RMM:   5    -0.413184273231E+03    0.10582E-01   -0.51859E-03  4817   0.702E-02    0.228E-02
RMM:   6    -0.413184310003E+03   -0.36772E-04   -0.83315E-04  5858   0.265E-02    0.141E-02
RMM:   7    -0.413184309388E+03    0.61506E-06   -0.88136E-05  5367   0.870E-03    0.974E-03
RMM:   8    -0.413184302245E+03    0.71427E-05   -0.11272E-05  3438   0.373E-03    0.549E-03
RMM:   9    -0.413184296663E+03    0.55822E-05   -0.24721E-06  2623   0.238E-03    0.330E-03
RMM:  10    -0.413184290938E+03    0.57253E-05   -0.99517E-07  2496   0.166E-03    0.170E-03
RMM:  11    -0.413184286359E+03    0.45785E-05   -0.62354E-07  2436   0.128E-03    0.799E-04
RMM:  12    -0.413184282945E+03    0.34145E-05   -0.31699E-07  2077   0.951E-04    0.316E-04
RMM:  13    -0.413184281188E+03    0.17566E-05   -0.15175E-07  1391   0.727E-04    0.168E-04
RMM:  14    -0.413184278559E+03    0.26287E-05   -0.10894E-07  1272   0.681E-04    0.116E-04
RMM:  15    -0.413184275746E+03    0.28130E-05   -0.84754E-08  1211   0.656E-04    0.724E-05
RMM:  16    -0.413184274395E+03    0.13518E-05   -0.52148E-08  1053   0.599E-04    0.646E-05
RMM:  17    -0.413184272075E+03    0.23192E-05   -0.53766E-08  1117   0.595E-04    0.295E-05
RMM:  18    -0.413184270544E+03    0.15312E-05   -0.35245E-08   947   0.555E-04    0.196E-05
RMM:  19    -0.413184270387E+03    0.15731E-06   -0.13762E-08   673   0.507E-04
   30 T=    65. E= -.41286584E+03 F= -.41318427E+03 E0= -.41316272E+03  EK= 0.31843E+00 SP= 0.00E+00 SK= 0.00E+00
       N       E                     dE             d eps       ncg     rms          rms(c)
RMM:   1    -0.413176859042E+03    0.74115E-02   -0.11907E+01  4290   0.877E-01    0.912E-01
RMM:   2    -0.413188099266E+03   -0.11240E-01   -0.15269E-01  4281   0.124E-01    0.661E-01
RMM:   3    -0.413186172373E+03    0.19269E-02   -0.62469E-03  4278   0.427E-02    0.169E-01
RMM:   4    -0.413187538068E+03   -0.13657E-02   -0.22877E-03  5097   0.401E-02    0.158E-01
RMM:   5    -0.413186126178E+03    0.14119E-02   -0.67545E-04  4789   0.260E-02    0.160E-02
RMM:   6    -0.413186121015E+03    0.51640E-05   -0.13269E-04  5572   0.118E-02    0.118E-02
RMM:   7    -0.413186117022E+03    0.39923E-05   -0.22980E-05  4319   0.543E-03    0.502E-03
RMM:   8    -0.413186112675E+03    0.43469E-05   -0.43345E-06  2856   0.293E-03    0.241E-03
RMM:   9    -0.413186110967E+03    0.17089E-05   -0.74548E-07  2474   0.159E-03    0.125E-03
RMM:  10    -0.413186108453E+03    0.25136E-05   -0.46471E-07  2263   0.107E-03    0.707E-04
RMM:  11    -0.413186106328E+03    0.21248E-05   -0.26625E-07  1663   0.821E-04    0.302E-04
RMM:  12    -0.413186104263E+03    0.20648E-05   -0.18348E-07  1477   0.744E-04    0.159E-04
RMM:  13    -0.413186102357E+03    0.19066E-05   -0.12012E-07  1228   0.668E-04    0.910E-05
RMM:  14    -0.413186100514E+03    0.18426E-05   -0.91640E-08  1186   0.631E-04    0.575E-05
RMM:  15    -0.413186098945E+03    0.15692E-05   -0.57064E-08   967   0.580E-04    0.329E-05
RMM:  16    -0.413186097628E+03    0.13174E-05   -0.43345E-08   910   0.559E-04    0.225E-05
RMM:  17    -0.413186097043E+03    0.58467E-06   -0.21927E-08   716   0.525E-04
   31 T=    65. E= -.41286584E+03 F= -.41318610E+03 E0= -.41316460E+03  EK= 0.32025E+00 SP= 0.00E+00 SK= 0.00E+00
       N       E                     dE             d eps       ncg     rms          rms(c)
RMM:   1    -0.413184812656E+03    0.12850E-02   -0.12072E+01  4284   0.925E-01    0.939E-01
RMM:   2    -0.413189716997E+03   -0.49043E-02   -0.15381E-01  4264   0.120E-01    0.656E-01
RMM:   3    -0.413188639841E+03    0.10772E-02   -0.67793E-03  4208   0.458E-02    0.178E-01
RMM:   4    -0.413189028466E+03   -0.38863E-03   -0.12637E-03  4850   0.351E-02    0.703E-02
RMM:   5    -0.413188773825E+03    0.25464E-03   -0.13108E-04  4668   0.127E-02    0.196E-02
RMM:   6    -0.413188759802E+03    0.14022E-04   -0.61131E-05  5238   0.863E-03    0.137E-02
RMM:   7    -0.413188746260E+03    0.13542E-04   -0.15758E-05  3752   0.519E-03    0.462E-03
RMM:   8    -0.413188737589E+03    0.86714E-05   -0.30551E-06  2634   0.277E-03    0.220E-03
RMM:   9    -0.413188733256E+03    0.43326E-05   -0.57185E-07  2280   0.146E-03    0.118E-03
RMM:  10    -0.413188727854E+03    0.54027E-05   -0.30189E-07  1826   0.931E-04    0.508E-04
RMM:  11    -0.413188722510E+03    0.53440E-05   -0.16687E-07  1425   0.740E-04    0.213E-04
RMM:  12    -0.413188718216E+03    0.42939E-05   -0.94063E-08  1221   0.651E-04    0.137E-04
RMM:  13    -0.413188713594E+03    0.46215E-05   -0.78733E-08  1122   0.619E-04    0.827E-05
RMM:  14    -0.413188709275E+03    0.43194E-05   -0.56949E-08  1014   0.587E-04    0.673E-05
RMM:  15    -0.413188706883E+03    0.23921E-05   -0.34996E-08   864   0.537E-04    0.447E-05
RMM:  16    -0.413188704654E+03    0.22287E-05   -0.30410E-08   758   0.517E-04    0.240E-05
RMM:  17    -0.413188704293E+03    0.36083E-06   -0.95377E-09   510   0.470E-04
   32 T=    66. E= -.41286635E+03 F= -.41318870E+03 E0= -.41316725E+03  EK= 0.32235E+00 SP= 0.00E+00 SK= 0.00E+00
       N       E                     dE             d eps       ncg     rms          rms(c)
RMM:   1    -0.413181963068E+03    0.67416E-02   -0.11995E+01  4286   0.913E-01    0.927E-01
RMM:   2    -0.413191828056E+03   -0.98650E-02   -0.15392E-01  4269   0.130E-01    0.651E-01
RMM:   3    -0.413190633318E+03    0.11947E-02   -0.63715E-03  4333   0.413E-02    0.179E-01
RMM:   4    -0.413192900323E+03   -0.22670E-02   -0.30367E-03  5131   0.483E-02    0.203E-01
RMM:   5    -0.413190613179E+03    0.22871E-02   -0.11305E-03  4808   0.335E-02    0.194E-02
RMM:   6    -0.413190600239E+03    0.12940E-04   -0.20899E-04  5643   0.149E-02    0.134E-02
RMM:   7    -0.413190592323E+03    0.79155E-05   -0.32635E-05  4576   0.603E-03    0.606E-03
RMM:   8    -0.413190583311E+03    0.90122E-05   -0.58434E-06  3045   0.317E-03    0.294E-03
RMM:   9    -0.413190578023E+03    0.52880E-05   -0.94095E-07  2482   0.177E-03    0.137E-03
RMM:  10    -0.413190572184E+03    0.58387E-05   -0.50946E-07  2339   0.115E-03    0.771E-04
RMM:  11    -0.413190567308E+03    0.48767E-05   -0.28075E-07  1842   0.882E-04    0.348E-04
RMM:  12    -0.413190562235E+03    0.50727E-05   -0.18863E-07  1580   0.776E-04    0.155E-04
RMM:  13    -0.413190559323E+03    0.29121E-05   -0.10701E-07  1210   0.672E-04    0.101E-04
RMM:  14    -0.413190555332E+03    0.39911E-05   -0.92181E-08  1275   0.654E-04    0.578E-05
RMM:  15    -0.413190551003E+03    0.43285E-05   -0.78118E-08  1216   0.635E-04    0.497E-05
RMM:  16    -0.413190549754E+03    0.12494E-05   -0.38677E-08   839   0.551E-04    0.301E-05
RMM:  17    -0.413190548096E+03    0.16584E-05   -0.32380E-08   852   0.548E-04    0.179E-05
RMM:  18    -0.413190547767E+03    0.32811E-06   -0.16563E-08   636   0.509E-04
   33 T=    66. E= -.41286618E+03 F= -.41319055E+03 E0= -.41316915E+03  EK= 0.32437E+00 SP= 0.00E+00 SK= 0.00E+00
       N       E                     dE             d eps       ncg     rms          rms(c)
RMM:   1    -0.413183592053E+03    0.69560E-02   -0.12113E+01  4291   0.918E-01    0.916E-01
RMM:   2    -0.413194596806E+03   -0.11005E-01   -0.15764E-01  4255   0.126E-01    0.665E-01
RMM:   3    -0.413193419133E+03    0.11777E-02   -0.63027E-03  4524   0.485E-02    0.180E-01
RMM:   4    -0.413207186283E+03   -0.13767E-01   -0.13902E-02  5160   0.102E-01    0.493E-01
RMM:   5    -0.413193357245E+03    0.13829E-01   -0.68906E-03  4812   0.811E-02    0.251E-02
RMM:   6    -0.413193341608E+03    0.15637E-04   -0.10257E-03  5834   0.317E-02    0.139E-02
RMM:   7    -0.413193345749E+03   -0.41414E-05   -0.11694E-04  5496   0.992E-03    0.101E-02
RMM:   8    -0.413193340646E+03    0.51035E-05   -0.15566E-05  3817   0.406E-03    0.606E-03
RMM:   9    -0.413193336825E+03    0.38205E-05   -0.31076E-06  2689   0.256E-03    0.330E-03
RMM:  10    -0.413193332511E+03    0.43142E-05   -0.11749E-06  2509   0.176E-03    0.156E-03
RMM:  11    -0.413193329075E+03    0.34362E-05   -0.72240E-07  2465   0.134E-03    0.810E-04
RMM:  12    -0.413193326208E+03    0.28670E-05   -0.37489E-07  2178   0.101E-03    0.351E-04
RMM:  13    -0.413193324946E+03    0.12618E-05   -0.17062E-07  1436   0.745E-04    0.190E-04
RMM:  14    -0.413193323029E+03    0.19168E-05   -0.11847E-07  1258   0.688E-04    0.117E-04
RMM:  15    -0.413193320759E+03    0.22705E-05   -0.93660E-08  1216   0.660E-04    0.712E-05
RMM:  16    -0.413193320132E+03    0.62702E-06   -0.48458E-08   926   0.591E-04
   34 T=    67. E= -.41286630E+03 F= -.41319332E+03 E0= -.41317197E+03  EK= 0.32702E+00 SP= 0.00E+00 SK= 0.00E+00
       N       E                     dE             d eps       ncg     rms          rms(c)
RMM:   1    -0.413186469125E+03    0.68516E-02   -0.12254E+01  4300   0.942E-01    0.942E-01
RMM:   2    -0.413197306165E+03   -0.10837E-01   -0.15967E-01  4261   0.134E-01    0.665E-01
RMM:   3    -0.413196070551E+03    0.12356E-02   -0.64931E-03  4436   0.416E-02    0.184E-01
RMM:   4    -0.413200137919E+03   -0.40674E-02   -0.48552E-03  5156   0.597E-02    0.274E-01
RMM:   5    -0.413195945020E+03    0.41929E-02   -0.20896E-03  4810   0.451E-02    0.207E-02
RMM:   6    -0.413195931202E+03    0.13818E-04   -0.35749E-04  5710   0.189E-02    0.134E-02
RMM:   7    -0.413195925294E+03    0.59084E-05   -0.49354E-05  4856   0.694E-03    0.680E-03
RMM:   8    -0.413195916817E+03    0.84769E-05   -0.69528E-06  3103   0.324E-03    0.338E-03
RMM:   9    -0.413195911027E+03    0.57893E-05   -0.12847E-06  2523   0.188E-03    0.170E-03
RMM:  10    -0.413195904719E+03    0.63085E-05   -0.60958E-07  2414   0.126E-03    0.965E-04
RMM:  11    -0.413195898896E+03    0.58233E-05   -0.36942E-07  2140   0.989E-04    0.412E-04
RMM:  12    -0.413195893737E+03    0.51587E-05   -0.21638E-07  1651   0.812E-04    0.161E-04
RMM:  13    -0.413195890519E+03    0.32181E-05   -0.12393E-07  1266   0.697E-04    0.107E-04
RMM:  14    -0.413195886486E+03    0.40329E-05   -0.96322E-08  1261   0.672E-04    0.644E-05
RMM:  15    -0.413195881352E+03    0.51339E-05   -0.93817E-08  1430   0.672E-04    0.698E-05
RMM:  16    -0.413195880416E+03    0.93562E-06   -0.40095E-08   882   0.559E-04
   35 T=    67. E= -.41286612E+03 F= -.41319588E+03 E0= -.41317457E+03  EK= 0.32976E+00 SP= 0.00E+00 SK= 0.00E+00
       N       E                     dE             d eps       ncg     rms          rms(c)
RMM:   1    -0.413190060955E+03    0.58204E-02   -0.12314E+01  4297   0.968E-01    0.945E-01
RMM:   2    -0.413199178749E+03   -0.91178E-02   -0.15854E-01  4254   0.122E-01    0.658E-01
RMM:   3    -0.413198458432E+03    0.72032E-03   -0.68150E-03  4802   0.445E-02    0.197E-01
RMM:   4    -0.413228145048E+03   -0.29687E-01   -0.29855E-02  5154   0.145E-01    0.718E-01
RMM:   5    -0.413198150331E+03    0.29995E-01   -0.15126E-02  4799   0.120E-01    0.360E-02
RMM:   6    -0.413198188064E+03   -0.37733E-04   -0.23731E-03  5850   0.459E-02    0.182E-02
RMM:   7    -0.413198199850E+03   -0.11786E-04   -0.24523E-04  5755   0.133E-02    0.129E-02
RMM:   8    -0.413198193276E+03    0.65745E-05   -0.31648E-05  4335   0.507E-03    0.897E-03
RMM:   9    -0.413198186872E+03    0.64040E-05   -0.70781E-06  3167   0.324E-03    0.591E-03
RMM:  10    -0.413198176436E+03    0.10435E-04   -0.22688E-06  2561   0.254E-03    0.259E-03
RMM:  11    -0.413198168862E+03    0.75740E-05   -0.14123E-06  2506   0.189E-03    0.142E-03
RMM:  12    -0.413198161711E+03    0.71517E-05   -0.66674E-07  2445   0.144E-03    0.539E-04
RMM:  13    -0.413198159076E+03    0.26343E-05   -0.28663E-07  2117   0.956E-04    0.369E-04
RMM:  14    -0.413198156483E+03    0.25929E-05   -0.13615E-07  1499   0.727E-04    0.213E-04
RMM:  15    -0.413198150365E+03    0.61184E-05   -0.11682E-07  1585   0.720E-04    0.193E-04
RMM:  16    -0.413198149299E+03    0.10662E-05   -0.43544E-08   915   0.578E-04    0.120E-04
RMM:  17    -0.413198144947E+03    0.43521E-05   -0.55719E-08  1182   0.616E-04    0.928E-05
RMM:  18    -0.413198143051E+03    0.18957E-05   -0.32412E-08   946   0.561E-04    0.276E-05
RMM:  19    -0.413198141901E+03    0.11496E-05   -0.23462E-08   848   0.549E-04    0.380E-05
RMM:  20    -0.413198141644E+03    0.25722E-06   -0.11307E-08   707   0.526E-04
   36 T=    68. E= -.41286594E+03 F= -.41319814E+03 E0= -.41317688E+03  EK= 0.33220E+00 SP= 0.00E+00 SK= 0.00E+00
       N       E                     dE             d eps       ncg     rms          rms(c)
RMM:   1    -0.413190727117E+03    0.74148E-02   -0.12358E+01  4299   0.987E-01    0.926E-01
RMM:   2    -0.413202867653E+03   -0.12141E-01   -0.16485E-01  4252   0.134E-01    0.670E-01
RMM:   3    -0.413201535915E+03    0.13317E-02   -0.65815E-03  4838   0.508E-02    0.206E-01
RMM:   4    -0.413244232516E+03   -0.42697E-01   -0.43748E-02  5151   0.175E-01    0.857E-01
RMM:   5    -0.413200860807E+03    0.43372E-01   -0.21822E-02  4793   0.144E-01    0.412E-02
RMM:   6    -0.413200961198E+03   -0.10039E-03   -0.34257E-03  5844   0.549E-02    0.192E-02
RMM:   7    -0.413200981478E+03   -0.20281E-04   -0.34283E-04  5733   0.153E-02    0.133E-02
RMM:   8    -0.413200978296E+03    0.31828E-05   -0.37493E-05  3998   0.500E-03    0.905E-03
RMM:   9    -0.413200970417E+03    0.78786E-05   -0.70237E-06  3007   0.329E-03    0.416E-03
RMM:  10    -0.413200967840E+03    0.25766E-05   -0.28922E-06  2621   0.237E-03    0.284E-03
RMM:  11    -0.413200962094E+03    0.57459E-05   -0.13223E-06  2497   0.198E-03    0.135E-03
RMM:  12    -0.413200958317E+03    0.37772E-05   -0.62239E-07  2425   0.135E-03    0.545E-04
RMM:  13    -0.413200956929E+03    0.13882E-05   -0.28876E-07  2028   0.933E-04    0.343E-04
RMM:  14    -0.413200953997E+03    0.29314E-05   -0.17565E-07  1646   0.779E-04    0.212E-04
RMM:  15    -0.413200951323E+03    0.26749E-05   -0.10192E-07  1263   0.680E-04    0.961E-05
RMM:  16    -0.413200949620E+03    0.17022E-05   -0.67194E-08  1148   0.630E-04    0.748E-05
RMM:  17    -0.413200947829E+03    0.17910E-05   -0.47654E-08  1037   0.603E-04    0.360E-05
RMM:  18    -0.413200945467E+03    0.23627E-05   -0.50103E-08  1156   0.611E-04    0.295E-05
RMM:  19    -0.413200945134E+03    0.33273E-06   -0.18120E-08   780   0.542E-04
   37 T=    68. E= -.41286604E+03 F= -.41320095E+03 E0= -.41317972E+03  EK= 0.33491E+00 SP= 0.00E+00 SK= 0.00E+00
       N       E                     dE             d eps       ncg     rms          rms(c)
RMM:   1    -0.413196231753E+03    0.47137E-02   -0.12558E+01  4306   0.105E+00    0.946E-01
RMM:   2    -0.413205686179E+03   -0.94544E-02   -0.16473E-01  4250   0.128E-01    0.675E-01
RMM:   3    -0.413204293625E+03    0.13926E-02   -0.67981E-03  4806   0.490E-02    0.203E-01
RMM:   4    -0.413240517882E+03   -0.36224E-01   -0.36753E-02  5149   0.160E-01    0.792E-01
RMM:   5    -0.413203755800E+03    0.36762E-01   -0.18579E-02  4801   0.133E-01    0.386E-02
RMM:   6    -0.413203820599E+03   -0.64800E-04   -0.29035E-03  5845   0.503E-02    0.184E-02
RMM:   7    -0.413203837077E+03   -0.16478E-04   -0.29714E-04  5750   0.143E-02    0.131E-02
RMM:   8    -0.413203831824E+03    0.52534E-05   -0.36077E-05  4360   0.520E-03    0.919E-03
RMM:   9    -0.413203827777E+03    0.40469E-05   -0.89073E-06  3372   0.330E-03    0.639E-03
RMM:  10    -0.413203819416E+03    0.83611E-05   -0.24168E-06  2548   0.255E-03    0.284E-03
RMM:  11    -0.413203813425E+03    0.59906E-05   -0.16120E-06  2512   0.199E-03    0.160E-03
RMM:  12    -0.413203808269E+03    0.51565E-05   -0.72621E-07  2454   0.149E-03    0.587E-04
RMM:  13    -0.413203806306E+03    0.19632E-05   -0.30938E-07  2170   0.990E-04    0.409E-04
RMM:  14    -0.413203804222E+03    0.20834E-05   -0.14890E-07  1571   0.748E-04    0.223E-04
RMM:  15    -0.413203799130E+03    0.50916E-05   -0.13258E-07  1667   0.740E-04    0.226E-04
RMM:  16    -0.413203798445E+03    0.68535E-06   -0.45010E-08   935   0.580E-04
   38 T=    69. E= -.41286637E+03 F= -.41320380E+03 E0= -.41318262E+03  EK= 0.33743E+00 SP= 0.00E+00 SK= 0.00E+00
       N       E                     dE             d eps       ncg     rms          rms(c)
RMM:   1    -0.413202698567E+03    0.11006E-02   -0.12663E+01  4303   0.109E+00    0.961E-01
RMM:   2    -0.413207125109E+03   -0.44265E-02   -0.16927E-01  4269   0.128E-01    0.668E-01
RMM:   3    -0.413206816492E+03    0.30862E-03   -0.75012E-03  5013   0.549E-02    0.238E-01
RMM:   4    -0.413258719906E+03   -0.51903E-01   -0.56110E-02  5129   0.196E-01    0.947E-01
RMM:   5    -0.413205612866E+03    0.53107E-01   -0.26255E-02  4786   0.160E-01    0.488E-02
RMM:   6    -0.413205745999E+03   -0.13313E-03   -0.41592E-03  5827   0.608E-02    0.210E-02
RMM:   7    -0.413205768203E+03   -0.22204E-04   -0.43331E-04  5856   0.173E-02    0.150E-02
RMM:   8    -0.413205766503E+03    0.17001E-05   -0.58408E-05  4781   0.630E-03    0.114E-02
RMM:   9    -0.413205756802E+03    0.97007E-05   -0.10437E-05  3464   0.353E-03    0.716E-03
RMM:  10    -0.413205745245E+03    0.11558E-04   -0.35935E-06  2661   0.294E-03    0.316E-03
RMM:  11    -0.413205736727E+03    0.85180E-05   -0.16495E-06  2505   0.210E-03    0.170E-03
RMM:  12    -0.413205728494E+03    0.82333E-05   -0.85630E-07  2467   0.162E-03    0.598E-04
RMM:  13    -0.413205724805E+03    0.36889E-05   -0.35871E-07  2260   0.107E-03    0.428E-04
RMM:  14    -0.413205721129E+03    0.36756E-05   -0.18279E-07  1766   0.796E-04    0.314E-04
RMM:  15    -0.413205713263E+03    0.78663E-05   -0.14351E-07  1709   0.754E-04    0.225E-04
RMM:  16    -0.413205712469E+03    0.79373E-06   -0.57460E-08  1016   0.588E-04
   39 T=    69. E= -.41286583E+03 F= -.41320571E+03 E0= -.41318457E+03  EK= 0.33988E+00 SP= 0.00E+00 SK= 0.00E+00
       N       E                     dE             d eps       ncg     rms          rms(c)
RMM:   1    -0.413214022852E+03   -0.83096E-02   -0.12768E+01  4309   0.117E+00    0.938E-01
RMM:   2    -0.413210820432E+03    0.32024E-02   -0.16845E-01  4262   0.132E-01    0.673E-01
RMM:   3    -0.413210407973E+03    0.41246E-03   -0.72761E-03  5024   0.562E-02    0.241E-01
RMM:   4    -0.413264443185E+03   -0.54035E-01   -0.59419E-02  5128   0.202E-01    0.965E-01
RMM:   5    -0.413208983630E+03    0.55460E-01   -0.27257E-02  4781   0.163E-01    0.494E-02
RMM:   6    -0.413209119338E+03   -0.13571E-03   -0.42746E-03  5814   0.615E-02    0.204E-02
RMM:   7    -0.413209143749E+03   -0.24410E-04   -0.45212E-04  5905   0.176E-02    0.150E-02
RMM:   8    -0.413209143810E+03   -0.61274E-07   -0.61855E-05  4861   0.647E-03    0.114E-02
RMM:   9    -0.413209135866E+03    0.79434E-05   -0.10167E-05  3409   0.352E-03    0.690E-03
RMM:  10    -0.413209127955E+03    0.79111E-05   -0.36370E-06  2664   0.287E-03    0.301E-03
RMM:  11    -0.413209122314E+03    0.56417E-05   -0.16721E-06  2509   0.208E-03    0.158E-03
RMM:  12    -0.413209116951E+03    0.53622E-05   -0.84421E-07  2458   0.157E-03    0.592E-04
RMM:  13    -0.413209114424E+03    0.25274E-05   -0.35957E-07  2229   0.106E-03    0.413E-04
RMM:  14    -0.413209111591E+03    0.28329E-05   -0.19222E-07  1738   0.803E-04    0.289E-04
RMM:  15    -0.413209106659E+03    0.49320E-05   -0.14237E-07  1553   0.734E-04    0.173E-04
RMM:  16    -0.413209105738E+03    0.92103E-06   -0.64942E-08  1046   0.604E-04
   40 T=    70. E= -.41286644E+03 F= -.41320911E+03 E0= -.41318800E+03  EK= 0.34267E+00 SP= 0.00E+00 SK= 0.00E+00
       N       E                     dE             d eps       ncg     rms          rms(c)
RMM:   1    -0.413206170549E+03    0.29361E-02   -0.12845E+01  4308   0.119E+00    0.949E-01
RMM:   2    -0.413212294448E+03   -0.61239E-02   -0.17675E-01  4263   0.141E-01    0.685E-01
RMM:   3    -0.413211895219E+03    0.39923E-03   -0.74620E-03  5045   0.571E-02    0.257E-01
RMM:   4    -0.413268793885E+03   -0.56899E-01   -0.63505E-02  5130   0.209E-01    0.991E-01
RMM:   5    -0.413210251125E+03    0.58543E-01   -0.28666E-02  4775   0.167E-01    0.512E-02
RMM:   6    -0.413210401197E+03   -0.15007E-03   -0.44859E-03  5815   0.633E-02    0.207E-02
RMM:   7    -0.413210427915E+03   -0.26718E-04   -0.48323E-04  5920   0.182E-02    0.156E-02
RMM:   8    -0.413210428164E+03   -0.24891E-06   -0.66647E-05  4923   0.674E-03    0.117E-02
RMM:   9    -0.413210420233E+03    0.79306E-05   -0.10115E-05  3368   0.357E-03    0.689E-03
RMM:  10    -0.413210412862E+03    0.73716E-05   -0.39691E-06  2715   0.298E-03    0.299E-03
RMM:  11    -0.413210407469E+03    0.53927E-05   -0.17646E-06  2518   0.214E-03    0.148E-03
RMM:  12    -0.413210402522E+03    0.49474E-05   -0.86330E-07  2466   0.158E-03    0.569E-04
RMM:  13    -0.413210400153E+03    0.23687E-05   -0.36453E-07  2234   0.106E-03    0.413E-04
RMM:  14    -0.413210397326E+03    0.28268E-05   -0.19970E-07  1745   0.807E-04    0.295E-04
RMM:  15    -0.413210393004E+03    0.43224E-05   -0.14410E-07  1523   0.731E-04    0.160E-04
RMM:  16    -0.413210392021E+03    0.98280E-06   -0.68010E-08  1054   0.610E-04
   41 T=    70. E= -.41286569E+03 F= -.41321039E+03 E0= -.41318932E+03  EK= 0.34470E+00 SP= 0.00E+00 SK= 0.00E+00
       N       E                     dE             d eps       ncg     rms          rms(c)
RMM:   1    -0.413215690034E+03   -0.52970E-02   -0.12996E+01  4310   0.127E+00    0.974E-01
RMM:   2    -0.413214433271E+03    0.12568E-02   -0.18051E-01  4290   0.147E-01    0.678E-01
RMM:   3    -0.413217064328E+03   -0.26311E-02   -0.99100E-03  5113   0.737E-02    0.334E-01
RMM:   4    -0.413251716486E+03   -0.34652E-01   -0.50443E-02  5090   0.188E-01    0.818E-01
RMM:   5    -0.413213272543E+03    0.38444E-01   -0.17327E-02  4731   0.136E-01    0.495E-02
RMM:   6    -0.413213313965E+03   -0.41423E-04   -0.28258E-03  5758   0.506E-02    0.183E-02
RMM:   7    -0.413213327952E+03   -0.13987E-04   -0.32937E-04  5903   0.156E-02    0.141E-02
RMM:   8    -0.413213325466E+03    0.24865E-05   -0.49356E-05  4796   0.605E-03    0.949E-03
RMM:   9    -0.413213313728E+03    0.11738E-04   -0.73228E-06  3124   0.364E-03    0.463E-03
RMM:  10    -0.413213303574E+03    0.10154E-04   -0.26892E-06  2568   0.253E-03    0.233E-03
RMM:  11    -0.413213295165E+03    0.84094E-05   -0.10428E-06  2510   0.166E-03    0.972E-04
RMM:  12    -0.413213289672E+03    0.54926E-05   -0.41442E-07  2326   0.112E-03    0.517E-04
RMM:  13    -0.413213284529E+03    0.51430E-05   -0.24288E-07  1680   0.849E-04    0.252E-04
RMM:  14    -0.413213280301E+03    0.42282E-05   -0.15607E-07  1396   0.744E-04    0.153E-04
RMM:  15    -0.413213274935E+03    0.53657E-05   -0.12671E-07  1428   0.714E-04    0.111E-04
RMM:  16    -0.413213270237E+03    0.46979E-05   -0.96372E-08  1364   0.663E-04    0.582E-05
RMM:  17    -0.413213265714E+03    0.45232E-05   -0.77784E-08  1313   0.635E-04    0.558E-05
RMM:  18    -0.413213264623E+03    0.10910E-05   -0.41981E-08   928   0.549E-04    0.383E-05
RMM:  19    -0.413213263772E+03    0.85080E-06   -0.30613E-08   869   0.539E-04
   42 T=    71. E= -.41286628E+03 F= -.41321326E+03 E0= -.41319222E+03  EK= 0.34699E+00 SP= 0.00E+00 SK= 0.00E+00
       N       E                     dE             d eps       ncg     rms          rms(c)
RMM:   1    -0.413215509555E+03   -0.22449E-02   -0.12953E+01  4310   0.134E+00    0.951E-01
RMM:   2    -0.413216406343E+03   -0.89679E-03   -0.17986E-01  4302   0.157E-01    0.677E-01
RMM:   3    -0.413220136646E+03   -0.37303E-02   -0.10636E-02  5107   0.809E-02    0.366E-01
RMM:   4    -0.413249387339E+03   -0.29251E-01   -0.48217E-02  5063   0.185E-01    0.774E-01
RMM:   5    -0.413215232212E+03    0.34155E-01   -0.14953E-02  4709   0.130E-01    0.480E-02
RMM:   6    -0.413215254830E+03   -0.22618E-04   -0.24641E-03  5730   0.474E-02    0.172E-02
RMM:   7    -0.413215265742E+03   -0.10911E-04   -0.27910E-04  5892   0.148E-02    0.135E-02
RMM:   8    -0.413215263721E+03    0.20205E-05   -0.43322E-05  4737   0.578E-03    0.878E-03
RMM:   9    -0.413215253907E+03    0.98141E-05   -0.70641E-06  3127   0.376E-03    0.430E-03
RMM:  10    -0.413215246428E+03    0.74791E-05   -0.25060E-06  2562   0.249E-03    0.232E-03
RMM:  11    -0.413215240708E+03    0.57198E-05   -0.10080E-06  2515   0.160E-03    0.995E-04
RMM:  12    -0.413215236986E+03    0.37226E-05   -0.41930E-07  2300   0.110E-03    0.513E-04
RMM:  13    -0.413215232459E+03    0.45270E-05   -0.29422E-07  1768   0.891E-04    0.268E-04
RMM:  14    -0.413215230152E+03    0.23062E-05   -0.16993E-07  1354   0.740E-04    0.147E-04
RMM:  15    -0.413215226499E+03    0.36533E-05   -0.12998E-07  1244   0.702E-04    0.879E-05
RMM:  16    -0.413215222533E+03    0.39662E-05   -0.10967E-07  1303   0.682E-04    0.479E-05
RMM:  17    -0.413215219487E+03    0.30460E-05   -0.83183E-08  1272   0.641E-04    0.406E-05
RMM:  18    -0.413215217990E+03    0.14968E-05   -0.50590E-08   999   0.573E-04    0.290E-05
RMM:  19    -0.413215217160E+03    0.82991E-06   -0.35082E-08   871   0.542E-04
   43 T=    71. E= -.41286627E+03 F= -.41321522E+03 E0= -.41319421E+03  EK= 0.34895E+00 SP= 0.00E+00 SK= 0.00E+00
       N       E                     dE             d eps       ncg     rms          rms(c)
RMM:   1    -0.413242865441E+03   -0.27647E-01   -0.13349E+01  4311   0.152E+00    0.951E-01
RMM:   2    -0.413217966293E+03    0.24899E-01   -0.20491E-01  4316   0.176E-01    0.695E-01
RMM:   3    -0.413223113691E+03   -0.51474E-02   -0.11969E-02  5113   0.909E-02    0.420E-01
RMM:   4    -0.413248247022E+03   -0.25133E-01   -0.48928E-02  5054   0.188E-01    0.753E-01
RMM:   5    -0.413216508165E+03    0.31739E-01   -0.13696E-02  4683   0.127E-01    0.505E-02
RMM:   6    -0.413216509438E+03   -0.12729E-05   -0.23122E-03  5687   0.459E-02    0.176E-02
RMM:   7    -0.413216519122E+03   -0.96840E-05   -0.27115E-04  5911   0.149E-02    0.139E-02
RMM:   8    -0.413216516991E+03    0.21310E-05   -0.40981E-05  4727   0.579E-03    0.882E-03
RMM:   9    -0.413216508695E+03    0.82965E-05   -0.84257E-06  3312   0.416E-03    0.454E-03
RMM:  10    -0.413216502867E+03    0.58281E-05   -0.27968E-06  2600   0.264E-03    0.271E-03
RMM:  11    -0.413216498857E+03    0.40095E-05   -0.12629E-06  2529   0.176E-03    0.112E-03
RMM:  12    -0.413216496479E+03    0.23780E-05   -0.51648E-07  2433   0.122E-03    0.629E-04
RMM:  13    -0.413216492828E+03    0.36508E-05   -0.41144E-07  2010   0.101E-03    0.423E-04
RMM:  14    -0.413216491448E+03    0.13803E-05   -0.20460E-07  1443   0.784E-04    0.217E-04
RMM:  15    -0.413216489154E+03    0.22945E-05   -0.15350E-07  1291   0.722E-04    0.131E-04
RMM:  16    -0.413216486231E+03    0.29224E-05   -0.12468E-07  1251   0.693E-04    0.637E-05
RMM:  17    -0.413216484892E+03    0.13388E-05   -0.75353E-08  1037   0.634E-04    0.441E-05
RMM:  18    -0.413216482780E+03    0.21126E-05   -0.71873E-08  1174   0.633E-04    0.473E-05
RMM:  19    -0.413216481940E+03    0.84024E-06   -0.40551E-08   871   0.570E-04
   44 T=    71. E= -.41286605E+03 F= -.41321648E+03 E0= -.41319550E+03  EK= 0.35043E+00 SP= 0.00E+00 SK= 0.00E+00
       N       E                     dE             d eps       ncg     rms          rms(c)
RMM:   1    -0.413234030899E+03   -0.17548E-01   -0.13332E+01  4306   0.156E+00    0.981E-01
RMM:   2    -0.413218864971E+03    0.15166E-01   -0.19190E-01  4405   0.181E-01    0.686E-01
RMM:   3    -0.413231838512E+03   -0.12974E-01   -0.18940E-02  5129   0.119E-01    0.542E-01
RMM:   4    -0.413233713740E+03   -0.18752E-02   -0.37818E-02  5013   0.169E-01    0.543E-01
RMM:   5    -0.413218565281E+03    0.15148E-01   -0.58927E-03  4566   0.946E-02    0.427E-02
RMM:   6    -0.413218515867E+03    0.49414E-04   -0.10139E-03  5313   0.315E-02    0.161E-02
RMM:   7    -0.413218515731E+03    0.13569E-06   -0.11375E-04  5658   0.103E-02    0.121E-02
RMM:   8    -0.413218511574E+03    0.41578E-05   -0.25294E-05  4643   0.497E-03    0.793E-03
RMM:   9    -0.413218495909E+03    0.15665E-04   -0.72439E-06  3244   0.420E-03    0.416E-03
RMM:  10    -0.413218489379E+03    0.65305E-05   -0.14925E-06  2533   0.214E-03    0.184E-03
RMM:  11    -0.413218483438E+03    0.59405E-05   -0.94939E-07  2495   0.153E-03    0.855E-04
RMM:  12    -0.413218478585E+03    0.48530E-05   -0.43076E-07  2383   0.112E-03    0.487E-04
RMM:  13    -0.413218473622E+03    0.49629E-05   -0.24969E-07  1646   0.834E-04    0.271E-04
RMM:  14    -0.413218470848E+03    0.27743E-05   -0.13344E-07  1177   0.695E-04    0.174E-04
RMM:  15    -0.413218466061E+03    0.47865E-05   -0.11431E-07  1243   0.687E-04    0.822E-05
RMM:  16    -0.413218462089E+03    0.39723E-05   -0.88908E-08  1247   0.653E-04    0.937E-05
RMM:  17    -0.413218459450E+03    0.26393E-05   -0.57387E-08  1025   0.590E-04    0.620E-05
RMM:  18    -0.413218456590E+03    0.28601E-05   -0.54189E-08  1080   0.582E-04    0.388E-05
RMM:  19    -0.413218456200E+03    0.38967E-06   -0.21922E-08   709   0.515E-04
   45 T=    72. E= -.41286642E+03 F= -.41321846E+03 E0= -.41319749E+03  EK= 0.35203E+00 SP= 0.00E+00 SK= 0.00E+00
       N       E                     dE             d eps       ncg     rms          rms(c)
RMM:   1    -0.413247279547E+03   -0.28823E-01   -0.13395E+01  4307   0.169E+00    0.966E-01
RMM:   2    -0.413219173704E+03    0.28106E-01   -0.19000E-01  4410   0.194E-01    0.682E-01
RMM:   3    -0.413235113827E+03   -0.15940E-01   -0.21468E-02  5134   0.129E-01    0.586E-01
RMM:   4    -0.413231510777E+03    0.36030E-02   -0.36968E-02  4988   0.169E-01    0.500E-01
RMM:   5    -0.413218984365E+03    0.12526E-01   -0.49767E-03  4542   0.907E-02    0.426E-02
RMM:   6    -0.413218911986E+03    0.72379E-04   -0.74986E-04  5037   0.285E-02    0.158E-02
RMM:   7    -0.413218912603E+03   -0.61632E-06   -0.95708E-05  5667   0.926E-03    0.105E-02
RMM:   8    -0.413218906472E+03    0.61311E-05   -0.20297E-05  4481   0.506E-03    0.654E-03
RMM:   9    -0.413218895332E+03    0.11140E-04   -0.89177E-06  3583   0.387E-03    0.438E-03
RMM:  10    -0.413218890877E+03    0.44549E-05   -0.18453E-06  2519   0.226E-03    0.175E-03
RMM:  11    -0.413218885761E+03    0.51154E-05   -0.12491E-06  2456   0.177E-03    0.101E-03
RMM:  12    -0.413218881253E+03    0.45086E-05   -0.51729E-07  2350   0.128E-03    0.628E-04
RMM:  13    -0.413218877230E+03    0.40231E-05   -0.24357E-07  1767   0.870E-04    0.334E-04
RMM:  14    -0.413218873919E+03    0.33104E-05   -0.13104E-07  1230   0.689E-04    0.190E-04
RMM:  15    -0.413218868924E+03    0.49953E-05   -0.11954E-07  1311   0.679E-04    0.118E-04
RMM:  16    -0.413218865500E+03    0.34236E-05   -0.74176E-08  1028   0.603E-04    0.114E-04
RMM:  17    -0.413218862645E+03    0.28553E-05   -0.56325E-08   954   0.572E-04    0.530E-05
RMM:  18    -0.413218860545E+03    0.21006E-05   -0.39197E-08   855   0.548E-04    0.358E-05
RMM:  19    -0.413218859548E+03    0.99634E-06   -0.22203E-08   693   0.521E-04
   46 T=    72. E= -.41286609E+03 F= -.41321886E+03 E0= -.41319792E+03  EK= 0.35277E+00 SP= 0.00E+00 SK= 0.00E+00
       N       E                     dE             d eps       ncg     rms          rms(c)
RMM:   1    -0.413269630984E+03   -0.50770E-01   -0.13687E+01  4309   0.186E+00    0.951E-01
RMM:   2    -0.413220033808E+03    0.49597E-01   -0.23192E-01  4435   0.213E-01    0.700E-01
RMM:   3    -0.413234951985E+03   -0.14918E-01   -0.20607E-02  5134   0.129E-01    0.606E-01
RMM:   4    -0.413233492592E+03    0.14594E-02   -0.39188E-02  5002   0.174E-01    0.548E-01
RMM:   5    -0.413219102597E+03    0.14390E-01   -0.64497E-03  4550   0.995E-02    0.486E-02
RMM:   6    -0.413219016322E+03    0.86275E-04   -0.93614E-04  5122   0.319E-02    0.179E-02
RMM:   7    -0.413219016286E+03    0.35638E-07   -0.12809E-04  5827   0.107E-02    0.127E-02
RMM:   8    -0.413219013820E+03    0.24660E-05   -0.29256E-05  4841   0.518E-03    0.886E-03
RMM:   9    -0.413219001852E+03    0.11968E-04   -0.12296E-05  3976   0.480E-03    0.526E-03
RMM:  10    -0.413218997044E+03    0.48081E-05   -0.21513E-06  2531   0.238E-03    0.245E-03
RMM:  11    -0.413218993322E+03    0.37223E-05   -0.19742E-06  2558   0.209E-03    0.133E-03
RMM:  12    -0.413218990611E+03    0.27103E-05   -0.57896E-07  2404   0.141E-03    0.769E-04
RMM:  13    -0.413218988158E+03    0.24530E-05   -0.29067E-07  2054   0.927E-04    0.411E-04
RMM:  14    -0.413218985608E+03    0.25507E-05   -0.17343E-07  1309   0.719E-04    0.226E-04
RMM:  15    -0.413218983153E+03    0.24545E-05   -0.12815E-07  1147   0.662E-04    0.110E-04
RMM:  16    -0.413218980744E+03    0.24092E-05   -0.10984E-07  1206   0.656E-04    0.111E-04
RMM:  17    -0.413218979142E+03    0.16024E-05   -0.69304E-08  1023   0.595E-04    0.112E-04
RMM:  18    -0.413218978152E+03    0.99008E-06   -0.43073E-08   826   0.545E-04
   47 T=    72. E= -.41286610E+03 F= -.41321898E+03 E0= -.41319805E+03  EK= 0.35287E+00 SP= 0.00E+00 SK= 0.00E+00
       N       E                     dE             d eps       ncg     rms          rms(c)
RMM:   1    -0.413273661803E+03   -0.54683E-01   -0.13754E+01  4305   0.198E+00    0.979E-01
RMM:   2    -0.413218784322E+03    0.54877E-01   -0.22049E-01  4524   0.221E-01    0.695E-01
RMM:   3    -0.413243257627E+03   -0.24473E-01   -0.29465E-02  5152   0.153E-01    0.717E-01
RMM:   4    -0.413227028459E+03    0.16229E-01   -0.37806E-02  4960   0.175E-01    0.443E-01
RMM:   5    -0.413218602209E+03    0.84263E-02   -0.47864E-03  4571   0.910E-02    0.565E-02
RMM:   6    -0.413218421763E+03    0.18045E-03   -0.44674E-04  4705   0.283E-02    0.215E-02
RMM:   7    -0.413218423167E+03   -0.14036E-05   -0.12088E-04  5886   0.109E-02    0.142E-02
RMM:   8    -0.413218414107E+03    0.90599E-05   -0.25482E-05  4739   0.542E-03    0.102E-02
RMM:   9    -0.413218399044E+03    0.15063E-04   -0.86107E-06  3430   0.422E-03    0.564E-03
RMM:  10    -0.413218391317E+03    0.77272E-05   -0.28838E-06  2665   0.279E-03    0.245E-03
RMM:  11    -0.413218385632E+03    0.56850E-05   -0.23217E-06  2594   0.231E-03    0.145E-03
RMM:  12    -0.413218380260E+03    0.53719E-05   -0.85542E-07  2438   0.163E-03    0.810E-04
RMM:  13    -0.413218376186E+03    0.40738E-05   -0.39805E-07  2321   0.108E-03    0.479E-04
RMM:  14    -0.413218372415E+03    0.37711E-05   -0.20409E-07  1547   0.768E-04    0.252E-04
RMM:  15    -0.413218367391E+03    0.50244E-05   -0.16273E-07  1458   0.729E-04    0.134E-04
RMM:  16    -0.413218364607E+03    0.27840E-05   -0.97613E-08  1241   0.642E-04    0.132E-04
RMM:  17    -0.413218362339E+03    0.22681E-05   -0.66929E-08  1076   0.593E-04    0.832E-05
RMM:  18    -0.413218360502E+03    0.18372E-05   -0.49139E-08   989   0.570E-04    0.381E-05
RMM:  19    -0.413218359809E+03    0.69241E-06   -0.26894E-08   798   0.536E-04
   48 T=    72. E= -.41286614E+03 F= -.41321836E+03 E0= -.41319744E+03  EK= 0.35222E+00 SP= 0.00E+00 SK= 0.00E+00
       N       E                     dE             d eps       ncg     rms          rms(c)
RMM:   1    -0.413274113252E+03   -0.55753E-01   -0.13663E+01  4304   0.212E+00    0.975E-01
RMM:   2    -0.413216232794E+03    0.57880E-01   -0.21655E-01  4527   0.233E-01    0.685E-01
RMM:   3    -0.413247113551E+03   -0.30881E-01   -0.35318E-02  5160   0.169E-01    0.790E-01
RMM:   4    -0.413221964894E+03    0.25149E-01   -0.37868E-02  4929   0.178E-01    0.392E-01
RMM:   5    -0.413216360203E+03    0.56047E-02   -0.51819E-03  4850   0.935E-02    0.712E-02
RMM:   6    -0.413216050665E+03    0.30954E-03   -0.55969E-04  4677   0.325E-02    0.263E-02
RMM:   7    -0.413216047727E+03    0.29381E-05   -0.13599E-04  5722   0.123E-02    0.160E-02
RMM:   8    -0.413216037291E+03    0.10435E-04   -0.20096E-05  4306   0.499E-03    0.108E-02
RMM:   9    -0.413216021030E+03    0.16261E-04   -0.93811E-06  3499   0.427E-03    0.517E-03
RMM:  10    -0.413216011583E+03    0.94477E-05   -0.42182E-06  2897   0.313E-03    0.250E-03
RMM:  11    -0.413216004094E+03    0.74889E-05   -0.26611E-06  2672   0.249E-03    0.173E-03
[...]
RMM:   6    -0.413717822188E+03    0.53464E-02   -0.30296E-02  4894   0.218E-01    0.195E-01
RMM:   7    -0.413715849328E+03    0.19729E-02   -0.43687E-03  4846   0.953E-02    0.103E-01
RMM:   8    -0.413715657249E+03    0.19208E-03   -0.92106E-04  4867   0.409E-02    0.615E-02
RMM:   9    -0.413715615418E+03    0.41831E-04   -0.61555E-04  4578   0.325E-02    0.222E-02
RMM:  10    -0.413715628973E+03   -0.13554E-04   -0.20209E-04  5872   0.166E-02    0.154E-02
RMM:  11    -0.413715627703E+03    0.12696E-05   -0.36278E-05  4855   0.746E-03    0.775E-03
RMM:  12    -0.413715630045E+03   -0.23419E-05   -0.12563E-05  3953   0.450E-03    0.381E-03
RMM:  13    -0.413715632708E+03   -0.26632E-05   -0.34438E-06  2829   0.271E-03    0.237E-03
RMM:  14    -0.413715633594E+03   -0.88619E-06   -0.12891E-06  2547   0.183E-03
  140 T=   177. E= -.41284637E+03 F= -.41371563E+03 E0= -.41369343E+03  EK= 0.86926E+00 SP= 0.00E+00 SK= 0.00E+00
       N       E                     dE             d eps       ncg     rms          rms(c)
RMM:   1    -0.413625299318E+03    0.90333E-01   -0.18886E+01  4281   0.784E+00    0.150E+00
RMM:   2    -0.413524575626E+03    0.10072E+00   -0.61962E-01  5455   0.950E-01    0.143E+00
RMM:   3    -0.413521334745E+03    0.32409E-02   -0.87932E-02  5392   0.338E-01    0.996E-01
RMM:   4    -0.413542909861E+03   -0.21575E-01   -0.83041E-02  4535   0.383E-01    0.697E-01
RMM:   5    -0.413543023748E+03   -0.11389E-03   -0.53870E-02  5195   0.240E-01    0.689E-01
RMM:   6    -0.413516271963E+03    0.26752E-01   -0.19786E-02  4953   0.174E-01    0.150E-01
RMM:   7    -0.413515916859E+03    0.35510E-03   -0.42704E-03  5796   0.766E-02    0.904E-02
RMM:   8    -0.413515773774E+03    0.14308E-03   -0.12322E-03  5110   0.419E-02    0.521E-02
RMM:   9    -0.413515764842E+03    0.89322E-05   -0.50992E-04  5162   0.289E-02    0.222E-02
RMM:  10    -0.413515771645E+03   -0.68029E-05   -0.17065E-04  5770   0.155E-02    0.158E-02
RMM:  11    -0.413515773045E+03   -0.14001E-05   -0.45332E-05  5390   0.794E-03    0.102E-02
RMM:  12    -0.413515774941E+03   -0.18958E-05   -0.10582E-05  3783   0.427E-03    0.620E-03
RMM:  13    -0.413515778847E+03   -0.39064E-05   -0.59985E-06  3415   0.359E-03    0.287E-03
RMM:  14    -0.413515783574E+03   -0.47265E-05   -0.25369E-06  2693   0.257E-03    0.164E-03
RMM:  15    -0.413515787204E+03   -0.36302E-05   -0.11250E-06  2529   0.174E-03    0.823E-04
RMM:  16    -0.413515788997E+03   -0.17931E-05   -0.49498E-07  2270   0.112E-03    0.482E-04
RMM:  17    -0.413515791203E+03   -0.22055E-05   -0.40188E-07  1871   0.930E-04    0.274E-04
RMM:  18    -0.413515793527E+03   -0.23242E-05   -0.43313E-07  1948   0.917E-04    0.153E-04
RMM:  19    -0.413515794532E+03   -0.10053E-05   -0.19234E-07  1351   0.684E-04    0.942E-05
RMM:  20    -0.413515795761E+03   -0.12290E-05   -0.18474E-07  1416   0.675E-04    0.722E-05
RMM:  21    -0.413515796188E+03   -0.42656E-06   -0.81259E-08  1030   0.565E-04
  141 T=   141. E= -.41282469E+03 F= -.41351580E+03 E0= -.41349362E+03  EK= 0.69111E+00 SP= 0.00E+00 SK= 0.00E+00
       N       E                     dE             d eps       ncg     rms          rms(c)
RMM:   1    -0.413523581668E+03   -0.77859E-02   -0.14354E+01  4286   0.707E+00    0.925E-01
RMM:   2    -0.413478353725E+03    0.45228E-01   -0.39309E-01  5437   0.749E-01    0.848E-01
RMM:   3    -0.413503645971E+03   -0.25292E-01   -0.80278E-02  5837   0.291E-01    0.941E-01
RMM:   4    -0.413477023187E+03    0.26623E-01   -0.27792E-02  5096   0.191E-01    0.507E-01
RMM:   5    -0.413475308896E+03    0.17143E-02   -0.27380E-02  4393   0.229E-01    0.189E-01
RMM:   6    -0.413473857633E+03    0.14513E-02   -0.35825E-03  4654   0.881E-02    0.868E-02
RMM:   7    -0.413473712972E+03    0.14466E-03   -0.93593E-04  5550   0.382E-02    0.555E-02
RMM:   8    -0.413473691701E+03    0.21271E-04   -0.49481E-04  4961   0.282E-02    0.325E-02
RMM:   9    -0.413473686919E+03    0.47816E-05   -0.22608E-04  5168   0.186E-02    0.164E-02
RMM:  10    -0.413473683755E+03    0.31643E-05   -0.56670E-05  5526   0.925E-03    0.117E-02
RMM:  11    -0.413473687465E+03   -0.37106E-05   -0.13678E-05  4218   0.490E-03    0.577E-03
RMM:  12    -0.413473694058E+03   -0.65924E-05   -0.51338E-06  3111   0.335E-03    0.289E-03
RMM:  13    -0.413473702119E+03   -0.80614E-05   -0.21152E-06  2656   0.232E-03    0.140E-03
RMM:  14    -0.413473708878E+03   -0.67588E-05   -0.14830E-06  2579   0.177E-03    0.697E-04
RMM:  15    -0.413473713552E+03   -0.46736E-05   -0.86163E-07  2331   0.126E-03    0.505E-04
RMM:  16    -0.413473719216E+03   -0.56648E-05   -0.96044E-07  2315   0.124E-03    0.289E-04
RMM:  17    -0.413473723361E+03   -0.41446E-05   -0.72202E-07  1990   0.103E-03    0.191E-04
RMM:  18    -0.413473725896E+03   -0.25353E-05   -0.42250E-07  1694   0.832E-04    0.113E-04
RMM:  19    -0.413473727841E+03   -0.19453E-05   -0.26287E-07  1471   0.719E-04    0.813E-05
RMM:  20    -0.413473729131E+03   -0.12890E-05   -0.15355E-07  1228   0.628E-04    0.552E-05
RMM:  21    -0.413473729982E+03   -0.85155E-06   -0.88385E-08  1047   0.574E-04
  142 T=   131. E= -.41282891E+03 F= -.41347373E+03 E0= -.41345182E+03  EK= 0.64482E+00 SP= 0.00E+00 SK= 0.00E+00
       N       E                     dE             d eps       ncg     rms          rms(c)
RMM:   1    -0.413594211792E+03   -0.12048E+00   -0.15695E+01  4295   0.734E+00    0.141E+00
RMM:   2    -0.413533053049E+03    0.61159E-01   -0.40519E-01  5354   0.774E-01    0.114E+00
RMM:   3    -0.413609592982E+03   -0.76540E-01   -0.13208E-01  5533   0.400E-01    0.130E+00
RMM:   4    -0.413557900047E+03    0.51693E-01   -0.10817E-01  5139   0.337E-01    0.730E-01
RMM:   5    -0.413533834848E+03    0.24065E-01   -0.56605E-02  5130   0.297E-01    0.246E-01
RMM:   6    -0.413531503856E+03    0.23310E-02   -0.64249E-03  4940   0.113E-01    0.107E-01
RMM:   7    -0.413531186244E+03    0.31761E-03   -0.14368E-03  5201   0.489E-02    0.580E-02
RMM:   8    -0.413531141081E+03    0.45164E-04   -0.88942E-04  5587   0.341E-02    0.374E-02
RMM:   9    -0.413531131305E+03    0.97756E-05   -0.30868E-04  5557   0.211E-02    0.266E-02
RMM:  10    -0.413531120689E+03    0.10616E-04   -0.94389E-05  5489   0.124E-02    0.108E-02
RMM:  11    -0.413531127632E+03   -0.69424E-05   -0.37410E-05  5508   0.681E-03    0.762E-03
RMM:  12    -0.413531134343E+03   -0.67112E-05   -0.73686E-06  3591   0.403E-03    0.345E-03
RMM:  13    -0.413531141337E+03   -0.69942E-05   -0.29375E-06  2750   0.268E-03    0.180E-03
RMM:  14    -0.413531150359E+03   -0.90222E-05   -0.21732E-06  2661   0.225E-03    0.818E-04
RMM:  15    -0.413531154833E+03   -0.44734E-05   -0.10077E-06  2466   0.141E-03    0.576E-04
RMM:  16    -0.413531159235E+03   -0.44016E-05   -0.87101E-07  2317   0.124E-03    0.390E-04
RMM:  17    -0.413531163086E+03   -0.38515E-05   -0.88248E-07  2269   0.116E-03    0.245E-04
RMM:  18    -0.413531164971E+03   -0.18848E-05   -0.41980E-07  1580   0.829E-04    0.106E-04
RMM:  19    -0.413531166039E+03   -0.10684E-05   -0.21907E-07  1366   0.708E-04    0.634E-05
RMM:  20    -0.413531166866E+03   -0.82712E-06   -0.13307E-07  1219   0.634E-04
  143 T=   138. E= -.41285088E+03 F= -.41353117E+03 E0= -.41350936E+03  EK= 0.68029E+00 SP= 0.00E+00 SK= 0.00E+00
       N       E                     dE             d eps       ncg     rms          rms(c)
RMM:   1    -0.413472260372E+03    0.58906E-01   -0.15211E+01  4296   0.729E+00    0.155E+00
RMM:   2    -0.413430033075E+03    0.42227E-01   -0.43684E-01  5350   0.779E-01    0.130E+00
RMM:   3    -0.413537491282E+03   -0.10746E+00   -0.17052E-01  5475   0.426E-01    0.172E+00
RMM:   4    -0.413430492927E+03    0.10700E+00   -0.10989E-01  5087   0.372E-01    0.592E-01
RMM:   5    -0.413424586054E+03    0.59069E-02   -0.59538E-02  5096   0.308E-01    0.257E-01
RMM:   6    -0.413422047628E+03    0.25384E-02   -0.13907E-02  5266   0.147E-01    0.139E-01
RMM:   7    -0.413421177937E+03    0.86969E-03   -0.19415E-03  4743   0.623E-02    0.643E-02
RMM:   8    -0.413421149722E+03    0.28216E-04   -0.10181E-03  5671   0.368E-02    0.381E-02
RMM:   9    -0.413421154274E+03   -0.45523E-05   -0.34908E-04  5638   0.223E-02    0.275E-02
RMM:  10    -0.413421143814E+03    0.10460E-04   -0.96161E-05  5402   0.125E-02    0.123E-02
RMM:  11    -0.413421152917E+03   -0.91033E-05   -0.51891E-05  5591   0.802E-03    0.872E-03
RMM:  12    -0.413421162201E+03   -0.92837E-05   -0.11507E-05  3975   0.483E-03    0.360E-03
RMM:  13    -0.413421167982E+03   -0.57811E-05   -0.41536E-06  2904   0.281E-03    0.212E-03
RMM:  14    -0.413421173935E+03   -0.59527E-05   -0.21778E-06  2660   0.219E-03    0.947E-04
RMM:  15    -0.413421177707E+03   -0.37721E-05   -0.14766E-06  2514   0.166E-03    0.634E-04
RMM:  16    -0.413421180649E+03   -0.29425E-05   -0.16514E-06  2514   0.157E-03    0.376E-04
RMM:  17    -0.413421181163E+03   -0.51339E-06   -0.82382E-07  2064   0.109E-03
  144 T=   119. E= -.41283750E+03 F= -.41342118E+03 E0= -.41339929E+03  EK= 0.58368E+00 SP= 0.00E+00 SK= 0.00E+00
       N       E                     dE             d eps       ncg     rms          rms(c)
RMM:   1    -0.413320425964E+03    0.10075E+00   -0.10786E+01  4288   0.618E+00    0.928E-01
RMM:   2    -0.413322066167E+03   -0.16402E-02   -0.34493E-01  5394   0.643E-01    0.907E-01
RMM:   3    -0.413321481920E+03    0.58425E-03   -0.64948E-02  5524   0.278E-01    0.882E-01
RMM:   4    -0.413304450725E+03    0.17031E-01   -0.29992E-02  5200   0.213E-01    0.450E-01
RMM:   5    -0.413304996570E+03   -0.54584E-03   -0.25622E-02  4950   0.202E-01    0.226E-01
RMM:   6    -0.413302915933E+03    0.20806E-02   -0.12361E-02  5002   0.134E-01    0.114E-01
RMM:   7    -0.413302309101E+03    0.60683E-03   -0.12507E-03  4622   0.543E-02    0.517E-02
RMM:   8    -0.413302300094E+03    0.90062E-05   -0.41055E-04  5573   0.252E-02    0.317E-02
RMM:   9    -0.413302313242E+03   -0.13148E-04   -0.16817E-04  4892   0.166E-02    0.152E-02
RMM:  10    -0.413302318205E+03   -0.49628E-05   -0.49222E-05  5417   0.846E-03    0.814E-03
RMM:  11    -0.413302322946E+03   -0.47411E-05   -0.15339E-05  4337   0.472E-03    0.544E-03
RMM:  12    -0.413302330911E+03   -0.79648E-05   -0.71237E-06  3390   0.390E-03    0.347E-03
RMM:  13    -0.413302334184E+03   -0.32727E-05   -0.25915E-06  2724   0.237E-03    0.170E-03
RMM:  14    -0.413302336224E+03   -0.20407E-05   -0.15273E-06  2555   0.170E-03    0.887E-04
RMM:  15    -0.413302337256E+03   -0.10319E-05   -0.14298E-06  2468   0.151E-03    0.622E-04
RMM:  16    -0.413302336470E+03    0.78597E-06   -0.12537E-06  2288   0.130E-03
  145 T=    98. E= -.41282246E+03 F= -.41330234E+03 E0= -.41328024E+03  EK= 0.47987E+00 SP= 0.00E+00 SK= 0.00E+00
       N       E                     dE             d eps       ncg     rms          rms(c)
RMM:   1    -0.413405142697E+03   -0.10281E+00   -0.10575E+01  4284   0.579E+00    0.126E+00
RMM:   2    -0.413402613319E+03    0.25294E-02   -0.41512E-01  5405   0.738E-01    0.130E+00
RMM:   3    -0.413393398216E+03    0.92151E-02   -0.10808E-01  5448   0.358E-01    0.119E+00
RMM:   4    -0.413363351310E+03    0.30047E-01   -0.60661E-02  5160   0.298E-01    0.567E-01
RMM:   5    -0.413362373108E+03    0.97820E-03   -0.33536E-02  4822   0.242E-01    0.251E-01
RMM:   6    -0.413359521363E+03    0.28517E-02   -0.14160E-02  4907   0.147E-01    0.118E-01
RMM:   7    -0.413358932049E+03    0.58931E-03   -0.16035E-03  4837   0.597E-02    0.575E-02
RMM:   8    -0.413358897662E+03    0.34387E-04   -0.30503E-04  4734   0.241E-02    0.350E-02
RMM:   9    -0.413358906977E+03   -0.93145E-05   -0.18784E-04  4766   0.179E-02    0.160E-02
RMM:  10    -0.413358908968E+03   -0.19911E-05   -0.53291E-05  5484   0.844E-03    0.916E-03
RMM:  11    -0.413358912234E+03   -0.32666E-05   -0.23891E-05  5093   0.574E-03    0.523E-03
RMM:  12    -0.413358915284E+03   -0.30497E-05   -0.50877E-06  3061   0.322E-03    0.335E-03
RMM:  13    -0.413358917071E+03   -0.17872E-05   -0.26842E-06  2724   0.250E-03    0.199E-03
RMM:  14    -0.413358917433E+03   -0.36155E-06   -0.12298E-06  2521   0.173E-03
  146 T=   106. E= -.41283882E+03 F= -.41335892E+03 E0= -.41333644E+03  EK= 0.52009E+00 SP= 0.00E+00 SK= 0.00E+00
       N       E                     dE             d eps       ncg     rms          rms(c)
RMM:   1    -0.413503277868E+03   -0.14436E+00   -0.13041E+01  4287   0.604E+00    0.161E+00
RMM:   2    -0.413438941836E+03    0.64336E-01   -0.52202E-01  5415   0.848E-01    0.157E+00
RMM:   3    -0.413466468483E+03   -0.27527E-01   -0.14924E-01  5499   0.411E-01    0.159E+00
RMM:   4    -0.413411022123E+03    0.55446E-01   -0.86305E-02  5163   0.346E-01    0.794E-01
RMM:   5    -0.413406672190E+03    0.43499E-02   -0.45199E-02  4563   0.293E-01    0.259E-01
RMM:   6    -0.413403991097E+03    0.26811E-02   -0.15455E-02  4928   0.156E-01    0.138E-01
RMM:   7    -0.413403044711E+03    0.94639E-03   -0.23212E-03  4813   0.688E-02    0.685E-02
RMM:   8    -0.413402961566E+03    0.83145E-04   -0.47552E-04  4784   0.297E-02    0.430E-02
RMM:   9    -0.413402946613E+03    0.14953E-04   -0.28000E-04  4623   0.219E-02    0.161E-02
RMM:  10    -0.413402949749E+03   -0.31360E-05   -0.88600E-05  5801   0.106E-02    0.107E-02
RMM:  11    -0.413402948475E+03    0.12743E-05   -0.21389E-05  4687   0.554E-03    0.574E-03
RMM:  12    -0.413402948398E+03    0.76321E-07   -0.69851E-06  3361   0.361E-03
  147 T=   114. E= -.41284229E+03 F= -.41340295E+03 E0= -.41338011E+03  EK= 0.56066E+00 SP= 0.00E+00 SK= 0.00E+00
       N       E                     dE             d eps       ncg     rms          rms(c)
RMM:   1    -0.413441747159E+03   -0.38799E-01   -0.12388E+01  4284   0.605E+00    0.130E+00
RMM:   2    -0.413381868838E+03    0.59878E-01   -0.43249E-01  5447   0.768E-01    0.125E+00
RMM:   3    -0.413413381215E+03   -0.31512E-01   -0.97178E-02  5643   0.330E-01    0.126E+00
RMM:   4    -0.413382449589E+03    0.30932E-01   -0.54849E-02  5202   0.255E-01    0.796E-01
RMM:   5    -0.413373592410E+03    0.88572E-02   -0.39869E-02  4345   0.280E-01    0.243E-01
RMM:   6    -0.413371558723E+03    0.20337E-02   -0.48784E-03  4573   0.105E-01    0.102E-01
RMM:   7    -0.413371400424E+03    0.15830E-03   -0.14627E-03  5459   0.484E-02    0.689E-02
RMM:   8    -0.413371263101E+03    0.13732E-03   -0.54957E-04  4874   0.296E-02    0.421E-02
RMM:   9    -0.413371238163E+03    0.24938E-04   -0.25270E-04  4484   0.216E-02    0.132E-02
RMM:  10    -0.413371246042E+03   -0.78790E-05   -0.87767E-05  5891   0.108E-02    0.108E-02
RMM:  11    -0.413371245996E+03    0.45482E-07   -0.17545E-05  4304   0.505E-03    0.612E-03
RMM:  12    -0.413371247198E+03   -0.12019E-05   -0.49307E-06  3021   0.313E-03    0.330E-03
RMM:  13    -0.413371249422E+03   -0.22235E-05   -0.19010E-06  2614   0.227E-03    0.181E-03
RMM:  14    -0.413371251329E+03   -0.19074E-05   -0.10522E-06  2498   0.167E-03    0.770E-04
RMM:  15    -0.413371252577E+03   -0.12476E-05   -0.57642E-07  2310   0.119E-03    0.412E-04
RMM:  16    -0.413371253643E+03   -0.10666E-05   -0.39335E-07  1902   0.963E-04    0.318E-04
RMM:  17    -0.413371254909E+03   -0.12662E-05   -0.38700E-07  1858   0.900E-04    0.173E-04
RMM:  18    -0.413371255622E+03   -0.71295E-06   -0.22430E-07  1529   0.742E-04
  148 T=   110. E= -.41283078E+03 F= -.41337126E+03 E0= -.41334832E+03  EK= 0.54047E+00 SP= 0.00E+00 SK= 0.00E+00
       N       E                     dE             d eps       ncg     rms          rms(c)
RMM:   1    -0.413431941792E+03   -0.60687E-01   -0.10953E+01  4288   0.610E+00    0.862E-01
RMM:   2    -0.413408521770E+03    0.23420E-01   -0.29575E-01  5427   0.644E-01    0.785E-01
RMM:   3    -0.413407856318E+03    0.66545E-03   -0.40754E-02  5425   0.228E-01    0.527E-01
RMM:   4    -0.413428908884E+03   -0.21053E-01   -0.39952E-02  4829   0.243E-01    0.606E-01
RMM:   5    -0.413410194854E+03    0.18714E-01   -0.21164E-02  5015   0.156E-01    0.288E-01
RMM:   6    -0.413406097623E+03    0.40972E-02   -0.53770E-03  5067   0.983E-02    0.758E-02
RMM:   7    -0.413405982851E+03    0.11477E-03   -0.83529E-04  5387   0.372E-02    0.431E-02
RMM:   8    -0.413406000844E+03   -0.17993E-04   -0.39979E-04  5267   0.232E-02    0.271E-02
RMM:   9    -0.413405977380E+03    0.23464E-04   -0.17217E-04  5253   0.161E-02    0.142E-02
RMM:  10    -0.413405982339E+03   -0.49596E-05   -0.43163E-05  5530   0.805E-03    0.975E-03
RMM:  11    -0.413405985870E+03   -0.35306E-05   -0.12557E-05  4154   0.457E-03    0.568E-03
RMM:  12    -0.413405992626E+03   -0.67559E-05   -0.43095E-06  2965   0.326E-03    0.320E-03
RMM:  13    -0.413406000097E+03   -0.74707E-05   -0.24501E-06  2651   0.251E-03    0.182E-03
RMM:  14    -0.413406008500E+03   -0.84034E-05   -0.18430E-06  2606   0.207E-03    0.111E-03
RMM:  15    -0.413406013808E+03   -0.53083E-05   -0.83777E-07  2474   0.133E-03    0.595E-04
RMM:  16    -0.413406019224E+03   -0.54161E-05   -0.74116E-07  2214   0.113E-03    0.376E-04
RMM:  17    -0.413406026653E+03   -0.74290E-05   -0.13311E-06  2465   0.135E-03    0.260E-04
RMM:  18    -0.413406029586E+03   -0.29328E-05   -0.48119E-07  1535   0.804E-04    0.142E-04
RMM:  19    -0.413406032632E+03   -0.30462E-05   -0.36949E-07  1602   0.781E-04    0.132E-04
RMM:  20    -0.413406034454E+03   -0.18214E-05   -0.17955E-07  1252   0.647E-04    0.832E-05
RMM:  21    -0.413406035840E+03   -0.13861E-05   -0.97617E-08  1060   0.583E-04    0.452E-05
RMM:  22    -0.413406037049E+03   -0.12093E-05   -0.66591E-08  1017   0.563E-04    0.386E-05
RMM:  23    -0.413406037536E+03   -0.48707E-06   -0.36174E-08   909   0.537E-04
  149 T=   118. E= -.41282566E+03 F= -.41340604E+03 E0= -.41338326E+03  EK= 0.58038E+00 SP= 0.00E+00 SK= 0.00E+00
       N       E                     dE             d eps       ncg     rms          rms(c)
RMM:   1    -0.413611310210E+03   -0.20527E+00   -0.13247E+01  4294   0.671E+00    0.803E-01
RMM:   2    -0.413565622960E+03    0.45687E-01   -0.30716E-01  5338   0.676E-01    0.623E-01
RMM:   3    -0.413580894547E+03   -0.15272E-01   -0.51439E-02  5527   0.263E-01    0.644E-01
RMM:   4    -0.413573828539E+03    0.70660E-02   -0.29059E-02  5237   0.177E-01    0.488E-01
RMM:   5    -0.413565690315E+03    0.81382E-02   -0.15439E-02  4746   0.168E-01    0.121E-01
RMM:   6    -0.413565263978E+03    0.42634E-03   -0.24110E-03  4992   0.692E-02    0.604E-02
RMM:   7    -0.413565165953E+03    0.98025E-04   -0.68215E-04  5234   0.321E-02    0.407E-02
RMM:   8    -0.413565146421E+03    0.19531E-04   -0.32923E-04  5475   0.214E-02    0.310E-02
RMM:   9    -0.413565121957E+03    0.24464E-04   -0.11930E-04  4935   0.142E-02    0.183E-02
RMM:  10    -0.413565121160E+03    0.79772E-06   -0.55510E-05  5553   0.928E-03    0.832E-03
RMM:  11    -0.413565126651E+03   -0.54916E-05   -0.15482E-05  4288   0.464E-03    0.560E-03
RMM:  12    -0.413565134449E+03   -0.77983E-05   -0.46636E-06  3022   0.359E-03    0.292E-03
RMM:  13    -0.413565141566E+03   -0.71168E-05   -0.24071E-06  2652   0.247E-03    0.175E-03
RMM:  14    -0.413565151813E+03   -0.10247E-04   -0.19361E-06  2633   0.214E-03    0.833E-04
RMM:  15    -0.413565157950E+03   -0.61371E-05   -0.10033E-06  2501   0.138E-03    0.592E-04
RMM:  16    -0.413565164423E+03   -0.64728E-05   -0.10708E-06  2406   0.133E-03    0.396E-04
RMM:  17    -0.413565169472E+03   -0.50487E-05   -0.90704E-07  2142   0.112E-03    0.279E-04
RMM:  18    -0.413565173318E+03   -0.38459E-05   -0.68343E-07  1934   0.964E-04    0.151E-04
RMM:  19    -0.413565175222E+03   -0.19041E-05   -0.30483E-07  1484   0.713E-04    0.112E-04
RMM:  20    -0.413565177332E+03   -0.21106E-05   -0.18716E-07  1292   0.633E-04    0.971E-05
RMM:  21    -0.413565178637E+03   -0.13044E-05   -0.10177E-07  1097   0.564E-04    0.543E-05
RMM:  22    -0.413565179313E+03   -0.67609E-06   -0.50047E-08   931   0.524E-04
  150 T=   148. E= -.41283873E+03 F= -.41356518E+03 E0= -.41354259E+03  EK= 0.72644E+00 SP= 0.00E+00 SK= 0.00E+00
