       N       E                     dE             d eps       ncg     rms          rms(c)
RMM:   1     0.220138781077E+04    0.22014E+04   -0.52444E+04  2132   0.654E+02
RMM:   2     0.705580237185E+03   -0.14958E+04   -0.16265E+04  2132   0.177E+02
RMM:   3     0.137763949109E+03   -0.56782E+03   -0.65677E+03  2132   0.117E+02
RMM:   4    -0.159445679616E+03   -0.29721E+03   -0.27856E+03  2132   0.936E+01
RMM:   5    -0.287508032520E+03   -0.12806E+03   -0.11436E+03  2132   0.595E+01
RMM:   6    -0.349871469112E+03   -0.62363E+02   -0.55123E+02  2132   0.423E+01
RMM:   7    -0.382713541079E+03   -0.32842E+02   -0.30405E+02  2132   0.293E+01
RMM:   8    -0.404184076879E+03   -0.21471E+02   -0.18429E+02  2132   0.233E+01
RMM:   9    -0.436004028159E+03   -0.31820E+02   -0.30648E+02  6107   0.173E+01
RMM:  10    -0.441285386130E+03   -0.52814E+01   -0.62851E+01  6399   0.539E+00
RMM:  11    -0.442522823219E+03   -0.12374E+01   -0.11245E+01  6203   0.173E+00
RMM:  12    -0.442894719668E+03   -0.37190E+00   -0.27449E+00  6361   0.601E-01    0.134E+02
RMM:  13    -0.425547525932E+03    0.17347E+02   -0.80749E+01  4667   0.119E+01    0.712E+01
RMM:  14    -0.498431381788E+03   -0.72884E+02   -0.53335E+02  5416   0.231E+01    0.305E+01
RMM:  15    -0.415669813519E+03    0.82762E+02   -0.19671E+02  5083   0.163E+01    0.684E+00
RMM:  16    -0.414035588387E+03    0.16342E+01   -0.39596E+01  6083   0.608E+00    0.427E+00
RMM:  17    -0.413213790899E+03    0.82180E+00   -0.24806E+00  5384   0.186E+00    0.244E+00
RMM:  18    -0.413168991297E+03    0.44800E-01   -0.82466E-01  5971   0.928E-01    0.164E+00
RMM:  19    -0.413168558991E+03    0.43231E-03   -0.27308E-01  5701   0.558E-01    0.863E-01
RMM:  20    -0.413187343457E+03   -0.18784E-01   -0.25179E-01  5533   0.524E-01    0.600E-01
RMM:  21    -0.413167824129E+03    0.19519E-01   -0.34405E-02  5014   0.233E-01    0.277E-01
RMM:  22    -0.413165183751E+03    0.26404E-02   -0.19391E-02  5955   0.126E-01    0.132E-01
RMM:  23    -0.413164163543E+03    0.10202E-02   -0.55410E-03  6056   0.659E-02    0.816E-02
RMM:  24    -0.413162948431E+03    0.12151E-02   -0.15611E-03  5241   0.395E-02    0.471E-02
RMM:  25    -0.413162494237E+03    0.45419E-03   -0.85714E-04  5374   0.275E-02    0.332E-02
RMM:  26    -0.413162673847E+03   -0.17961E-03   -0.89241E-04  5858   0.298E-02    0.354E-02
RMM:  27    -0.413163095577E+03   -0.42173E-03   -0.19319E-04  4554   0.201E-02    0.194E-02
RMM:  28    -0.413163543870E+03   -0.44829E-03   -0.18647E-04  5306   0.187E-02    0.830E-03
RMM:  29    -0.413163934007E+03   -0.39014E-03   -0.10408E-04  4437   0.152E-02    0.462E-03
RMM:  30    -0.413164154402E+03   -0.22040E-03   -0.74203E-05  4213   0.100E-02    0.397E-03
RMM:  31    -0.413164286243E+03   -0.13184E-03   -0.53903E-05  3172   0.712E-03    0.308E-03
RMM:  32    -0.413164309003E+03   -0.22760E-04   -0.19869E-05  2977   0.302E-03    0.180E-03
RMM:  33    -0.413164320576E+03   -0.11573E-04   -0.85925E-06  2822   0.238E-03    0.558E-04
RMM:  34    -0.413164322398E+03   -0.18228E-05   -0.45510E-06  2623   0.159E-03    0.705E-04
RMM:  35    -0.413164321967E+03    0.43157E-06   -0.22314E-06  2277   0.119E-03
    1 T=    61. E= -.41286649E+03 F= -.41316432E+03 E0= -.41314183E+03  EK= 0.29783E+00 SP= 0.00E+00 SK= 0.00E+00
       N       E                     dE             d eps       ncg     rms          rms(c)
RMM:   1    -0.413158966748E+03    0.53557E-02   -0.10001E+01  3989   0.654E-01    0.885E-01
RMM:   2    -0.413167180295E+03   -0.82135E-02   -0.12252E-01  4028   0.955E-02    0.646E-01
RMM:   3    -0.413164278062E+03    0.29022E-02   -0.10767E-02  4774   0.437E-02    0.113E-01
RMM:   4    -0.413186551353E+03   -0.22273E-01   -0.23508E-02  5207   0.127E-01    0.623E-01
RMM:   5    -0.413163899059E+03    0.22652E-01   -0.11202E-02  4848   0.105E-01    0.427E-02
RMM:   6    -0.413164048658E+03   -0.14960E-03   -0.19388E-03  5792   0.424E-02    0.288E-02
RMM:   7    -0.413164057521E+03   -0.88633E-05   -0.33963E-04  5734   0.166E-02    0.176E-02
RMM:   8    -0.413164058814E+03   -0.12926E-05   -0.45340E-05  4926   0.714E-03    0.768E-03
RMM:   9    -0.413164062190E+03   -0.33760E-05   -0.96979E-06  3447   0.334E-03    0.595E-03
RMM:  10    -0.413164067227E+03   -0.50365E-05   -0.17493E-06  2573   0.197E-03    0.374E-03
RMM:  11    -0.413164073172E+03   -0.59455E-05   -0.14245E-06  2540   0.174E-03    0.178E-03
RMM:  12    -0.413164080058E+03   -0.68855E-05   -0.14024E-06  2533   0.165E-03    0.812E-04
RMM:  13    -0.413164081030E+03   -0.97193E-06   -0.49387E-07  2214   0.107E-03
    2 T=    61. E= -.41286631E+03 F= -.41316408E+03 E0= -.41314158E+03  EK= 0.29777E+00 SP= 0.00E+00 SK= 0.00E+00
       N       E                     dE             d eps       ncg     rms          rms(c)
RMM:   1    -0.413160051414E+03    0.40286E-02   -0.10011E+01  4192   0.659E-01    0.906E-01
RMM:   2    -0.413167266434E+03   -0.72150E-02   -0.12063E-01  4003   0.933E-02    0.640E-01
RMM:   3    -0.413164773918E+03    0.24925E-02   -0.10564E-02  4756   0.418E-02    0.123E-01
RMM:   4    -0.413185132009E+03   -0.20358E-01   -0.20802E-02  5180   0.120E-01    0.597E-01
RMM:   5    -0.413164490166E+03    0.20642E-01   -0.10067E-02  4836   0.995E-02    0.424E-02
RMM:   6    -0.413164624479E+03   -0.13431E-03   -0.18025E-03  5813   0.404E-02    0.281E-02
RMM:   7    -0.413164625435E+03   -0.95565E-06   -0.30917E-04  5683   0.166E-02    0.178E-02
RMM:   8    -0.413164618634E+03    0.68003E-05   -0.49090E-05  4924   0.763E-03    0.840E-03
RMM:   9    -0.413164617888E+03    0.74601E-06   -0.98120E-06  3602   0.357E-03
    3 T=    61. E= -.41286671E+03 F= -.41316462E+03 E0= -.41314212E+03  EK= 0.29791E+00 SP= 0.00E+00 SK= 0.00E+00
       N       E                     dE             d eps       ncg     rms          rms(c)
RMM:   1    -0.413159537402E+03    0.50812E-02   -0.99297E+00  4221   0.661E-01    0.891E-01
RMM:   2    -0.413166941645E+03   -0.74042E-02   -0.11992E-01  4368   0.925E-02    0.635E-01
RMM:   3    -0.413173520272E+03   -0.65786E-02   -0.17657E-02  5195   0.942E-02    0.419E-01
RMM:   4    -0.413180754967E+03   -0.72347E-02   -0.34663E-02  5088   0.162E-01    0.532E-01
RMM:   5    -0.413164467813E+03    0.16287E-01   -0.55683E-03  4629   0.894E-02    0.586E-02
RMM:   6    -0.413164380960E+03    0.86853E-04   -0.11425E-03  5240   0.346E-02    0.284E-02
RMM:   7    -0.413164403273E+03   -0.22314E-04   -0.28329E-04  5978   0.165E-02    0.178E-02
RMM:   8    -0.413164399767E+03    0.35062E-05   -0.54496E-05  5192   0.863E-03    0.717E-03
RMM:   9    -0.413164398772E+03    0.99543E-06   -0.11287E-05  4083   0.417E-03    0.372E-03
RMM:  10    -0.413164399829E+03   -0.10575E-05   -0.12254E-06  2525   0.197E-03    0.228E-03
RMM:  11    -0.413164401936E+03   -0.21071E-05   -0.12092E-06  2524   0.175E-03    0.141E-03
RMM:  12    -0.413164403124E+03   -0.11878E-05   -0.61921E-07  2463   0.126E-03    0.522E-04
RMM:  13    -0.413164403813E+03   -0.68892E-06   -0.28929E-07  1664   0.821E-04
    4 T=    61. E= -.41286654E+03 F= -.41316440E+03 E0= -.41314192E+03  EK= 0.29787E+00 SP= 0.00E+00 SK= 0.00E+00
       N       E                     dE             d eps       ncg     rms          rms(c)
RMM:   1    -0.413159496211E+03    0.49069E-02   -0.99813E+00  4236   0.667E-01    0.882E-01
RMM:   2    -0.413167464062E+03   -0.79679E-02   -0.12238E-01  3924   0.888E-02    0.645E-01
RMM:   3    -0.413164912967E+03    0.25511E-02   -0.10774E-02  4945   0.409E-02    0.124E-01
RMM:   4    -0.413194218032E+03   -0.29305E-01   -0.30575E-02  5161   0.146E-01    0.714E-01
RMM:   5    -0.413164374831E+03    0.29843E-01   -0.14455E-02  4816   0.119E-01    0.455E-02
RMM:   6    -0.413164555538E+03   -0.18071E-03   -0.23832E-03  5769   0.476E-02    0.292E-02
RMM:   7    -0.413164567298E+03   -0.11760E-04   -0.37761E-04  5766   0.174E-02    0.184E-02
RMM:   8    -0.413164568465E+03   -0.11668E-05   -0.56815E-05  5025   0.788E-03    0.843E-03
RMM:   9    -0.413164570443E+03   -0.19777E-05   -0.11603E-05  3746   0.382E-03    0.627E-03
RMM:  10    -0.413164574745E+03   -0.43023E-05   -0.17043E-06  2564   0.203E-03    0.402E-03
RMM:  11    -0.413164579646E+03   -0.49008E-05   -0.13313E-06  2539   0.178E-03    0.196E-03
RMM:  12    -0.413164585360E+03   -0.57136E-05   -0.15540E-06  2565   0.177E-03    0.870E-04
RMM:  13    -0.413164586148E+03   -0.78822E-06   -0.41314E-07  2248   0.111E-03
    5 T=    61. E= -.41286661E+03 F= -.41316459E+03 E0= -.41314211E+03  EK= 0.29798E+00 SP= 0.00E+00 SK= 0.00E+00
       N       E                     dE             d eps       ncg     rms          rms(c)
RMM:   1    -0.413160717677E+03    0.38677E-02   -0.10011E+01  4253   0.685E-01    0.902E-01
RMM:   2    -0.413167571430E+03   -0.68538E-02   -0.12078E-01  4031   0.920E-02    0.642E-01
RMM:   3    -0.413165204590E+03    0.23668E-02   -0.10620E-02  4762   0.406E-02    0.120E-01
RMM:   4    -0.413184953958E+03   -0.19749E-01   -0.20141E-02  5156   0.118E-01    0.589E-01
RMM:   5    -0.413164894194E+03    0.20060E-01   -0.98478E-03  4830   0.976E-02    0.416E-02
RMM:   6    -0.413165017211E+03   -0.12302E-03   -0.16830E-03  5805   0.393E-02    0.268E-02
RMM:   7    -0.413165021140E+03   -0.39290E-05   -0.28456E-04  5664   0.161E-02    0.170E-02
RMM:   8    -0.413165014511E+03    0.66292E-05   -0.49193E-05  4892   0.758E-03    0.821E-03
RMM:   9    -0.413165013524E+03    0.98691E-06   -0.97377E-06  3618   0.358E-03
    6 T=    61. E= -.41286678E+03 F= -.41316501E+03 E0= -.41314255E+03  EK= 0.29823E+00 SP= 0.00E+00 SK= 0.00E+00
       N       E                     dE             d eps       ncg     rms          rms(c)
RMM:   1    -0.413160068301E+03    0.49462E-02   -0.99540E+00  4271   0.675E-01    0.898E-01
RMM:   2    -0.413167378159E+03   -0.73099E-02   -0.12007E-01  4354   0.943E-02    0.636E-01
RMM:   3    -0.413173389245E+03   -0.60111E-02   -0.17312E-02  5160   0.923E-02    0.409E-01
RMM:   4    -0.413181721997E+03   -0.83328E-02   -0.34645E-02  5073   0.161E-01    0.541E-01
RMM:   5    -0.413164874234E+03    0.16848E-01   -0.58493E-03  4630   0.900E-02    0.583E-02
RMM:   6    -0.413164796010E+03    0.78224E-04   -0.12095E-03  5272   0.351E-02    0.286E-02
RMM:   7    -0.413164816272E+03   -0.20262E-04   -0.28176E-04  5975   0.165E-02    0.177E-02
RMM:   8    -0.413164811474E+03    0.47977E-05   -0.55650E-05  5171   0.869E-03    0.710E-03
RMM:   9    -0.413164808691E+03    0.27836E-05   -0.10314E-05  3909   0.406E-03    0.369E-03
RMM:  10    -0.413164808868E+03   -0.17770E-06   -0.12266E-06  2514   0.198E-03
    7 T=    61. E= -.41286641E+03 F= -.41316481E+03 E0= -.41314236E+03  EK= 0.29840E+00 SP= 0.00E+00 SK= 0.00E+00
       N       E                     dE             d eps       ncg     rms          rms(c)
RMM:   1    -0.413160282589E+03    0.45261E-02   -0.99675E+00  4272   0.680E-01    0.881E-01
RMM:   2    -0.413168282955E+03   -0.80004E-02   -0.12196E-01  4104   0.935E-02    0.643E-01
RMM:   3    -0.413165686996E+03    0.25960E-02   -0.10694E-02  4861   0.444E-02    0.124E-01
RMM:   4    -0.413194158503E+03   -0.28472E-01   -0.29555E-02  5146   0.143E-01    0.704E-01
RMM:   5    -0.413165163344E+03    0.28995E-01   -0.14112E-02  4815   0.117E-01    0.456E-02
RMM:   6    -0.413165338670E+03   -0.17533E-03   -0.23315E-03  5754   0.472E-02    0.294E-02
RMM:   7    -0.413165345022E+03   -0.63517E-05   -0.37653E-04  5798   0.173E-02    0.181E-02
RMM:   8    -0.413165344921E+03    0.10122E-06   -0.50863E-05  4998   0.752E-03    0.797E-03
RMM:   9    -0.413165346231E+03   -0.13106E-05   -0.10771E-05  3621   0.362E-03    0.605E-03
RMM:  10    -0.413165349221E+03   -0.29897E-05   -0.16281E-06  2558   0.200E-03    0.386E-03
RMM:  11    -0.413165352634E+03   -0.34127E-05   -0.13222E-06  2535   0.178E-03    0.182E-03
RMM:  12    -0.413165356253E+03   -0.36192E-05   -0.14844E-06  2556   0.172E-03    0.834E-04
RMM:  13    -0.413165356560E+03   -0.30700E-06   -0.38374E-07  2211   0.107E-03
    8 T=    61. E= -.41286653E+03 F= -.41316536E+03 E0= -.41314293E+03  EK= 0.29883E+00 SP= 0.00E+00 SK= 0.00E+00
       N       E                     dE             d eps       ncg     rms          rms(c)
RMM:   1    -0.413160919360E+03    0.44369E-02   -0.10020E+01  4288   0.693E-01    0.898E-01
RMM:   2    -0.413168424709E+03   -0.75053E-02   -0.12198E-01  4159   0.948E-02    0.645E-01
RMM:   3    -0.413165774690E+03    0.26500E-02   -0.10709E-02  4785   0.426E-02    0.120E-01
RMM:   4    -0.413188485643E+03   -0.22711E-01   -0.23284E-02  5150   0.127E-01    0.631E-01
RMM:   5    -0.413165393952E+03    0.23092E-01   -0.11413E-02  4819   0.105E-01    0.424E-02
RMM:   6    -0.413165536720E+03   -0.14277E-03   -0.18554E-03  5816   0.418E-02    0.274E-02
RMM:   7    -0.413165542583E+03   -0.58632E-05   -0.30465E-04  5687   0.165E-02    0.173E-02
RMM:   8    -0.413165537543E+03    0.50399E-05   -0.53332E-05  4947   0.781E-03    0.840E-03
RMM:   9    -0.413165536339E+03    0.12040E-05   -0.10435E-05  3692   0.373E-03    0.648E-03
RMM:  10    -0.413165537185E+03   -0.84638E-06   -0.14983E-06  2543   0.203E-03
    9 T=    61. E= -.41286647E+03 F= -.41316554E+03 E0= -.41314313E+03  EK= 0.29907E+00 SP= 0.00E+00 SK= 0.00E+00
       N       E                     dE             d eps       ncg     rms          rms(c)
RMM:   1    -0.413161088473E+03    0.44479E-02   -0.99926E+00  4293   0.690E-01    0.905E-01
RMM:   2    -0.413168233908E+03   -0.71454E-02   -0.12025E-01  4265   0.941E-02    0.637E-01
RMM:   3    -0.413168366575E+03   -0.13267E-03   -0.12583E-02  5080   0.662E-02    0.249E-01
RMM:   4    -0.413199764146E+03   -0.31398E-01   -0.43634E-02  5114   0.175E-01    0.763E-01
RMM:   5    -0.413165493817E+03    0.34270E-01   -0.14881E-02  4758   0.126E-01    0.579E-02
RMM:   6    -0.413165600350E+03   -0.10653E-03   -0.25785E-03  5623   0.502E-02    0.298E-02
RMM:   7    -0.413165617663E+03   -0.17313E-04   -0.39931E-04  6013   0.171E-02    0.185E-02
RMM:   8    -0.413165613882E+03    0.37808E-05   -0.67952E-05  5232   0.883E-03    0.809E-03
RMM:   9    -0.413165609259E+03    0.46229E-05   -0.10519E-05  3553   0.376E-03    0.413E-03
RMM:  10    -0.413165608222E+03    0.10370E-05   -0.24617E-06  2614   0.225E-03    0.284E-03
RMM:  11    -0.413165606610E+03    0.16124E-05   -0.12402E-06  2519   0.177E-03    0.147E-03
RMM:  12    -0.413165604715E+03    0.18955E-05   -0.80011E-07  2487   0.141E-03    0.498E-04
RMM:  13    -0.413165603720E+03    0.99415E-06   -0.39300E-07  2090   0.101E-03
   10 T=    61. E= -.41286636E+03 F= -.41316560E+03 E0= -.41314322E+03  EK= 0.29924E+00 SP= 0.00E+00 SK= 0.00E+00
       N       E                     dE             d eps       ncg     rms          rms(c)
RMM:   1    -0.413161375027E+03    0.42297E-02   -0.99529E+00  4286   0.699E-01    0.882E-01
RMM:   2    -0.413169175467E+03   -0.78004E-02   -0.12154E-01  4212   0.953E-02    0.640E-01
RMM:   3    -0.413166752614E+03    0.24229E-02   -0.10659E-02  4860   0.449E-02    0.129E-01
RMM:   4    -0.413197116897E+03   -0.30364E-01   -0.31701E-02  5138   0.148E-01    0.727E-01
RMM:   5    -0.413166170603E+03    0.30946E-01   -0.15083E-02  4808   0.121E-01    0.459E-02
RMM:   6    -0.413166352137E+03   -0.18153E-03   -0.24635E-03  5784   0.481E-02    0.297E-02
RMM:   7    -0.413166357634E+03   -0.54967E-05   -0.38391E-04  5735   0.177E-02    0.189E-02
RMM:   8    -0.413166354585E+03    0.30486E-05   -0.60824E-05  5038   0.819E-03    0.894E-03
RMM:   9    -0.413166353256E+03    0.13290E-05   -0.12439E-05  3862   0.398E-03    0.660E-03
RMM:  10    -0.413166354525E+03   -0.12694E-05   -0.17524E-06  2566   0.206E-03    0.423E-03
RMM:  11    -0.413166356089E+03   -0.15634E-05   -0.14416E-06  2539   0.187E-03    0.201E-03
RMM:  12    -0.413166357615E+03   -0.15261E-05   -0.14968E-06  2552   0.178E-03    0.848E-04
RMM:  13    -0.413166357746E+03   -0.13079E-06   -0.40629E-07  2251   0.112E-03
   11 T=    61. E= -.41286670E+03 F= -.41316636E+03 E0= -.41314400E+03  EK= 0.29966E+00 SP= 0.00E+00 SK= 0.00E+00
       N       E                     dE             d eps       ncg     rms          rms(c)
RMM:   1    -0.413161508205E+03    0.48494E-02   -0.10024E+01  4293   0.701E-01    0.893E-01
RMM:   2    -0.413169184554E+03   -0.76763E-02   -0.12233E-01  4215   0.937E-02    0.647E-01
RMM:   3    -0.413166602826E+03    0.25817E-02   -0.10782E-02  4798   0.424E-02    0.120E-01
RMM:   4    -0.413191731282E+03   -0.25128E-01   -0.25950E-02  5135   0.134E-01    0.662E-01
RMM:   5    -0.413166179369E+03    0.25552E-01   -0.12449E-02  4806   0.110E-01    0.435E-02
RMM:   6    -0.413166339813E+03   -0.16044E-03   -0.21362E-03  5801   0.438E-02    0.280E-02
RMM:   7    -0.413166346493E+03   -0.66805E-05   -0.32971E-04  5709   0.167E-02    0.179E-02
RMM:   8    -0.413166341420E+03    0.50730E-05   -0.57848E-05  4971   0.802E-03    0.879E-03
RMM:   9    -0.413166339949E+03    0.14713E-05   -0.11565E-05  3832   0.389E-03    0.673E-03
RMM:  10    -0.413166340956E+03   -0.10069E-05   -0.15848E-06  2549   0.204E-03    0.428E-03
RMM:  11    -0.413166342291E+03   -0.13355E-05   -0.15032E-06  2541   0.191E-03    0.205E-03
RMM:  12    -0.413166343493E+03   -0.12017E-05   -0.13125E-06  2527   0.172E-03    0.781E-04
RMM:  13    -0.413166343611E+03   -0.11774E-06   -0.39856E-07  2213   0.109E-03
   12 T=    61. E= -.41286645E+03 F= -.41316634E+03 E0= -.41314401E+03  EK= 0.29989E+00 SP= 0.00E+00 SK= 0.00E+00
       N       E                     dE             d eps       ncg     rms          rms(c)
RMM:   1    -0.413163251999E+03    0.30915E-02   -0.10029E+01  4291   0.717E-01    0.909E-01
RMM:   2    -0.413169235098E+03   -0.59831E-02   -0.12057E-01  4223   0.902E-02    0.640E-01
RMM:   3    -0.413167178648E+03    0.20564E-02   -0.10748E-02  4895   0.394E-02    0.131E-01
RMM:   4    -0.413192941728E+03   -0.25763E-01   -0.26713E-02  5139   0.136E-01    0.671E-01
RMM:   5    -0.413166735635E+03    0.26206E-01   -0.12837E-02  4805   0.111E-01    0.451E-02
RMM:   6    -0.413166895696E+03   -0.16006E-03   -0.21940E-03  5803   0.446E-02    0.295E-02
RMM:   7    -0.413166894235E+03    0.14607E-05   -0.34556E-04  5688   0.174E-02    0.187E-02
RMM:   8    -0.413166884234E+03    0.10001E-04   -0.58702E-05  4973   0.818E-03    0.912E-03
RMM:   9    -0.413166879743E+03    0.44915E-05   -0.11515E-05  3808   0.390E-03    0.696E-03
RMM:  10    -0.413166877076E+03    0.26665E-05   -0.16342E-06  2550   0.210E-03    0.437E-03
RMM:  11    -0.413166874035E+03    0.30412E-05   -0.14391E-06  2535   0.190E-03    0.215E-03
RMM:  12    -0.413166870129E+03    0.39059E-05   -0.14155E-06  2541   0.179E-03    0.833E-04
RMM:  13    -0.413166869220E+03    0.90854E-06   -0.42215E-07  2244   0.114E-03
   13 T=    61. E= -.41286653E+03 F= -.41316687E+03 E0= -.41314457E+03  EK= 0.30034E+00 SP= 0.00E+00 SK= 0.00E+00
       N       E                     dE             d eps       ncg     rms          rms(c)
RMM:   1    -0.413162541027E+03    0.43291E-02   -0.99515E+00  4291   0.705E-01    0.886E-01
RMM:   2    -0.413170211313E+03   -0.76703E-02   -0.12130E-01  4239   0.913E-02    0.639E-01
RMM:   3    -0.413167821794E+03    0.23895E-02   -0.10540E-02  4859   0.410E-02    0.124E-01
RMM:   4    -0.413192846999E+03   -0.25025E-01   -0.25936E-02  5137   0.134E-01    0.661E-01
RMM:   5    -0.413167378748E+03    0.25468E-01   -0.12457E-02  4805   0.109E-01    0.438E-02
RMM:   6    -0.413167535108E+03   -0.15636E-03   -0.21259E-03  5808   0.437E-02    0.282E-02
RMM:   7    -0.413167539750E+03   -0.46416E-05   -0.32629E-04  5707   0.169E-02    0.179E-02
RMM:   8    -0.413167533514E+03    0.62359E-05   -0.58518E-05  4958   0.809E-03    0.884E-03
RMM:   9    -0.413167530883E+03    0.26305E-05   -0.11654E-05  3855   0.392E-03    0.677E-03
RMM:  10    -0.413167530421E+03    0.46247E-06   -0.15762E-06  2546   0.205E-03
   14 T=    61. E= -.41286661E+03 F= -.41316753E+03 E0= -.41314526E+03  EK= 0.30092E+00 SP= 0.00E+00 SK= 0.00E+00
       N       E                     dE             d eps       ncg     rms          rms(c)
RMM:   1    -0.413162684193E+03    0.48467E-02   -0.10041E+01  4303   0.710E-01    0.890E-01
RMM:   2    -0.413170669515E+03   -0.79853E-02   -0.12306E-01  4314   0.956E-02    0.649E-01
RMM:   3    -0.413171179910E+03   -0.51040E-03   -0.13542E-02  5105   0.691E-02    0.273E-01
RMM:   4    -0.413202144899E+03   -0.30965E-01   -0.46592E-02  5102   0.182E-01    0.766E-01
RMM:   5    -0.413167444321E+03    0.34701E-01   -0.14611E-02  4734   0.126E-01    0.580E-02
RMM:   6    -0.413167532797E+03   -0.88476E-04   -0.25230E-03  5609   0.495E-02    0.281E-02
RMM:   7    -0.413167557102E+03   -0.24305E-04   -0.38766E-04  6012   0.171E-02    0.180E-02
RMM:   8    -0.413167558825E+03   -0.17232E-05   -0.70008E-05  5216   0.899E-03    0.806E-03
RMM:   9    -0.413167556726E+03    0.20986E-05   -0.10708E-05  3556   0.385E-03    0.390E-03
RMM:  10    -0.413167557986E+03   -0.12597E-05   -0.24179E-06  2607   0.221E-03    0.268E-03
RMM:  11    -0.413167559278E+03   -0.12923E-05   -0.13724E-06  2523   0.181E-03    0.145E-03
RMM:  12    -0.413167559738E+03   -0.45929E-06   -0.77100E-07  2477   0.140E-03
   15 T=    61. E= -.41286621E+03 F= -.41316756E+03 E0= -.41314533E+03  EK= 0.30135E+00 SP= 0.00E+00 SK= 0.00E+00
       N       E                     dE             d eps       ncg     rms          rms(c)
RMM:   1    -0.413164152651E+03    0.34066E-02   -0.10055E+01  4298   0.713E-01    0.911E-01
RMM:   2    -0.413171370327E+03   -0.72177E-02   -0.12140E-01  4263   0.973E-02    0.643E-01
RMM:   3    -0.413169201982E+03    0.21683E-02   -0.11081E-02  4931   0.476E-02    0.149E-01
RMM:   4    -0.413205273151E+03   -0.36071E-01   -0.38436E-02  5132   0.163E-01    0.791E-01
RMM:   5    -0.413168421537E+03    0.36852E-01   -0.17807E-02  4793   0.132E-01    0.498E-02
RMM:   6    -0.413168623316E+03   -0.20178E-03   -0.29747E-03  5765   0.528E-02    0.322E-02
RMM:   7    -0.413168620427E+03    0.28889E-05   -0.44578E-04  5763   0.191E-02    0.207E-02
RMM:   8    -0.413168610981E+03    0.94458E-05   -0.71034E-05  5148   0.883E-03    0.101E-02
RMM:   9    -0.413168604950E+03    0.60314E-05   -0.14268E-05  4057   0.425E-03    0.710E-03
RMM:  10    -0.413168601454E+03    0.34953E-05   -0.20625E-06  2580   0.218E-03    0.450E-03
RMM:  11    -0.413168598208E+03    0.32463E-05   -0.13854E-06  2529   0.183E-03    0.234E-03
RMM:  12    -0.413168593100E+03    0.51084E-05   -0.16995E-06  2569   0.195E-03    0.933E-04
RMM:  13    -0.413168591357E+03    0.17427E-05   -0.50114E-07  2338   0.125E-03    0.654E-04
RMM:  14    -0.413168591437E+03   -0.80279E-07   -0.22577E-07  1865   0.835E-04
   16 T=    61. E= -.41286653E+03 F= -.41316859E+03 E0= -.41314639E+03  EK= 0.30206E+00 SP= 0.00E+00 SK= 0.00E+00
       N       E                     dE             d eps       ncg     rms          rms(c)
RMM:   1    -0.413164316047E+03    0.42753E-02   -0.99801E+00  4301   0.715E-01    0.892E-01
RMM:   2    -0.413171951658E+03   -0.76356E-02   -0.12134E-01  4267   0.976E-02    0.639E-01
RMM:   3    -0.413169429737E+03    0.25219E-02   -0.10596E-02  4822   0.452E-02    0.132E-01
RMM:   4    -0.413198624607E+03   -0.29195E-01   -0.30397E-02  5134   0.145E-01    0.712E-01
RMM:   5    -0.413168899680E+03    0.29725E-01   -0.14478E-02  4799   0.118E-01    0.463E-02
RMM:   6    -0.413169080125E+03   -0.18044E-03   -0.25354E-03  5793   0.475E-02    0.302E-02
RMM:   7    -0.413169080571E+03   -0.44616E-06   -0.37774E-04  5703   0.178E-02    0.192E-02
RMM:   8    -0.413169071834E+03    0.87365E-05   -0.63241E-05  5032   0.837E-03    0.945E-03
RMM:   9    -0.413169067325E+03    0.45095E-05   -0.12860E-05  3968   0.408E-03    0.706E-03
RMM:  10    -0.413169065066E+03    0.22587E-05   -0.17233E-06  2554   0.210E-03    0.450E-03
RMM:  11    -0.413169062725E+03    0.23414E-05   -0.14555E-06  2536   0.189E-03    0.223E-03
RMM:  12    -0.413169059476E+03    0.32485E-05   -0.14481E-06  2529   0.184E-03    0.830E-04
RMM:  13    -0.413169058636E+03    0.83994E-06   -0.43671E-07  2262   0.117E-03
   17 T=    62. E= -.41286648E+03 F= -.41316906E+03 E0= -.41314690E+03  EK= 0.30257E+00 SP= 0.00E+00 SK= 0.00E+00
       N       E                     dE             d eps       ncg     rms          rms(c)
RMM:   1    -0.413164734805E+03    0.43247E-02   -0.10054E+01  4297   0.723E-01    0.889E-01
RMM:   2    -0.413172622892E+03   -0.78881E-02   -0.12361E-01  4276   0.947E-02    0.650E-01
RMM:   3    -0.413169912113E+03    0.27108E-02   -0.11075E-02  4859   0.449E-02    0.124E-01
RMM:   4    -0.413199269989E+03   -0.29358E-01   -0.30675E-02  5131   0.145E-01    0.714E-01
RMM:   5    -0.413169355509E+03    0.29914E-01   -0.14644E-02  4795   0.119E-01    0.452E-02
RMM:   6    -0.413169535754E+03   -0.18024E-03   -0.24199E-03  5804   0.471E-02    0.288E-02
RMM:   7    -0.413169542854E+03   -0.71000E-05   -0.35818E-04  5725   0.174E-02    0.183E-02
RMM:   8    -0.413169538202E+03    0.46513E-05   -0.64969E-05  5014   0.840E-03    0.925E-03
RMM:   9    -0.413169535501E+03    0.27015E-05   -0.13446E-05  4037   0.415E-03    0.686E-03
RMM:  10    -0.413169535646E+03   -0.14484E-06   -0.17305E-06  2555   0.207E-03
   18 T=    62. E= -.41286639E+03 F= -.41316954E+03 E0= -.41314742E+03  EK= 0.30315E+00 SP= 0.00E+00 SK= 0.00E+00
       N       E                     dE             d eps       ncg     rms          rms(c)
RMM:   1    -0.413166287105E+03    0.32484E-02   -0.10082E+01  4305   0.726E-01    0.910E-01
RMM:   2    -0.413173393428E+03   -0.71063E-02   -0.12233E-01  4337   0.945E-02    0.647E-01
RMM:   3    -0.413174771289E+03   -0.13779E-02   -0.13867E-02  5117   0.708E-02    0.290E-01
RMM:   4    -0.413201198970E+03   -0.26428E-01   -0.43088E-02  5086   0.175E-01    0.721E-01
RMM:   5    -0.413170670892E+03    0.30528E-01   -0.12570E-02  4706   0.118E-01    0.574E-02
RMM:   6    -0.413170746954E+03   -0.76061E-04   -0.22876E-03  5568   0.468E-02    0.295E-02
RMM:   7    -0.413170758753E+03   -0.11800E-04   -0.36409E-04  5992   0.167E-02    0.184E-02
RMM:   8    -0.413170753848E+03    0.49055E-05   -0.66889E-05  5196   0.886E-03    0.801E-03
RMM:   9    -0.413170747277E+03    0.65711E-05   -0.97831E-06  3505   0.377E-03    0.391E-03
RMM:  10    -0.413170745002E+03    0.22745E-05   -0.21518E-06  2576   0.218E-03    0.262E-03
RMM:  11    -0.413170741256E+03    0.37465E-05   -0.12571E-06  2520   0.178E-03    0.145E-03
RMM:  12    -0.413170737771E+03    0.34844E-05   -0.67579E-07  2455   0.137E-03    0.477E-04
RMM:  13    -0.413170735901E+03    0.18702E-05   -0.32967E-07  2022   0.963E-04    0.293E-04
RMM:  14    -0.413170734220E+03    0.16814E-05   -0.19246E-07  1528   0.774E-04    0.200E-04
RMM:  15    -0.413170731622E+03    0.25976E-05   -0.15638E-07  1328   0.716E-04    0.100E-04
RMM:  16    -0.413170729192E+03    0.24302E-05   -0.12770E-07  1324   0.681E-04    0.107E-04
RMM:  17    -0.413170726446E+03    0.27455E-05   -0.11636E-07  1327   0.658E-04    0.611E-05
RMM:  18    -0.413170724739E+03    0.17072E-05   -0.68466E-08  1044   0.586E-04    0.278E-05
RMM:  19    -0.413170723983E+03    0.75636E-06   -0.35735E-08   847   0.547E-04
   19 T=    62. E= -.41286671E+03 F= -.41317072E+03 E0= -.41314865E+03  EK= 0.30401E+00 SP= 0.00E+00 SK= 0.00E+00
       N       E                     dE             d eps       ncg     rms          rms(c)
RMM:   1    -0.413166488107E+03    0.42366E-02   -0.10026E+01  4297   0.726E-01    0.900E-01
RMM:   2    -0.413173581545E+03   -0.70934E-02   -0.12179E-01  4273   0.923E-02    0.640E-01
RMM:   3    -0.413171692078E+03    0.18895E-02   -0.10931E-02  4958   0.449E-02    0.149E-01
RMM:   4    -0.413207809584E+03   -0.36118E-01   -0.38642E-02  5133   0.163E-01    0.791E-01
RMM:   5    -0.413170898711E+03    0.36911E-01   -0.17933E-02  4791   0.132E-01    0.499E-02
RMM:   6    -0.413171099830E+03   -0.20112E-03   -0.29635E-03  5774   0.526E-02    0.322E-02
RMM:   7    -0.413171100532E+03   -0.70229E-06   -0.43889E-04  5729   0.189E-02    0.205E-02
RMM:   8    -0.413171092359E+03    0.81729E-05   -0.71684E-05  5155   0.886E-03    0.991E-03
RMM:   9    -0.413171085988E+03    0.63707E-05   -0.14675E-05  4090   0.431E-03    0.691E-03
RMM:  10    -0.413171082603E+03    0.33850E-05   -0.20501E-06  2578   0.215E-03    0.444E-03
RMM:  11    -0.413171079432E+03    0.31713E-05   -0.12923E-06  2517   0.179E-03    0.230E-03
RMM:  12    -0.413171074713E+03    0.47194E-05   -0.15235E-06  2535   0.189E-03    0.893E-04
RMM:  13    -0.413171073118E+03    0.15948E-05   -0.47841E-07  2325   0.123E-03    0.633E-04
RMM:  14    -0.413171073196E+03   -0.78137E-07   -0.22477E-07  1844   0.830E-04
   20 T=    62. E= -.41286640E+03 F= -.41317107E+03 E0= -.41314904E+03  EK= 0.30467E+00 SP= 0.00E+00 SK= 0.00E+00
       N       E                     dE             d eps       ncg     rms          rms(c)
RMM:   1    -0.413167332630E+03    0.37405E-02   -0.10073E+01  4295   0.740E-01    0.889E-01
RMM:   2    -0.413175336174E+03   -0.80035E-02   -0.12457E-01  4278   0.958E-02    0.650E-01
RMM:   3    -0.413172557828E+03    0.27783E-02   -0.11057E-02  4853   0.434E-02    0.121E-01
RMM:   4    -0.413199645476E+03   -0.27088E-01   -0.28216E-02  5137   0.139E-01    0.687E-01
RMM:   5    -0.413172060407E+03    0.27585E-01   -0.13495E-02  4802   0.114E-01    0.447E-02
RMM:   6    -0.413172228275E+03   -0.16787E-03   -0.23359E-03  5819   0.453E-02    0.283E-02
RMM:   7    -0.413172234805E+03   -0.65293E-05   -0.33057E-04  5688   0.169E-02    0.177E-02
RMM:   8    -0.413172228972E+03    0.58321E-05   -0.64513E-05  4998   0.835E-03    0.940E-03
RMM:   9    -0.413172224953E+03    0.40196E-05   -0.13004E-05  4038   0.415E-03    0.700E-03
RMM:  10    -0.413172224202E+03    0.75112E-06   -0.16679E-06  2552   0.207E-03
   21 T=    62. E= -.41286654E+03 F= -.41317222E+03 E0= -.41315024E+03  EK= 0.30569E+00 SP= 0.00E+00 SK= 0.00E+00
       N       E                     dE             d eps       ncg     rms          rms(c)
RMM:   1    -0.413168823629E+03    0.34013E-02   -0.10128E+01  4295   0.745E-01    0.908E-01
RMM:   2    -0.413176226575E+03   -0.74029E-02   -0.12374E-01  4319   0.978E-02    0.651E-01
RMM:   3    -0.413176989083E+03   -0.76251E-03   -0.13708E-02  5095   0.703E-02    0.279E-01
RMM:   4    -0.413206497025E+03   -0.29508E-01   -0.45398E-02  5102   0.179E-01    0.751E-01
RMM:   5    -0.413173197671E+03    0.33299E-01   -0.14081E-02  4726   0.124E-01    0.571E-02
RMM:   6    -0.413173288504E+03   -0.90833E-04   -0.24872E-03  5607   0.492E-02    0.296E-02
RMM:   7    -0.413173300095E+03   -0.11591E-04   -0.38289E-04  5971   0.173E-02    0.187E-02
RMM:   8    -0.413173295133E+03    0.49628E-05   -0.69288E-05  5172   0.901E-03    0.820E-03
RMM:   9    -0.413173288667E+03    0.64659E-05   -0.11015E-05  3617   0.391E-03    0.406E-03
RMM:  10    -0.413173286300E+03    0.23668E-05   -0.23630E-06  2602   0.221E-03    0.280E-03
RMM:  11    -0.413173282706E+03    0.35942E-05   -0.11381E-06  2502   0.173E-03    0.147E-03
RMM:  12    -0.413173279026E+03    0.36796E-05   -0.69229E-07  2453   0.137E-03    0.457E-04
RMM:  13    -0.413173277121E+03    0.19053E-05   -0.33493E-07  2049   0.972E-04    0.284E-04
RMM:  14    -0.413173275569E+03    0.15523E-05   -0.18931E-07  1542   0.771E-04    0.193E-04
RMM:  15    -0.413173273035E+03    0.25340E-05   -0.14502E-07  1317   0.705E-04    0.980E-05
RMM:  16    -0.413173270543E+03    0.24917E-05   -0.11492E-07  1254   0.674E-04    0.111E-04
RMM:  17    -0.413173268127E+03    0.24160E-05   -0.93045E-08  1215   0.644E-04    0.659E-05
RMM:  18    -0.413173265878E+03    0.22486E-05   -0.71097E-08  1114   0.607E-04    0.256E-05
RMM:  19    -0.413173265131E+03    0.74737E-06   -0.34674E-08   862   0.554E-04
   22 T=    62. E= -.41286652E+03 F= -.41317327E+03 E0= -.41315132E+03  EK= 0.30675E+00 SP= 0.00E+00 SK= 0.00E+00
       N       E                     dE             d eps       ncg     rms          rms(c)
RMM:   1    -0.413169758300E+03    0.35076E-02   -0.10106E+01  4293   0.748E-01    0.910E-01
RMM:   2    -0.413176871676E+03   -0.71134E-02   -0.12297E-01  4284   0.988E-02    0.644E-01
RMM:   3    -0.413174460619E+03    0.24111E-02   -0.11101E-02  4880   0.476E-02    0.145E-01
RMM:   4    -0.413208619989E+03   -0.34159E-01   -0.36098E-02  5140   0.158E-01    0.769E-01
RMM:   5    -0.413173790089E+03    0.34830E-01   -0.17045E-02  4794   0.128E-01    0.491E-02
RMM:   6    -0.413173983059E+03   -0.19297E-03   -0.28824E-03  5795   0.513E-02    0.321E-02
RMM:   7    -0.413173983112E+03   -0.52678E-07   -0.41485E-04  5722   0.188E-02    0.202E-02
RMM:   8    -0.413173973472E+03    0.96396E-05   -0.73750E-05  5118   0.897E-03    0.104E-02
RMM:   9    -0.413173966022E+03    0.74501E-05   -0.15004E-05  4161   0.441E-03    0.733E-03
RMM:  10    -0.413173961415E+03    0.46070E-05   -0.20005E-06  2567   0.219E-03    0.466E-03
RMM:  11    -0.413173957263E+03    0.41525E-05   -0.13384E-06  2522   0.183E-03    0.250E-03
RMM:  12    -0.413173950676E+03    0.65863E-05   -0.16159E-06  2535   0.198E-03    0.952E-04
RMM:  13    -0.413173948553E+03    0.21238E-05   -0.52528E-07  2343   0.129E-03    0.678E-04
RMM:  14    -0.413173948512E+03    0.41087E-07   -0.23915E-07  1901   0.860E-04
   23 T=    63. E= -.41286626E+03 F= -.41317395E+03 E0= -.41315205E+03  EK= 0.30769E+00 SP= 0.00E+00 SK= 0.00E+00
       N       E                     dE             d eps       ncg     rms          rms(c)
RMM:   1    -0.413171517240E+03    0.24313E-02   -0.10115E+01  4294   0.770E-01    0.892E-01
RMM:   2    -0.413178888475E+03   -0.73712E-02   -0.12575E-01  4285   0.103E-01    0.650E-01
RMM:   3    -0.413175806244E+03    0.30822E-02   -0.10995E-02  4743   0.474E-02    0.122E-01
RMM:   4    -0.413201071234E+03   -0.25265E-01   -0.26020E-02  5135   0.134E-01    0.663E-01
RMM:   5    -0.413175389535E+03    0.25682E-01   -0.12683E-02  4801   0.110E-01    0.440E-02
RMM:   6    -0.413175535095E+03   -0.14556E-03   -0.21517E-03  5819   0.437E-02    0.277E-02
RMM:   7    -0.413175541279E+03   -0.61842E-05   -0.29450E-04  5691   0.163E-02    0.163E-02
RMM:   8    -0.413175536559E+03    0.47199E-05   -0.62918E-05  5006   0.816E-03    0.949E-03
RMM:   9    -0.413175531381E+03    0.51777E-05   -0.12562E-05  4030   0.413E-03    0.698E-03
RMM:  10    -0.413175529637E+03    0.17442E-05   -0.16991E-06  2557   0.210E-03    0.442E-03
RMM:  11    -0.413175527520E+03    0.21168E-05   -0.15083E-06  2523   0.197E-03    0.218E-03
RMM:  12    -0.413175524727E+03    0.27931E-05   -0.12800E-06  2503   0.177E-03    0.776E-04
RMM:  13    -0.413175523947E+03    0.78070E-06   -0.42194E-07  2224   0.113E-03
   24 T=    63. E= -.41286660E+03 F= -.41317552E+03 E0= -.41315368E+03  EK= 0.30892E+00 SP= 0.00E+00 SK= 0.00E+00
       N       E                     dE             d eps       ncg     rms          rms(c)
RMM:   1    -0.413172348848E+03    0.31759E-02   -0.10192E+01  4300   0.776E-01    0.906E-01
RMM:   2    -0.413179807011E+03   -0.74582E-02   -0.12589E-01  4288   0.103E-01    0.656E-01
RMM:   3    -0.413176763545E+03    0.30435E-02   -0.11204E-02  4741   0.460E-02    0.121E-01
RMM:   4    -0.413200248397E+03   -0.23485E-01   -0.24124E-02  5140   0.129E-01    0.640E-01
RMM:   5    -0.413176393458E+03    0.23855E-01   -0.11805E-02  4808   0.106E-01    0.434E-02
RMM:   6    -0.413176520234E+03   -0.12678E-03   -0.19858E-03  5825   0.419E-02    0.267E-02
RMM:   7    -0.413176523066E+03   -0.28326E-05   -0.24302E-04  5690   0.151E-02    0.138E-02
RMM:   8    -0.413176519332E+03    0.37347E-05   -0.50966E-05  4982   0.724E-03    0.926E-03
RMM:   9    -0.413176514257E+03    0.50750E-05   -0.11455E-05  3928   0.384E-03    0.695E-03
RMM:  10    -0.413176511894E+03    0.23623E-05   -0.15890E-06  2543   0.212E-03    0.439E-03
RMM:  11    -0.413176508867E+03    0.30275E-05   -0.15114E-06  2522   0.196E-03    0.225E-03
RMM:  12    -0.413176504521E+03    0.43459E-05   -0.13085E-06  2501   0.181E-03    0.820E-04
RMM:  13    -0.413176503443E+03    0.10776E-05   -0.42248E-07  2242   0.115E-03    0.581E-04
RMM:  14    -0.413176503068E+03    0.37530E-06   -0.19318E-07  1705   0.796E-04
   25 T=    63. E= -.41286644E+03 F= -.41317650E+03 E0= -.41315471E+03  EK= 0.31007E+00 SP= 0.00E+00 SK= 0.00E+00
       N       E                     dE             d eps       ncg     rms          rms(c)
RMM:   1    -0.413173659726E+03    0.28437E-02   -0.10196E+01  4294   0.761E-01    0.919E-01
RMM:   2    -0.413180630339E+03   -0.69706E-02   -0.12428E-01  4285   0.984E-02    0.649E-01
RMM:   3    -0.413178178857E+03    0.24515E-02   -0.11130E-02  4747   0.454E-02    0.130E-01
RMM:   4    -0.413201774850E+03   -0.23596E-01   -0.24262E-02  5144   0.130E-01    0.642E-01
RMM:   5    -0.413177806152E+03    0.23969E-01   -0.11984E-02  4812   0.106E-01    0.447E-02
RMM:   6    -0.413177928593E+03   -0.12244E-03   -0.19754E-03  5817   0.425E-02    0.288E-02
RMM:   7    -0.413177924267E+03    0.43258E-05   -0.29181E-04  5668   0.166E-02    0.166E-02
RMM:   8    -0.413177914730E+03    0.95369E-05   -0.59768E-05  4994   0.812E-03    0.950E-03
RMM:   9    -0.413177907464E+03    0.72661E-05   -0.11521E-05  3904   0.397E-03    0.697E-03
RMM:  10    -0.413177902164E+03    0.53000E-05   -0.15824E-06  2546   0.209E-03    0.431E-03
RMM:  11    -0.413177895994E+03    0.61702E-05   -0.13833E-06  2518   0.191E-03    0.208E-03
RMM:  12    -0.413177888826E+03    0.71678E-05   -0.11565E-06  2488   0.171E-03    0.750E-04
RMM:  13    -0.413177886690E+03    0.21357E-05   -0.40366E-07  2213   0.111E-03    0.491E-04
RMM:  14    -0.413177885937E+03    0.75384E-06   -0.19759E-07  1714   0.795E-04
   26 T=    63. E= -.41286648E+03 F= -.41317789E+03 E0= -.41315614E+03  EK= 0.31141E+00 SP= 0.00E+00 SK= 0.00E+00
       N       E                     dE             d eps       ncg     rms          rms(c)
RMM:   1    -0.413175418414E+03    0.24683E-02   -0.10169E+01  4296   0.784E-01    0.897E-01
RMM:   2    -0.413182501593E+03   -0.70832E-02   -0.12620E-01  4283   0.102E-01    0.651E-01
RMM:   3    -0.413179900557E+03    0.26010E-02   -0.11080E-02  4762   0.457E-02    0.122E-01
RMM:   4    -0.413202796686E+03   -0.22896E-01   -0.23536E-02  5144   0.128E-01    0.633E-01
RMM:   5    -0.413179531196E+03    0.23265E-01   -0.11616E-02  4812   0.105E-01    0.435E-02
RMM:   6    -0.413179655300E+03   -0.12410E-03   -0.19259E-03  5826   0.416E-02    0.279E-02
RMM:   7    -0.413179657018E+03   -0.17177E-05   -0.28922E-04  5675   0.163E-02    0.165E-02
RMM:   8    -0.413179650049E+03    0.69689E-05   -0.58962E-05  4974   0.806E-03    0.915E-03
RMM:   9    -0.413179644546E+03    0.55031E-05   -0.11255E-05  3875   0.395E-03    0.673E-03
RMM:  10    -0.413179641567E+03    0.29787E-05   -0.15281E-06  2540   0.205E-03    0.420E-03
RMM:  11    -0.413179637911E+03    0.36558E-05   -0.13766E-06  2517   0.190E-03    0.200E-03
RMM:  12    -0.413179633709E+03    0.42017E-05   -0.11069E-06  2485   0.167E-03    0.750E-04
RMM:  13    -0.413179632601E+03    0.11086E-05   -0.38512E-07  2196   0.108E-03    0.491E-04
RMM:  14    -0.413179632029E+03    0.57224E-06   -0.18619E-07  1651   0.776E-04
   27 T=    64. E= -.41286666E+03 F= -.41317963E+03 E0= -.41315793E+03  EK= 0.31297E+00 SP= 0.00E+00 SK= 0.00E+00
       N       E                     dE             d eps       ncg     rms          rms(c)
RMM:   1    -0.413178021270E+03    0.16113E-02   -0.10293E+01  4294   0.804E-01    0.906E-01
RMM:   2    -0.413183865953E+03   -0.58447E-02   -0.13210E-01  4280   0.107E-01    0.662E-01
RMM:   3    -0.413181028392E+03    0.28376E-02   -0.11303E-02  4707   0.469E-02    0.120E-01
RMM:   4    -0.413200600966E+03   -0.19573E-01   -0.20032E-02  5146   0.118E-01    0.586E-01
RMM:   5    -0.413180738657E+03    0.19862E-01   -0.99579E-03  4816   0.969E-02    0.420E-02
RMM:   6    -0.413180839619E+03   -0.10096E-03   -0.16311E-03  5830   0.383E-02    0.262E-02
RMM:   7    -0.413180840533E+03   -0.91310E-06   -0.24292E-04  5656   0.152E-02    0.149E-02
RMM:   8    -0.413180835240E+03    0.52925E-05   -0.51915E-05  4950   0.758E-03    0.871E-03
RMM:   9    -0.413180830512E+03    0.47286E-05   -0.99279E-06  3738   0.375E-03    0.642E-03
RMM:  10    -0.413180828313E+03    0.21989E-05   -0.13790E-06  2525   0.202E-03    0.394E-03
RMM:  11    -0.413180825295E+03    0.30171E-05   -0.14090E-06  2522   0.192E-03    0.184E-03
RMM:  12    -0.413180822054E+03    0.32413E-05   -0.94251E-07  2450   0.156E-03    0.690E-04
RMM:  13    -0.413180821241E+03    0.81283E-06   -0.34417E-07  2120   0.102E-03
   28 T=    64. E= -.41286637E+03 F= -.41318082E+03 E0= -.41315917E+03  EK= 0.31445E+00 SP= 0.00E+00 SK= 0.00E+00
       N       E                     dE             d eps       ncg     rms          rms(c)
RMM:   1    -0.413178625558E+03    0.21965E-02   -0.10309E+01  4293   0.783E-01    0.927E-01
RMM:   2    -0.413185585618E+03   -0.69601E-02   -0.12667E-01  4276   0.105E-01    0.656E-01
RMM:   3    -0.413182901238E+03    0.26844E-02   -0.11493E-02  4461   0.474E-02    0.117E-01
RMM:   4    -0.413189034385E+03   -0.61331E-02   -0.66397E-03  5153   0.680E-02    0.332E-01
RMM:   5    -0.413182839117E+03    0.61953E-02   -0.32101E-03  4836   0.549E-02    0.384E-02
RMM:   6    -0.413182858844E+03   -0.19727E-04   -0.66916E-04  5732   0.248E-02    0.256E-02
RMM:   7    -0.413182842638E+03    0.16206E-04   -0.22699E-04  5267   0.153E-02    0.152E-02
RMM:   8    -0.413182829951E+03    0.12687E-04   -0.15740E-05  3982   0.525E-03    0.629E-03
RMM:   9    -0.413182826200E+03    0.37507E-05   -0.29842E-06  2717   0.232E-03    0.411E-03
RMM:  10    -0.413182820320E+03    0.58802E-05   -0.13112E-06  2492   0.189E-03    0.219E-03
RMM:  11    -0.413182814628E+03    0.56925E-05   -0.70303E-07  2422   0.142E-03    0.105E-03
RMM:  12    -0.413182809875E+03    0.47525E-05   -0.39204E-07  2138   0.106E-03    0.448E-04
RMM:  13    -0.413182806782E+03    0.30932E-05   -0.22436E-07  1709   0.821E-04    0.249E-04
RMM:  14    -0.413182802881E+03    0.39005E-05   -0.13256E-07  1365   0.709E-04    0.150E-04
RMM:  15    -0.413182797777E+03    0.51049E-05   -0.11389E-07  1338   0.685E-04    0.863E-05
RMM:  16    -0.413182795277E+03    0.24997E-05   -0.65908E-08  1087   0.607E-04    0.630E-05
RMM:  17    -0.413182791154E+03    0.41225E-05   -0.75975E-08  1242   0.624E-04    0.379E-05
RMM:  18    -0.413182790347E+03    0.80712E-06   -0.29405E-08   823   0.537E-04
   29 T=    64. E= -.41286653E+03 F= -.41318279E+03 E0= -.41316119E+03  EK= 0.31626E+00 SP= 0.00E+00 SK= 0.00E+00
       N       E                     dE             d eps       ncg     rms          rms(c)
RMM:   1    -0.413180993387E+03    0.17978E-02   -0.10274E+01  4287   0.800E-01    0.907E-01
RMM:   2    -0.413187939697E+03   -0.69463E-02   -0.12800E-01  4269   0.111E-01    0.654E-01
RMM:   3    -0.413184770727E+03    0.31690E-02   -0.11328E-02  4507   0.485E-02    0.114E-01
RMM:   4    -0.413194263344E+03   -0.94926E-02   -0.98602E-03  5157   0.835E-02    0.411E-01
RMM:   5    -0.413184689584E+03    0.95738E-02   -0.48852E-03  4831   0.678E-02    0.388E-02
RMM:   6    -0.413184722886E+03   -0.33301E-04   -0.87674E-04  5806   0.281E-02    0.244E-02
RMM:   7    -0.413184722257E+03    0.62845E-06   -0.22911E-04  5395   0.151E-02    0.161E-02
RMM:   8    -0.413184706070E+03    0.16188E-04   -0.25252E-05  4536   0.622E-03    0.692E-03
RMM:   9    -0.413184703867E+03    0.22031E-05   -0.47608E-06  2976   0.274E-03    0.499E-03
RMM:  10    -0.413184700348E+03    0.35191E-05   -0.13774E-06  2491   0.196E-03    0.275E-03
RMM:  11    -0.413184696529E+03    0.38187E-05   -0.91368E-07  2473   0.160E-03    0.136E-03
RMM:  12    -0.413184693121E+03    0.34084E-05   -0.51032E-07  2322   0.121E-03    0.667E-04
RMM:  13    -0.413184691646E+03    0.14748E-05   -0.23290E-07  1858   0.851E-04    0.295E-04
RMM:  14    -0.413184689752E+03    0.18935E-05   -0.12857E-07  1357   0.700E-04    0.179E-04
RMM:  15    -0.413184687002E+03    0.27500E-05   -0.88633E-08  1199   0.656E-04    0.805E-05
RMM:  16    -0.413184685409E+03    0.15933E-05   -0.49074E-08   944   0.608E-04    0.644E-05
RMM:  17    -0.413184683404E+03    0.20053E-05   -0.43681E-08   956   0.601E-04    0.395E-05
RMM:  18    -0.413184680998E+03    0.24054E-05   -0.48762E-08  1097   0.604E-04    0.384E-05
RMM:  19    -0.413184680445E+03    0.55283E-06   -0.15297E-08   719   0.540E-04
   30 T=    65. E= -.41286660E+03 F= -.41318468E+03 E0= -.41316313E+03  EK= 0.31808E+00 SP= 0.00E+00 SK= 0.00E+00
       N       E                     dE             d eps       ncg     rms          rms(c)
RMM:   1    -0.413182728125E+03    0.19529E-02   -0.10395E+01  4291   0.827E-01    0.909E-01
RMM:   2    -0.413190220151E+03   -0.74920E-02   -0.13266E-01  4277   0.118E-01    0.667E-01
RMM:   3    -0.413186332364E+03    0.38878E-02   -0.11863E-02  4384   0.558E-02    0.104E-01
RMM:   4    -0.413191395385E+03   -0.50630E-02   -0.54820E-03  5159   0.622E-02    0.300E-01
RMM:   5    -0.413186345013E+03    0.50504E-02   -0.25828E-03  4826   0.495E-02    0.368E-02
RMM:   6    -0.413186365187E+03   -0.20174E-04   -0.56180E-04  5750   0.230E-02    0.251E-02
RMM:   7    -0.413186356958E+03    0.82294E-05   -0.21284E-04  5234   0.144E-02    0.151E-02
RMM:   8    -0.413186346949E+03    0.10008E-04   -0.16983E-05  4167   0.530E-03    0.639E-03
RMM:   9    -0.413186345816E+03    0.11330E-05   -0.25404E-06  2645   0.218E-03    0.407E-03
RMM:  10    -0.413186343718E+03    0.20978E-05   -0.11677E-06  2484   0.171E-03    0.214E-03
RMM:  11    -0.413186341940E+03    0.17787E-05   -0.68960E-07  2413   0.132E-03    0.101E-03
RMM:  12    -0.413186340089E+03    0.18506E-05   -0.38075E-07  2097   0.101E-03    0.428E-04
RMM:  13    -0.413186338827E+03    0.12616E-05   -0.19336E-07  1568   0.773E-04    0.241E-04
RMM:  14    -0.413186337374E+03    0.14530E-05   -0.11062E-07  1154   0.670E-04    0.162E-04
RMM:  15    -0.413186335025E+03    0.23493E-05   -0.92753E-08  1088   0.653E-04    0.730E-05
RMM:  16    -0.413186334063E+03    0.96190E-06   -0.49674E-08   928   0.603E-04
   31 T=    65. E= -.41286640E+03 F= -.41318633E+03 E0= -.41316484E+03  EK= 0.31993E+00 SP= 0.00E+00 SK= 0.00E+00
       N       E                     dE             d eps       ncg     rms          rms(c)
RMM:   1    -0.413184818008E+03    0.15170E-02   -0.10439E+01  4288   0.817E-01    0.933E-01
RMM:   2    -0.413192248986E+03   -0.74310E-02   -0.13051E-01  4280   0.124E-01    0.664E-01
RMM:   3    -0.413188913851E+03    0.33351E-02   -0.11822E-02  4299   0.546E-02    0.115E-01
RMM:   4    -0.413190070141E+03   -0.11563E-02   -0.18568E-03  5095   0.360E-02    0.143E-01
RMM:   5    -0.413188977434E+03    0.10927E-02   -0.59370E-04  4802   0.246E-02    0.381E-02
RMM:   6    -0.413188990481E+03   -0.13047E-04   -0.33862E-04  5464   0.184E-02    0.279E-02
RMM:   7    -0.413188956586E+03    0.33895E-04   -0.18561E-04  4912   0.137E-02    0.151E-02
RMM:   8    -0.413188951698E+03    0.48886E-05   -0.18731E-05  4232   0.492E-03    0.556E-03
RMM:   9    -0.413188950022E+03    0.16759E-05   -0.24352E-06  2515   0.209E-03    0.285E-03
RMM:  10    -0.413188943190E+03    0.68319E-05   -0.85929E-07  2434   0.150E-03    0.133E-03
RMM:  11    -0.413188938146E+03    0.50437E-05   -0.41046E-07  2086   0.100E-03    0.462E-04
RMM:  12    -0.413188933801E+03    0.43455E-05   -0.22107E-07  1766   0.816E-04    0.236E-04
RMM:  13    -0.413188930583E+03    0.32179E-05   -0.11857E-07  1280   0.685E-04    0.167E-04
RMM:  14    -0.413188926344E+03    0.42384E-05   -0.83709E-08  1129   0.645E-04    0.912E-05
RMM:  15    -0.413188921683E+03    0.46611E-05   -0.75612E-08  1158   0.633E-04    0.868E-05
RMM:  16    -0.413188918386E+03    0.32968E-05   -0.50913E-08   991   0.583E-04    0.577E-05
RMM:  17    -0.413188916842E+03    0.15441E-05   -0.28882E-08   795   0.543E-04    0.334E-05
RMM:  18    -0.413188916072E+03    0.77023E-06   -0.19017E-08   718   0.525E-04
   32 T=    66. E= -.41286678E+03 F= -.41318892E+03 E0= -.41316747E+03  EK= 0.32213E+00 SP= 0.00E+00 SK= 0.00E+00
       N       E                     dE             d eps       ncg     rms          rms(c)
RMM:   1    -0.413186612188E+03    0.23047E-02   -0.10408E+01  4285   0.830E-01    0.920E-01
RMM:   2    -0.413194072062E+03   -0.74599E-02   -0.13129E-01  4273   0.125E-01    0.660E-01
RMM:   3    -0.413190850101E+03    0.32220E-02   -0.11588E-02  4288   0.530E-02    0.115E-01
RMM:   4    -0.413191941210E+03   -0.10911E-02   -0.17718E-03  5107   0.350E-02    0.138E-01
RMM:   5    -0.413190939542E+03    0.10017E-02   -0.54918E-04  4790   0.237E-02    0.376E-02
RMM:   6    -0.413190947107E+03   -0.75648E-05   -0.31704E-04  5467   0.179E-02    0.274E-02
RMM:   7    -0.413190918978E+03    0.28129E-04   -0.18851E-04  4919   0.134E-02    0.159E-02
RMM:   8    -0.413190913111E+03    0.58673E-05   -0.18008E-05  4208   0.491E-03    0.594E-03
RMM:   9    -0.413190911702E+03    0.14091E-05   -0.28151E-06  2490   0.209E-03    0.272E-03
RMM:  10    -0.413190905957E+03    0.57449E-05   -0.87476E-07  2371   0.149E-03    0.133E-03
RMM:  11    -0.413190901917E+03    0.40399E-05   -0.38909E-07  1990   0.100E-03    0.566E-04
RMM:  12    -0.413190897576E+03    0.43409E-05   -0.23504E-07  1722   0.828E-04    0.225E-04
RMM:  13    -0.413190894312E+03    0.32644E-05   -0.11302E-07  1130   0.673E-04    0.167E-04
RMM:  14    -0.413190890526E+03    0.37860E-05   -0.77105E-08   941   0.630E-04    0.114E-04
RMM:  15    -0.413190885916E+03    0.46096E-05   -0.75899E-08  1054   0.632E-04    0.625E-05
RMM:  16    -0.413190883639E+03    0.22775E-05   -0.41876E-08   814   0.573E-04    0.602E-05
RMM:  17    -0.413190881793E+03    0.18461E-05   -0.28594E-08   731   0.549E-04    0.241E-05
RMM:  18    -0.413190881055E+03    0.73729E-06   -0.16677E-08   584   0.520E-04
   33 T=    66. E= -.41286666E+03 F= -.41319088E+03 E0= -.41316948E+03  EK= 0.32422E+00 SP= 0.00E+00 SK= 0.00E+00
       N       E                     dE             d eps       ncg     rms          rms(c)
RMM:   1    -0.413193328441E+03   -0.24466E-02   -0.10556E+01  4299   0.897E-01    0.913E-01
RMM:   2    -0.413196599175E+03   -0.32707E-02   -0.14386E-01  4274   0.135E-01    0.673E-01
RMM:   3    -0.413193353216E+03    0.32460E-02   -0.11587E-02  4236   0.595E-02    0.115E-01
RMM:   4    -0.413193541092E+03   -0.18788E-03   -0.10602E-03  4894   0.229E-02    0.579E-02
RMM:   5    -0.413193433526E+03    0.10757E-03   -0.14489E-04  4766   0.119E-02    0.404E-02
RMM:   6    -0.413193426187E+03    0.73392E-05   -0.25938E-04  5253   0.158E-02    0.258E-02
RMM:   7    -0.413193397557E+03    0.28630E-04   -0.16926E-04  4817   0.127E-02    0.154E-02
RMM:   8    -0.413193393854E+03    0.37037E-05   -0.17527E-05  3824   0.443E-03    0.486E-03
RMM:   9    -0.413193393414E+03    0.43935E-06   -0.24657E-06  2359   0.202E-03
   34 T=    67. E= -.41286668E+03 F= -.41319339E+03 E0= -.41317204E+03  EK= 0.32671E+00 SP= 0.00E+00 SK= 0.00E+00
       N       E                     dE             d eps       ncg     rms          rms(c)
RMM:   1    -0.413198662212E+03   -0.52684E-02   -0.10665E+01  4304   0.931E-01    0.938E-01
RMM:   2    -0.413199257128E+03   -0.59492E-03   -0.13665E-01  4279   0.131E-01    0.673E-01
RMM:   3    -0.413196129621E+03    0.31275E-02   -0.11948E-02  4344   0.585E-02    0.115E-01
RMM:   4    -0.413196219964E+03   -0.90343E-04   -0.99620E-04  4840   0.219E-02    0.391E-02
RMM:   5    -0.413196193538E+03    0.26426E-04   -0.20886E-04  4967   0.155E-02    0.307E-02
RMM:   6    -0.413196177814E+03    0.15724E-04   -0.18758E-04  4714   0.122E-02    0.192E-02
RMM:   7    -0.413196178326E+03   -0.51156E-06   -0.29645E-05  4736   0.556E-03    0.195E-02
RMM:   8    -0.413196162882E+03    0.15444E-04   -0.12327E-05  3647   0.400E-03    0.502E-03
RMM:   9    -0.413196161272E+03    0.16100E-05   -0.28745E-06  2363   0.195E-03    0.168E-03
RMM:  10    -0.413196151425E+03    0.98471E-05   -0.95431E-07  2251   0.144E-03    0.621E-04
RMM:  11    -0.413196146869E+03    0.45559E-05   -0.30740E-07  1751   0.911E-04    0.373E-04
RMM:  12    -0.413196143394E+03    0.34756E-05   -0.14943E-07  1277   0.721E-04    0.266E-04
RMM:  13    -0.413196137047E+03    0.63467E-05   -0.12546E-07  1187   0.685E-04    0.174E-04
RMM:  14    -0.413196131959E+03    0.50886E-05   -0.84076E-08  1081   0.630E-04    0.144E-04
RMM:  15    -0.413196129875E+03    0.20840E-05   -0.36313E-08   671   0.542E-04    0.720E-05
RMM:  16    -0.413196124380E+03    0.54945E-05   -0.62070E-08   972   0.603E-04    0.615E-05
RMM:  17    -0.413196123862E+03    0.51825E-06   -0.15784E-08   529   0.511E-04
   35 T=    67. E= -.41286674E+03 F= -.41319612E+03 E0= -.41317482E+03  EK= 0.32938E+00 SP= 0.00E+00 SK= 0.00E+00
       N       E                     dE             d eps       ncg     rms          rms(c)
RMM:   1    -0.413195073609E+03    0.10508E-02   -0.10610E+01  4301   0.904E-01    0.937E-01
RMM:   2    -0.413201157091E+03   -0.60835E-02   -0.13612E-01  4250   0.131E-01    0.668E-01
RMM:   3    -0.413198345528E+03    0.28116E-02   -0.11994E-02  4519   0.604E-02    0.129E-01
RMM:   4    -0.413210022334E+03   -0.11677E-01   -0.11964E-02  5169   0.921E-02    0.456E-01
RMM:   5    -0.413198301715E+03    0.11721E-01   -0.60250E-03  4822   0.756E-02    0.418E-02
RMM:   6    -0.413198301538E+03    0.17780E-06   -0.10666E-03  5797   0.321E-02    0.286E-02
RMM:   7    -0.413198298623E+03    0.29150E-05   -0.28681E-04  5399   0.166E-02    0.172E-02
RMM:   8    -0.413198282291E+03    0.16332E-04   -0.32504E-05  4786   0.683E-03    0.746E-03
RMM:   9    -0.413198279343E+03    0.29481E-05   -0.57087E-06  3049   0.296E-03    0.492E-03
RMM:  10    -0.413198273649E+03    0.56940E-05   -0.13063E-06  2503   0.197E-03    0.264E-03
RMM:  11    -0.413198267652E+03    0.59968E-05   -0.90280E-07  2472   0.158E-03    0.134E-03
RMM:  12    -0.413198261513E+03    0.61384E-05   -0.57020E-07  2345   0.125E-03    0.670E-04
RMM:  13    -0.413198258788E+03    0.27259E-05   -0.25667E-07  1918   0.886E-04    0.333E-04
RMM:  14    -0.413198256185E+03    0.26020E-05   -0.13156E-07  1336   0.699E-04    0.200E-04
RMM:  15    -0.413198251776E+03    0.44094E-05   -0.88254E-08  1163   0.659E-04    0.868E-05
RMM:  16    -0.413198248757E+03    0.30193E-05   -0.58972E-08  1012   0.625E-04    0.672E-05
RMM:  17    -0.413198245995E+03    0.27621E-05   -0.47028E-08  1017   0.607E-04    0.543E-05
RMM:  18    -0.413198242265E+03    0.37297E-05   -0.49882E-08  1159   0.612E-04    0.370E-05
RMM:  19    -0.413198241200E+03    0.10650E-05   -0.21978E-08   804   0.541E-04    0.243E-05
RMM:  20    -0.413198240883E+03    0.31661E-06   -0.12265E-08   686   0.518E-04
   36 T=    68. E= -.41286643E+03 F= -.41319824E+03 E0= -.41317698E+03  EK= 0.33181E+00 SP= 0.00E+00 SK= 0.00E+00
       N       E                     dE             d eps       ncg     rms          rms(c)
RMM:   1    -0.413218544741E+03   -0.20304E-01   -0.10885E+01  4304   0.106E+00    0.919E-01
RMM:   2    -0.413205062113E+03    0.13483E-01   -0.17045E-01  4249   0.145E-01    0.681E-01
RMM:   3    -0.413201470184E+03    0.35919E-02   -0.10506E-02  4636   0.561E-02    0.170E-01
RMM:   4    -0.413225530752E+03   -0.24061E-01   -0.24581E-02  5160   0.132E-01    0.648E-01
RMM:   5    -0.413201267257E+03    0.24263E-01   -0.12247E-02  4806   0.108E-01    0.460E-02
RMM:   6    -0.413201290754E+03   -0.23496E-04   -0.20326E-03  5855   0.426E-02    0.290E-02
RMM:   7    -0.413201301564E+03   -0.10810E-04   -0.28777E-04  5629   0.161E-02    0.156E-02
RMM:   8    -0.413201292363E+03    0.92015E-05   -0.56455E-05  4982   0.792E-03    0.912E-03
RMM:   9    -0.413201291050E+03    0.13127E-05   -0.15362E-05  4295   0.453E-03    0.662E-03
RMM:  10    -0.413201287209E+03    0.38406E-05   -0.19552E-06  2596   0.231E-03    0.384E-03
RMM:  11    -0.413201284897E+03    0.23127E-05   -0.10578E-06  2494   0.167E-03    0.235E-03
RMM:  12    -0.413201279357E+03    0.55399E-05   -0.15264E-06  2524   0.195E-03    0.113E-03
RMM:  13    -0.413201276934E+03    0.24230E-05   -0.52904E-07  2328   0.127E-03    0.657E-04
RMM:  14    -0.413201276617E+03    0.31656E-06   -0.22296E-07  1823   0.836E-04
   37 T=    68. E= -.41286678E+03 F= -.41320128E+03 E0= -.41318006E+03  EK= 0.33450E+00 SP= 0.00E+00 SK= 0.00E+00
       N       E                     dE             d eps       ncg     rms          rms(c)
RMM:   1    -0.413223425790E+03   -0.22149E-01   -0.11016E+01  4308   0.109E+00    0.940E-01
RMM:   2    -0.413207643552E+03    0.15782E-01   -0.16464E-01  4253   0.133E-01    0.685E-01
RMM:   3    -0.413203963618E+03    0.36799E-02   -0.11184E-02  4750   0.534E-02    0.169E-01
RMM:   4    -0.413235104667E+03   -0.31141E-01   -0.31858E-02  5152   0.149E-01    0.736E-01
RMM:   5    -0.413203596927E+03    0.31508E-01   -0.15908E-02  4803   0.123E-01    0.493E-02
RMM:   6    -0.413203653513E+03   -0.56586E-04   -0.26508E-03  5846   0.483E-02    0.313E-02
RMM:   7    -0.413203666007E+03   -0.12493E-04   -0.35385E-04  5715   0.175E-02    0.170E-02
RMM:   8    -0.413203655930E+03    0.10077E-04   -0.65608E-05  5030   0.843E-03    0.101E-02
RMM:   9    -0.413203653179E+03    0.27507E-05   -0.19135E-05  4498   0.494E-03    0.704E-03
RMM:  10    -0.413203647593E+03    0.55858E-05   -0.25341E-06  2656   0.250E-03    0.414E-03
RMM:  11    -0.413203644155E+03    0.34381E-05   -0.12075E-06  2495   0.179E-03    0.254E-03
RMM:  12    -0.413203635825E+03    0.83305E-05   -0.16224E-06  2518   0.208E-03    0.119E-03
RMM:  13    -0.413203631944E+03    0.38811E-05   -0.61161E-07  2370   0.138E-03    0.786E-04
RMM:  14    -0.413203631704E+03    0.23958E-06   -0.24668E-07  1959   0.889E-04
   38 T=    69. E= -.41286662E+03 F= -.41320363E+03 E0= -.41318245E+03  EK= 0.33701E+00 SP= 0.00E+00 SK= 0.00E+00
       N       E                     dE             d eps       ncg     rms          rms(c)
RMM:   1    -0.413213780069E+03   -0.10148E-01   -0.10919E+01  4305   0.105E+00    0.954E-01
RMM:   2    -0.413209844885E+03    0.39352E-02   -0.14098E-01  4261   0.123E-01    0.677E-01
RMM:   3    -0.413206917387E+03    0.29275E-02   -0.12722E-02  4938   0.567E-02    0.170E-01
RMM:   4    -0.413250032758E+03   -0.43115E-01   -0.46044E-02  5137   0.179E-01    0.862E-01
RMM:   5    -0.413206102693E+03    0.43930E-01   -0.21684E-02  4790   0.145E-01    0.554E-02
RMM:   6    -0.413206228720E+03   -0.12603E-03   -0.36911E-03  5832   0.565E-02    0.339E-02
RMM:   7    -0.413206238682E+03   -0.99618E-05   -0.42595E-04  5694   0.189E-02    0.176E-02
RMM:   8    -0.413206230113E+03    0.85689E-05   -0.52130E-05  4808   0.721E-03    0.910E-03
RMM:   9    -0.413206222278E+03    0.78343E-05   -0.10577E-05  3367   0.351E-03    0.556E-03
RMM:  10    -0.413206219256E+03    0.30223E-05   -0.26786E-06  2635   0.228E-03    0.411E-03
RMM:  11    -0.413206212032E+03    0.72236E-05   -0.14457E-06  2502   0.206E-03    0.225E-03
RMM:  12    -0.413206200873E+03    0.11160E-04   -0.14395E-06  2498   0.199E-03    0.105E-03
RMM:  13    -0.413206198645E+03    0.22281E-05   -0.48428E-07  2368   0.127E-03    0.677E-04
RMM:  14    -0.413206198043E+03    0.60200E-06   -0.22235E-07  1901   0.844E-04
   39 T=    69. E= -.41286658E+03 F= -.41320620E+03 E0= -.41318506E+03  EK= 0.33961E+00 SP= 0.00E+00 SK= 0.00E+00
       N       E                     dE             d eps       ncg     rms          rms(c)
RMM:   1    -0.413230033197E+03   -0.23835E-01   -0.11070E+01  4311   0.117E+00    0.931E-01
RMM:   2    -0.413213347985E+03    0.16685E-01   -0.16819E-01  4269   0.132E-01    0.684E-01
RMM:   3    -0.413210287834E+03    0.30602E-02   -0.11479E-02  4997   0.580E-02    0.211E-01
RMM:   4    -0.413264300041E+03   -0.54012E-01   -0.59238E-02  5137   0.203E-01    0.963E-01
RMM:   5    -0.413209004370E+03    0.55296E-01   -0.27278E-02  4785   0.162E-01    0.595E-02
RMM:   6    -0.413209168591E+03   -0.16422E-03   -0.44141E-03  5817   0.626E-02    0.349E-02
RMM:   7    -0.413209186679E+03   -0.18088E-04   -0.52399E-04  5810   0.205E-02    0.202E-02
RMM:   8    -0.413209188538E+03   -0.18592E-05   -0.11058E-04  5242   0.102E-02    0.132E-02
RMM:   9    -0.413209176223E+03    0.12315E-04   -0.29630E-05  4743   0.603E-03    0.703E-03
RMM:  10    -0.413209171785E+03    0.44384E-05   -0.49060E-06  2861   0.303E-03    0.435E-03
RMM:  11    -0.413209168084E+03    0.37009E-05   -0.16567E-06  2502   0.212E-03    0.259E-03
RMM:  12    -0.413209160662E+03    0.74218E-05   -0.14705E-06  2513   0.201E-03    0.913E-04
RMM:  13    -0.413209156776E+03    0.38861E-05   -0.61883E-07  2404   0.138E-03    0.641E-04
RMM:  14    -0.413209155979E+03    0.79735E-06   -0.27428E-07  2023   0.927E-04
   40 T=    70. E= -.41286680E+03 F= -.41320916E+03 E0= -.41318806E+03  EK= 0.34236E+00 SP= 0.00E+00 SK= 0.00E+00
       N       E                     dE             d eps       ncg     rms          rms(c)
RMM:   1    -0.413226691915E+03   -0.17535E-01   -0.11147E+01  4311   0.118E+00    0.944E-01
RMM:   2    -0.413215631946E+03    0.11060E-01   -0.17136E-01  4269   0.140E-01    0.695E-01
RMM:   3    -0.413213142014E+03    0.24899E-02   -0.12359E-02  5027   0.636E-02    0.239E-01
RMM:   4    -0.413268880087E+03   -0.55738E-01   -0.64578E-02  5126   0.212E-01    0.982E-01
RMM:   5    -0.413211166260E+03    0.57714E-01   -0.27800E-02  4773   0.166E-01    0.622E-02
RMM:   6    -0.413211331871E+03   -0.16561E-03   -0.46279E-03  5803   0.639E-02    0.356E-02
RMM:   7    -0.413211350362E+03   -0.18491E-04   -0.57162E-04  5825   0.212E-02    0.227E-02
RMM:   8    -0.413211349999E+03    0.36335E-06   -0.13134E-04  5271   0.113E-02    0.141E-02
RMM:   9    -0.413211335891E+03    0.14108E-04   -0.27289E-05  4667   0.614E-03    0.648E-03
RMM:  10    -0.413211331682E+03    0.42085E-05   -0.58900E-06  3031   0.306E-03    0.405E-03
RMM:  11    -0.413211328191E+03    0.34915E-05   -0.15393E-06  2506   0.205E-03    0.238E-03
RMM:  12    -0.413211321625E+03    0.65654E-05   -0.12219E-06  2489   0.186E-03    0.823E-04
RMM:  13    -0.413211317832E+03    0.37939E-05   -0.57512E-07  2393   0.131E-03    0.526E-04
RMM:  14    -0.413211316822E+03    0.10094E-05   -0.26823E-07  2002   0.909E-04    0.360E-04
RMM:  15    -0.413211314690E+03    0.21320E-05   -0.14183E-07  1460   0.719E-04    0.182E-04
RMM:  16    -0.413211310450E+03    0.42400E-05   -0.10952E-07  1286   0.687E-04    0.157E-04
RMM:  17    -0.413211308875E+03    0.15753E-05   -0.58741E-08  1004   0.614E-04    0.887E-05
RMM:  18    -0.413211305328E+03    0.35469E-05   -0.63492E-08  1191   0.638E-04    0.935E-05
RMM:  19    -0.413211303514E+03    0.18142E-05   -0.38647E-08  1018   0.588E-04    0.449E-05
RMM:  20    -0.413211302557E+03    0.95694E-06   -0.23509E-08   847   0.554E-04
   41 T=    70. E= -.41286654E+03 F= -.41321130E+03 E0= -.41319024E+03  EK= 0.34476E+00 SP= 0.00E+00 SK= 0.00E+00
       N       E                     dE             d eps       ncg     rms          rms(c)
RMM:   1    -0.413217035054E+03   -0.57315E-02   -0.11055E+01  4311   0.118E+00    0.968E-01
RMM:   2    -0.413217675646E+03   -0.64059E-03   -0.14936E-01  4302   0.134E-01    0.687E-01
RMM:   3    -0.413217443571E+03    0.23208E-03   -0.15023E-02  5069   0.753E-02    0.285E-01
RMM:   4    -0.413255873424E+03   -0.38430E-01   -0.53714E-02  5093   0.195E-01    0.843E-01
RMM:   5    -0.413213947140E+03    0.41926E-01   -0.18718E-02  4745   0.140E-01    0.600E-02
RMM:   6    -0.413214017394E+03   -0.70253E-04   -0.33068E-03  5762   0.545E-02    0.349E-02
RMM:   7    -0.413214023883E+03   -0.64898E-05   -0.46365E-04  5749   0.197E-02    0.223E-02
RMM:   8    -0.413214020400E+03    0.34830E-05   -0.12434E-04  5210   0.114E-02    0.127E-02
RMM:   9    -0.413214006149E+03    0.14251E-04   -0.20536E-05  4459   0.566E-03    0.535E-03
RMM:  10    -0.413214000835E+03    0.53138E-05   -0.44435E-06  2867   0.271E-03    0.337E-03
RMM:  11    -0.413213995767E+03    0.50688E-05   -0.12424E-06  2496   0.188E-03    0.185E-03
RMM:  12    -0.413213987608E+03    0.81589E-05   -0.83569E-07  2463   0.158E-03    0.708E-04
RMM:  13    -0.413213982948E+03    0.46600E-05   -0.40188E-07  2237   0.111E-03    0.352E-04
RMM:  14    -0.413213980998E+03    0.19498E-05   -0.20899E-07  1765   0.817E-04    0.240E-04
RMM:  15    -0.413213976367E+03    0.46311E-05   -0.12733E-07  1367   0.710E-04    0.127E-04
RMM:  16    -0.413213973001E+03    0.33653E-05   -0.82115E-08  1163   0.652E-04    0.108E-04
RMM:  17    -0.413213969801E+03    0.32006E-05   -0.62618E-08  1117   0.629E-04    0.747E-05
RMM:  18    -0.413213966822E+03    0.29790E-05   -0.50494E-08  1105   0.614E-04    0.458E-05
RMM:  19    -0.413213964193E+03    0.26286E-05   -0.42737E-08  1120   0.601E-04    0.360E-05
RMM:  20    -0.413213963855E+03    0.33835E-06   -0.18930E-08   771   0.539E-04
   42 T=    71. E= -.41286678E+03 F= -.41321396E+03 E0= -.41319293E+03  EK= 0.34718E+00 SP= 0.00E+00 SK= 0.00E+00
       N       E                     dE             d eps       ncg     rms          rms(c)
RMM:   1    -0.413237098435E+03   -0.23134E-01   -0.11196E+01  4311   0.133E+00    0.945E-01
RMM:   2    -0.413219959109E+03    0.17139E-01   -0.16864E-01  4305   0.149E-01    0.689E-01
RMM:   3    -0.413220391823E+03   -0.43271E-03   -0.14578E-02  5079   0.796E-02    0.319E-01
RMM:   4    -0.413258436186E+03   -0.38044E-01   -0.56059E-02  5090   0.200E-01    0.847E-01
RMM:   5    -0.413216132152E+03    0.42304E-01   -0.18715E-02  4734   0.141E-01    0.614E-02
RMM:   6    -0.413216201791E+03   -0.69639E-04   -0.33043E-03  5746   0.546E-02    0.346E-02
RMM:   7    -0.413216208343E+03   -0.65517E-05   -0.48037E-04  5786   0.197E-02    0.230E-02
RMM:   8    -0.413216204510E+03    0.38328E-05   -0.12500E-04  5199   0.114E-02    0.123E-02
RMM:   9    -0.413216192137E+03    0.12372E-04   -0.21661E-05  4509   0.577E-03    0.486E-03
RMM:  10    -0.413216188612E+03    0.35257E-05   -0.45033E-06  2859   0.267E-03    0.309E-03
RMM:  11    -0.413216184564E+03    0.40480E-05   -0.13041E-06  2501   0.188E-03    0.169E-03
RMM:  12    -0.413216178930E+03    0.56339E-05   -0.75505E-07  2446   0.148E-03    0.634E-04
RMM:  13    -0.413216175641E+03    0.32891E-05   -0.37446E-07  2132   0.105E-03    0.296E-04
RMM:  14    -0.413216173542E+03    0.20987E-05   -0.20081E-07  1632   0.799E-04    0.195E-04
RMM:  15    -0.413216169515E+03    0.40267E-05   -0.13453E-07  1318   0.712E-04    0.109E-04
RMM:  16    -0.413216167335E+03    0.21806E-05   -0.84170E-08  1129   0.655E-04    0.779E-05
RMM:  17    -0.413216164679E+03    0.26553E-05   -0.69271E-08  1160   0.642E-04    0.502E-05
RMM:  18    -0.413216162182E+03    0.24973E-05   -0.53236E-08  1107   0.617E-04    0.348E-05
RMM:  19    -0.413216160497E+03    0.16851E-05   -0.36203E-08   972   0.580E-04    0.239E-05
RMM:  20    -0.413216159988E+03    0.50840E-06   -0.20046E-08   775   0.547E-04
   43 T=    71. E= -.41286690E+03 F= -.41321616E+03 E0= -.41319516E+03  EK= 0.34926E+00 SP= 0.00E+00 SK= 0.00E+00
       N       E                     dE             d eps       ncg     rms          rms(c)
RMM:   1    -0.413233728680E+03   -0.17568E-01   -0.11264E+01  4311   0.136E+00    0.949E-01
RMM:   2    -0.413221671267E+03    0.12057E-01   -0.16683E-01  4299   0.162E-01    0.701E-01
RMM:   3    -0.413222843760E+03   -0.11725E-02   -0.16275E-02  5069   0.885E-02    0.342E-01
RMM:   4    -0.413258108327E+03   -0.35265E-01   -0.56306E-02  5083   0.201E-01    0.829E-01
RMM:   5    -0.413217563677E+03    0.40545E-01   -0.17388E-02  4720   0.138E-01    0.609E-02
RMM:   6    -0.413217614261E+03   -0.50583E-04   -0.31030E-03  5750   0.531E-02    0.340E-02
RMM:   7    -0.413217619591E+03   -0.53301E-05   -0.43892E-04  5778   0.193E-02    0.226E-02
RMM:   8    -0.413217616246E+03    0.33445E-05   -0.11602E-04  5178   0.112E-02    0.117E-02
RMM:   9    -0.413217605420E+03    0.10826E-04   -0.20287E-05  4444   0.563E-03    0.456E-03
RMM:  10    -0.413217602928E+03    0.24915E-05   -0.41234E-06  2809   0.259E-03    0.288E-03
RMM:  11    -0.413217599715E+03    0.32132E-05   -0.13194E-06  2501   0.186E-03    0.155E-03
RMM:  12    -0.413217595547E+03    0.41681E-05   -0.73598E-07  2436   0.144E-03    0.600E-04
RMM:  13    -0.413217593054E+03    0.24930E-05   -0.36640E-07  2041   0.101E-03    0.277E-04
RMM:  14    -0.413217591154E+03    0.18995E-05   -0.20564E-07  1565   0.793E-04    0.174E-04
RMM:  15    -0.413217587680E+03    0.34741E-05   -0.14892E-07  1315   0.722E-04    0.103E-04
RMM:  16    -0.413217586037E+03    0.16430E-05   -0.90316E-08  1122   0.661E-04    0.724E-05
RMM:  17    -0.413217583644E+03    0.23937E-05   -0.78403E-08  1213   0.654E-04    0.463E-05
RMM:  18    -0.413217581736E+03    0.19072E-05   -0.53833E-08  1072   0.613E-04    0.361E-05
RMM:  19    -0.413217580390E+03    0.13458E-05   -0.35768E-08   918   0.576E-04    0.205E-05
RMM:  20    -0.413217579834E+03    0.55686E-06   -0.21299E-08   778   0.551E-04
   44 T=    71. E= -.41286669E+03 F= -.41321758E+03 E0= -.41319660E+03  EK= 0.35089E+00 SP= 0.00E+00 SK= 0.00E+00
       N       E                     dE             d eps       ncg     rms          rms(c)
RMM:   1    -0.413251833977E+03   -0.34254E-01   -0.11432E+01  4310   0.151E+00    0.975E-01
RMM:   2    -0.413222776714E+03    0.29057E-01   -0.17079E-01  4345   0.169E-01    0.697E-01
RMM:   3    -0.413228247874E+03   -0.54712E-02   -0.19494E-02  5115   0.105E-01    0.434E-01
RMM:   4    -0.413245054501E+03   -0.16807E-01   -0.45944E-02  5047   0.185E-01    0.670E-01
RMM:   5    -0.413219339343E+03    0.25715E-01   -0.99304E-03  4661   0.112E-01    0.583E-02
RMM:   6    -0.413219317350E+03    0.21993E-04   -0.20137E-03  5600   0.431E-02    0.333E-02
RMM:   7    -0.413219314177E+03    0.31730E-05   -0.33708E-04  5639   0.176E-02    0.221E-02
RMM:   8    -0.413219305977E+03    0.81999E-05   -0.11505E-04  5086   0.113E-02    0.105E-02
RMM:   9    -0.413219292779E+03    0.13198E-04   -0.16295E-05  4305   0.548E-03    0.424E-03
RMM:  10    -0.413219288880E+03    0.38994E-05   -0.30896E-06  2731   0.233E-03    0.250E-03
RMM:  11    -0.413219282784E+03    0.60956E-05   -0.11676E-06  2482   0.179E-03    0.136E-03
RMM:  12    -0.413219276637E+03    0.61474E-05   -0.59758E-07  2417   0.134E-03    0.627E-04
RMM:  13    -0.413219272991E+03    0.36455E-05   -0.28342E-07  1886   0.921E-04    0.294E-04
RMM:  14    -0.413219269530E+03    0.34616E-05   -0.16072E-07  1425   0.733E-04    0.161E-04
RMM:  15    -0.413219264475E+03    0.50546E-05   -0.12052E-07  1271   0.695E-04    0.117E-04
RMM:  16    -0.413219261843E+03    0.26325E-05   -0.77248E-08  1121   0.641E-04    0.905E-05
RMM:  17    -0.413219257172E+03    0.46704E-05   -0.79807E-08  1348   0.655E-04    0.644E-05
RMM:  18    -0.413219255043E+03    0.21292E-05   -0.43819E-08  1022   0.575E-04    0.404E-05
RMM:  19    -0.413219253689E+03    0.13539E-05   -0.28587E-08   866   0.543E-04    0.218E-05
RMM:  20    -0.413219253241E+03    0.44811E-06   -0.18030E-08   746   0.523E-04
   45 T=    72. E= -.41286703E+03 F= -.41321925E+03 E0= -.41319830E+03  EK= 0.35222E+00 SP= 0.00E+00 SK= 0.00E+00
       N       E                     dE             d eps       ncg     rms          rms(c)
RMM:   1    -0.413258123863E+03   -0.38870E-01   -0.11397E+01  4310   0.162E+00    0.957E-01
RMM:   2    -0.413223021187E+03    0.35103E-01   -0.18087E-01  4367   0.184E-01    0.693E-01
RMM:   3    -0.413231154066E+03   -0.81329E-02   -0.20858E-02  5120   0.114E-01    0.493E-01
RMM:   4    -0.413240707455E+03   -0.95534E-02   -0.43845E-02  5034   0.182E-01    0.613E-01
RMM:   5    -0.413219597618E+03    0.21110E-01   -0.80217E-03  4617   0.105E-01    0.576E-02
RMM:   6    -0.413219549343E+03    0.48275E-04   -0.15920E-03  5465   0.391E-02    0.322E-02
RMM:   7    -0.413219545918E+03    0.34257E-05   -0.27977E-04  5632   0.164E-02    0.218E-02
RMM:   8    -0.413219536228E+03    0.96897E-05   -0.12185E-04  5073   0.115E-02    0.102E-02
RMM:   9    -0.413219522877E+03    0.13351E-04   -0.16529E-05  4330   0.559E-03    0.413E-03
RMM:  10    -0.413219519726E+03    0.31506E-05   -0.29029E-06  2710   0.225E-03    0.239E-03
RMM:  11    -0.413219513823E+03    0.59029E-05   -0.12832E-06  2494   0.182E-03    0.132E-03
RMM:  12    -0.413219509086E+03    0.47372E-05   -0.56782E-07  2430   0.132E-03    0.682E-04
RMM:  13    -0.413219505563E+03    0.35234E-05   -0.26814E-07  1806   0.898E-04    0.322E-04
RMM:  14    -0.413219502033E+03    0.35300E-05   -0.15022E-07  1350   0.718E-04    0.169E-04
RMM:  15    -0.413219498090E+03    0.39433E-05   -0.10884E-07  1224   0.674E-04    0.115E-04
RMM:  16    -0.413219495446E+03    0.26433E-05   -0.75193E-08  1136   0.634E-04    0.100E-04
RMM:  17    -0.413219491750E+03    0.36960E-05   -0.63678E-08  1168   0.629E-04    0.576E-05
RMM:  18    -0.413219489133E+03    0.26177E-05   -0.50282E-08  1116   0.593E-04    0.500E-05
RMM:  19    -0.413219488273E+03    0.85932E-06   -0.23499E-08   794   0.531E-04
   46 T=    72. E= -.41286689E+03 F= -.41321949E+03 E0= -.41319855E+03  EK= 0.35260E+00 SP= 0.00E+00 SK= 0.00E+00
       N       E                     dE             d eps       ncg     rms          rms(c)
RMM:   1    -0.413244371104E+03   -0.24882E-01   -0.11292E+01  4310   0.163E+00    0.944E-01
RMM:   2    -0.413223053563E+03    0.21318E-01   -0.18895E-01  4376   0.195E-01    0.706E-01
RMM:   3    -0.413232223733E+03   -0.91702E-02   -0.21815E-02  5110   0.122E-01    0.522E-01
RMM:   4    -0.413240992401E+03   -0.87687E-02   -0.46497E-02  5025   0.188E-01    0.622E-01
RMM:   5    -0.413219172596E+03    0.21820E-01   -0.82588E-03  4604   0.108E-01    0.593E-02
RMM:   6    -0.413219113450E+03    0.59146E-04   -0.16000E-03  5439   0.395E-02    0.321E-02
RMM:   7    -0.413219107442E+03    0.60087E-05   -0.27698E-04  5669   0.162E-02    0.224E-02
RMM:   8    -0.413219097424E+03    0.10018E-04   -0.12473E-04  5109   0.115E-02    0.103E-02
RMM:   9    -0.413219085206E+03    0.12217E-04   -0.18198E-05  4391   0.581E-03    0.416E-03
RMM:  10    -0.413219083110E+03    0.20957E-05   -0.30289E-06  2726   0.229E-03    0.240E-03
RMM:  11    -0.413219079018E+03    0.40928E-05   -0.14661E-06  2515   0.190E-03    0.137E-03
RMM:  12    -0.413219075968E+03    0.30499E-05   -0.60020E-07  2436   0.136E-03    0.722E-04
RMM:  13    -0.413219073251E+03    0.27165E-05   -0.30389E-07  1857   0.936E-04    0.340E-04
RMM:  14    -0.413219070647E+03    0.26046E-05   -0.17277E-07  1399   0.743E-04    0.175E-04
RMM:  15    -0.413219067946E+03    0.27004E-05   -0.12444E-07  1237   0.684E-04    0.108E-04
RMM:  16    -0.413219065909E+03    0.20369E-05   -0.86057E-08  1169   0.639E-04    0.940E-05
RMM:  17    -0.413219063357E+03    0.25521E-05   -0.72384E-08  1189   0.625E-04    0.514E-05
RMM:  18    -0.413219061303E+03    0.20538E-05   -0.49163E-08  1009   0.582E-04    0.421E-05
RMM:  19    -0.413219060765E+03    0.53824E-06   -0.24866E-08   768   0.535E-04
   47 T=    72. E= -.41286691E+03 F= -.41321906E+03 E0= -.41319814E+03  EK= 0.35215E+00 SP= 0.00E+00 SK= 0.00E+00
       N       E                     dE             d eps       ncg     rms          rms(c)
RMM:   1    -0.413248663278E+03   -0.29602E-01   -0.11283E+01  4306   0.176E+00    0.968E-01
RMM:   2    -0.413221551588E+03    0.27112E-01   -0.18133E-01  4423   0.204E-01    0.701E-01
RMM:   3    -0.413238217382E+03   -0.16666E-01   -0.28779E-02  5141   0.144E-01    0.631E-01
RMM:   4    -0.413230905521E+03    0.73119E-02   -0.41905E-02  4981   0.182E-01    0.490E-01
RMM:   5    -0.413217950288E+03    0.12955E-01   -0.48936E-03  4526   0.918E-02    0.579E-02
RMM:   6    -0.413217842742E+03    0.10755E-03   -0.74688E-04  4926   0.306E-02    0.303E-02
RMM:   7    -0.413217828447E+03    0.14295E-04   -0.16955E-04  5825   0.128E-02    0.129E-02
RMM:   8    -0.413217825829E+03    0.26187E-05   -0.64738E-05  5236   0.852E-03    0.919E-03
RMM:   9    -0.413217815824E+03    0.10005E-04   -0.16785E-05  4382   0.488E-03    0.460E-03
RMM:  10    -0.413217813587E+03    0.22364E-05   -0.20931E-06  2553   0.234E-03    0.236E-03
RMM:  11    -0.413217807772E+03    0.58149E-05   -0.17962E-06  2519   0.208E-03    0.152E-03
RMM:  12    -0.413217803734E+03    0.40387E-05   -0.61296E-07  2383   0.143E-03    0.904E-04
RMM:  13    -0.413217799833E+03    0.39002E-05   -0.27116E-07  1887   0.950E-04    0.485E-04
RMM:  14    -0.413217794996E+03    0.48372E-05   -0.18664E-07  1715   0.783E-04    0.354E-04
RMM:  15    -0.413217790796E+03    0.42000E-05   -0.96605E-08  1036   0.601E-04    0.163E-04
RMM:  16    -0.413217788350E+03    0.24464E-05   -0.60654E-08   932   0.569E-04    0.114E-04
RMM:  17    -0.413217785763E+03    0.25870E-05   -0.52555E-08   968   0.573E-04    0.837E-05
RMM:  18    -0.413217783098E+03    0.26651E-05   -0.44527E-08   963   0.573E-04    0.536E-05
RMM:  19    -0.413217781889E+03    0.12093E-05   -0.22144E-08   736   0.526E-04    0.422E-05
RMM:  20    -0.413217781291E+03    0.59743E-06   -0.16124E-08   668   0.508E-04
   48 T=    71. E= -.41286715E+03 F= -.41321778E+03 E0= -.41319688E+03  EK= 0.35063E+00 SP= 0.00E+00 SK= 0.00E+00
       N       E                     dE             d eps       ncg     rms          rms(c)
RMM:   1    -0.413251132907E+03   -0.33351E-01   -0.11156E+01  4305   0.189E+00    0.959E-01
RMM:   2    -0.413218120685E+03    0.33012E-01   -0.18220E-01  4451   0.217E-01    0.691E-01
RMM:   3    -0.413241644846E+03   -0.23524E-01   -0.34336E-02  5154   0.161E-01    0.721E-01
RMM:   4    -0.413223385633E+03    0.18259E-01   -0.40763E-02  4963   0.183E-01    0.416E-01
RMM:   5    -0.413214673098E+03    0.87125E-02   -0.44047E-03  4585   0.893E-02    0.638E-02
RMM:   6    -0.413214497888E+03    0.17521E-03   -0.46908E-04  4683   0.291E-02    0.328E-02
RMM:   7    -0.413214504606E+03   -0.67177E-05   -0.29641E-04  5768   0.180E-02    0.237E-02
RMM:   8    -0.413214470889E+03    0.33717E-04   -0.10330E-04  5043   0.116E-02    0.941E-03
RMM:   9    -0.413214463728E+03    0.71610E-05   -0.19364E-05  4815   0.570E-03    0.483E-03
RMM:  10    -0.413214459457E+03    0.42705E-05   -0.24297E-06  2636   0.245E-03    0.259E-03
RMM:  11    -0.413214453453E+03    0.60047E-05   -0.14397E-06  2503   0.196E-03    0.182E-03
RMM:  12    -0.413214449729E+03    0.37241E-05   -0.44146E-07  2400   0.125E-03    0.949E-04
RMM:  13    -0.413214445039E+03    0.46901E-05   -0.27335E-07  2017   0.895E-04    0.461E-04
RMM:  14    -0.413214439806E+03    0.52327E-05   -0.20939E-07  1721   0.783E-04    0.357E-04
RMM:  15    -0.413214435131E+03    0.46748E-05   -0.12008E-07  1158   0.643E-04    0.144E-04
RMM:  16    -0.413214432615E+03    0.25161E-05   -0.71273E-08  1069   0.598E-04    0.903E-05
RMM:  17    -0.413214429035E+03    0.35799E-05   -0.70454E-08  1170   0.610E-04    0.723E-05
RMM:  18    -0.413214427739E+03    0.12960E-05   -0.36780E-08   916   0.547E-04    0.576E-05
RMM:  19    -0.413214426234E+03    0.15048E-05   -0.31947E-08   952   0.540E-04    0.343E-05
RMM:  20    -0.413214425270E+03    0.96428E-06   -0.23356E-08   824   0.511E-04
   49 T=    71. E= -.41286688E+03 F= -.41321443E+03 E0= -.41319353E+03  EK= 0.34755E+00 SP= 0.00E+00 SK= 0.00E+00
       N       E                     dE             d eps       ncg     rms          rms(c)
RMM:   1    -0.413238067981E+03   -0.23642E-01   -0.10935E+01  4305   0.195E+00    0.932E-01
RMM:   2    -0.413214390236E+03    0.23678E-01   -0.18303E-01  4484   0.225E-01    0.696E-01
RMM:   3    -0.413238876551E+03   -0.24486E-01   -0.35079E-02  5160   0.165E-01    0.740E-01
RMM:   4    -0.413219319083E+03    0.19557E-01   -0.42139E-02  4953   0.187E-01    0.416E-01
RMM:   5    -0.413210492007E+03    0.88271E-02   -0.48544E-03  4646   0.933E-02    0.683E-02
RMM:   6    -0.413210275886E+03    0.21612E-03   -0.49215E-04  4659   0.308E-02    0.336E-02
RMM:   7    -0.413210283606E+03   -0.77200E-05   -0.30590E-04  5765   0.184E-02    0.243E-02
RMM:   8    -0.413210250157E+03    0.33449E-04   -0.10212E-04  5064   0.114E-02    0.102E-02
RMM:   9    -0.413210244246E+03    0.59110E-05   -0.22535E-05  5081   0.604E-03    0.493E-03
RMM:  10    -0.413210240732E+03    0.35140E-05   -0.30210E-06  2692   0.259E-03    0.272E-03
[...]
RMM:   2    -0.413895400958E+03    0.68829E-01   -0.72182E-01  5409   0.103E+00    0.161E+00
RMM:   3    -0.413919899423E+03   -0.24498E-01   -0.20076E-01  5468   0.492E-01    0.161E+00
RMM:   4    -0.413847194097E+03    0.72705E-01   -0.12041E-01  5270   0.411E-01    0.774E-01
RMM:   5    -0.413842253123E+03    0.49410E-02   -0.44657E-02  4731   0.294E-01    0.286E-01
RMM:   6    -0.413839949266E+03    0.23039E-02   -0.22483E-02  5003   0.182E-01    0.161E-01
RMM:   7    -0.413838518605E+03    0.14307E-02   -0.38422E-03  4952   0.857E-02    0.730E-02
RMM:   8    -0.413838436196E+03    0.82409E-04   -0.66751E-04  5052   0.344E-02    0.439E-02
RMM:   9    -0.413838422429E+03    0.13767E-04   -0.29083E-04  4842   0.224E-02    0.190E-02
RMM:  10    -0.413838420651E+03    0.17781E-05   -0.81803E-05  5676   0.105E-02    0.114E-02
RMM:  11    -0.413838420482E+03    0.16816E-06   -0.30193E-05  5201   0.639E-03    0.654E-03
RMM:  12    -0.413838421257E+03   -0.77458E-06   -0.71372E-06  3423   0.372E-03
  138 T=   195. E= -.41288108E+03 F= -.41383842E+03 E0= -.41381688E+03  EK= 0.95734E+00 SP= 0.00E+00 SK= 0.00E+00
       N       E                     dE             d eps       ncg     rms          rms(c)
RMM:   1    -0.414278417929E+03   -0.44000E+00   -0.27978E+01  4283   0.921E+00    0.202E+00
RMM:   2    -0.414062056922E+03    0.21636E+00   -0.10480E+00  5416   0.124E+00    0.194E+00
RMM:   3    -0.414127688293E+03   -0.65631E-01   -0.27152E-01  5573   0.570E-01    0.199E+00
RMM:   4    -0.414028457146E+03    0.99231E-01   -0.14811E-01  5240   0.446E-01    0.107E+00
RMM:   5    -0.414018447355E+03    0.10010E-01   -0.77431E-02  4544   0.391E-01    0.344E-01
RMM:   6    -0.414014426975E+03    0.40204E-02   -0.29361E-02  4965   0.213E-01    0.189E-01
RMM:   7    -0.414012402408E+03    0.20246E-02   -0.49228E-03  4876   0.985E-02    0.908E-02
RMM:   8    -0.414012237341E+03    0.16507E-03   -0.96262E-04  4915   0.418E-02    0.568E-02
RMM:   9    -0.414012199981E+03    0.37361E-04   -0.53863E-04  4609   0.311E-02    0.201E-02
RMM:  10    -0.414012205579E+03   -0.55982E-05   -0.14776E-04  5819   0.137E-02    0.143E-02
RMM:  11    -0.414012204378E+03    0.12006E-05   -0.37859E-05  5115   0.741E-03    0.745E-03
RMM:  12    -0.414012206540E+03   -0.21624E-05   -0.11913E-05  4080   0.447E-03    0.474E-03
RMM:  13    -0.414012208774E+03   -0.22336E-05   -0.39742E-06  2929   0.295E-03    0.255E-03
RMM:  14    -0.414012209977E+03   -0.12028E-05   -0.12139E-06  2513   0.189E-03    0.114E-03
RMM:  15    -0.414012211038E+03   -0.10611E-05   -0.69779E-07  2379   0.135E-03    0.692E-04
RMM:  16    -0.414012212068E+03   -0.10305E-05   -0.47152E-07  2015   0.102E-03    0.312E-04
RMM:  17    -0.414012212642E+03   -0.57370E-06   -0.26383E-07  1507   0.809E-04
  139 T=   226. E= -.41290141E+03 F= -.41401221E+03 E0= -.41399119E+03  EK= 0.11108E+01 SP= 0.00E+00 SK= 0.00E+00
       N       E                     dE             d eps       ncg     rms          rms(c)
RMM:   1    -0.414055826355E+03   -0.43614E-01   -0.29256E+01  4281   0.927E+00    0.232E+00
RMM:   2    -0.413798118586E+03    0.25771E+00   -0.10952E+00  5385   0.124E+00    0.214E+00
RMM:   3    -0.413868188100E+03   -0.70070E-01   -0.24331E-01  5611   0.547E-01    0.190E+00
RMM:   4    -0.413869334630E+03   -0.11465E-02   -0.22890E-01  5226   0.482E-01    0.155E+00
RMM:   5    -0.413791817671E+03    0.77517E-01   -0.14538E-01  4633   0.509E-01    0.498E-01
RMM:   6    -0.413782904297E+03    0.89134E-02   -0.22678E-02  4744   0.213E-01    0.173E-01
RMM:   7    -0.413782401177E+03    0.50312E-03   -0.60266E-03  5656   0.930E-02    0.104E-01
RMM:   8    -0.413782128788E+03    0.27239E-03   -0.19196E-03  5247   0.516E-02    0.664E-02
RMM:   9    -0.413782066180E+03    0.62608E-04   -0.70288E-04  4619   0.359E-02    0.262E-02
RMM:  10    -0.413782078296E+03   -0.12115E-04   -0.23391E-04  5931   0.175E-02    0.193E-02
RMM:  11    -0.413782074236E+03    0.40590E-05   -0.50741E-05  5376   0.852E-03    0.105E-02
RMM:  12    -0.413782075405E+03   -0.11688E-05   -0.18867E-05  4753   0.544E-03    0.565E-03
RMM:  13    -0.413782078321E+03   -0.29153E-05   -0.51143E-06  3078   0.357E-03    0.351E-03
RMM:  14    -0.413782080007E+03   -0.16862E-05   -0.14465E-06  2562   0.216E-03    0.142E-03
RMM:  15    -0.413782081111E+03   -0.11045E-05   -0.64187E-07  2475   0.135E-03    0.732E-04
RMM:  16    -0.413782082302E+03   -0.11906E-05   -0.40967E-07  1942   0.988E-04    0.370E-04
RMM:  17    -0.413782083268E+03   -0.96615E-06   -0.30952E-07  1733   0.861E-04
  140 T=   179. E= -.41290207E+03 F= -.41378208E+03 E0= -.41376110E+03  EK= 0.88001E+00 SP= 0.00E+00 SK= 0.00E+00
       N       E                     dE             d eps       ncg     rms          rms(c)
RMM:   1    -0.413400171454E+03    0.38191E+00   -0.16877E+01  4276   0.730E+00    0.151E+00
RMM:   2    -0.413334432474E+03    0.65739E-01   -0.59483E-01  5385   0.884E-01    0.141E+00
RMM:   3    -0.413333468365E+03    0.96411E-03   -0.80534E-02  5324   0.321E-01    0.981E-01
RMM:   4    -0.413469935484E+03   -0.13647E+00   -0.17880E-01  5102   0.451E-01    0.151E+00
RMM:   5    -0.413336945417E+03    0.13299E+00   -0.90396E-02  4962   0.328E-01    0.422E-01
RMM:   6    -0.413329612423E+03    0.73330E-02   -0.26351E-02  5393   0.194E-01    0.144E-01
RMM:   7    -0.413329114630E+03    0.49779E-03   -0.47757E-03  5665   0.815E-02    0.784E-02
RMM:   8    -0.413328993647E+03    0.12098E-03   -0.12672E-03  5041   0.439E-02    0.456E-02
RMM:   9    -0.413328984664E+03    0.89835E-05   -0.35039E-04  5259   0.243E-02    0.181E-02
RMM:  10    -0.413328988661E+03   -0.39973E-05   -0.11156E-04  6072   0.112E-02    0.114E-02
RMM:  11    -0.413328989342E+03   -0.68060E-06   -0.25620E-05  4833   0.576E-03    0.711E-03
RMM:  12    -0.413328990260E+03   -0.91772E-06   -0.60290E-06  3176   0.359E-03
  141 T=   101. E= -.41283191E+03 F= -.41332899E+03 E0= -.41330768E+03  EK= 0.49708E+00 SP= 0.00E+00 SK= 0.00E+00
       N       E                     dE             d eps       ncg     rms          rms(c)
RMM:   1    -0.413530895874E+03   -0.20191E+00   -0.10939E+01  4293   0.615E+00    0.991E-01
RMM:   2    -0.413522432635E+03    0.84632E-02   -0.29280E-01  5398   0.616E-01    0.964E-01
RMM:   3    -0.413510760863E+03    0.11672E-01   -0.66883E-02  5488   0.291E-01    0.834E-01
RMM:   4    -0.413500004000E+03    0.10757E-01   -0.44562E-02  5235   0.249E-01    0.392E-01
RMM:   5    -0.413497066015E+03    0.29380E-02   -0.34962E-02  4986   0.226E-01    0.194E-01
RMM:   6    -0.413495067474E+03    0.19985E-02   -0.65772E-03  4996   0.110E-01    0.963E-02
RMM:   7    -0.413494834741E+03    0.23273E-03   -0.70384E-04  4674   0.407E-02    0.481E-02
RMM:   8    -0.413494836079E+03   -0.13385E-05   -0.43692E-04  5428   0.251E-02    0.284E-02
RMM:   9    -0.413494841602E+03   -0.55230E-05   -0.13868E-04  5356   0.142E-02    0.188E-02
RMM:  10    -0.413494838423E+03    0.31796E-05   -0.42332E-05  5345   0.800E-03    0.817E-03
RMM:  11    -0.413494842660E+03   -0.42378E-05   -0.24628E-05  5089   0.556E-03    0.587E-03
RMM:  12    -0.413494844912E+03   -0.22519E-05   -0.42020E-06  2937   0.311E-03    0.281E-03
RMM:  13    -0.413494845715E+03   -0.80279E-06   -0.13022E-06  2508   0.196E-03
  142 T=   125. E= -.41288126E+03 F= -.41349485E+03 E0= -.41347324E+03  EK= 0.61358E+00 SP= 0.00E+00 SK= 0.00E+00
       N       E                     dE             d eps       ncg     rms          rms(c)
RMM:   1    -0.413910694554E+03   -0.41585E+00   -0.20092E+01  4300   0.821E+00    0.223E+00
RMM:   2    -0.413867738427E+03    0.42956E-01   -0.69100E-01  5387   0.104E+00    0.215E+00
RMM:   3    -0.413837363251E+03    0.30375E-01   -0.26899E-01  5367   0.572E-01    0.195E+00
RMM:   4    -0.413769796914E+03    0.67566E-01   -0.20068E-01  5236   0.520E-01    0.844E-01
RMM:   5    -0.413761550370E+03    0.82465E-02   -0.12672E-01  5033   0.435E-01    0.421E-01
RMM:   6    -0.413751564774E+03    0.99856E-02   -0.37579E-02  5034   0.246E-01    0.175E-01
RMM:   7    -0.413750587131E+03    0.97764E-03   -0.28834E-03  4803   0.852E-02    0.757E-02
RMM:   8    -0.413750517965E+03    0.69166E-04   -0.73623E-04  5165   0.356E-02    0.413E-02
RMM:   9    -0.413750542354E+03   -0.24390E-04   -0.43185E-04  5552   0.251E-02    0.288E-02
RMM:  10    -0.413750539828E+03    0.25260E-05   -0.93626E-05  5573   0.118E-02    0.162E-02
RMM:  11    -0.413750544070E+03   -0.42418E-05   -0.60651E-05  5519   0.920E-03    0.697E-03
RMM:  12    -0.413750553394E+03   -0.93234E-05   -0.14957E-05  4277   0.482E-03    0.513E-03
RMM:  13    -0.413750557844E+03   -0.44503E-05   -0.39542E-06  2855   0.307E-03    0.283E-03
RMM:  14    -0.413750559409E+03   -0.15653E-05   -0.17870E-06  2624   0.204E-03    0.112E-03
RMM:  15    -0.413750560834E+03   -0.14253E-05   -0.12356E-06  2544   0.167E-03    0.645E-04
RMM:  16    -0.413750561520E+03   -0.68584E-06   -0.11996E-06  2437   0.140E-03
  143 T=   173. E= -.41290147E+03 F= -.41375056E+03 E0= -.41372871E+03  EK= 0.84909E+00 SP= 0.00E+00 SK= 0.00E+00
       N       E                     dE             d eps       ncg     rms          rms(c)
RMM:   1    -0.413797518111E+03   -0.46957E-01   -0.20139E+01  4302   0.831E+00    0.148E+00
RMM:   2    -0.413745993604E+03    0.51525E-01   -0.64813E-01  5412   0.986E-01    0.167E+00
RMM:   3    -0.413683249288E+03    0.62744E-01   -0.15794E-01  5496   0.454E-01    0.133E+00
RMM:   4    -0.413656470356E+03    0.26779E-01   -0.67925E-02  5281   0.313E-01    0.728E-01
RMM:   5    -0.413661150648E+03   -0.46803E-02   -0.73195E-02  5086   0.323E-01    0.457E-01
RMM:   6    -0.413652867406E+03    0.82832E-02   -0.38034E-02  5016   0.236E-01    0.191E-01
RMM:   7    -0.413651610978E+03    0.12564E-02   -0.36964E-03  4952   0.927E-02    0.842E-02
RMM:   8    -0.413651550585E+03    0.60392E-04   -0.97669E-04  5739   0.376E-02    0.562E-02
RMM:   9    -0.413651520660E+03    0.29925E-04   -0.39501E-04  4568   0.252E-02    0.208E-02
RMM:  10    -0.413651539804E+03   -0.19144E-04   -0.12658E-04  5642   0.137E-02    0.129E-02
RMM:  11    -0.413651544221E+03   -0.44162E-05   -0.25868E-05  4828   0.633E-03    0.731E-03
RMM:  12    -0.413651552902E+03   -0.86812E-05   -0.10516E-05  3621   0.449E-03    0.374E-03
RMM:  13    -0.413651558379E+03   -0.54770E-05   -0.32232E-06  2805   0.263E-03    0.181E-03
RMM:  14    -0.413651561273E+03   -0.28940E-05   -0.19486E-06  2642   0.189E-03    0.983E-04
RMM:  15    -0.413651562592E+03   -0.13192E-05   -0.17364E-06  2566   0.169E-03    0.582E-04
RMM:  16    -0.413651561987E+03    0.60502E-06   -0.14930E-06  2398   0.142E-03
  144 T=   158. E= -.41287585E+03 F= -.41365156E+03 E0= -.41362941E+03  EK= 0.77572E+00 SP= 0.00E+00 SK= 0.00E+00
       N       E                     dE             d eps       ncg     rms          rms(c)
RMM:   1    -0.413521515945E+03    0.13005E+00   -0.14878E+01  4296   0.728E+00    0.806E-01
RMM:   2    -0.413501457032E+03    0.20059E-01   -0.41479E-01  5417   0.763E-01    0.100E+00
RMM:   3    -0.413474324782E+03    0.27132E-01   -0.76185E-02  5644   0.310E-01    0.768E-01
RMM:   4    -0.413463626797E+03    0.10698E-01   -0.18633E-02  5306   0.169E-01    0.472E-01
RMM:   5    -0.413465185771E+03   -0.15590E-02   -0.24014E-02  5021   0.185E-01    0.319E-01
RMM:   6    -0.413462650307E+03    0.25355E-02   -0.19413E-02  5009   0.166E-01    0.140E-01
RMM:   7    -0.413462032711E+03    0.61760E-03   -0.27840E-03  5296   0.736E-02    0.790E-02
RMM:   8    -0.413461928973E+03    0.10374E-03   -0.58279E-04  5690   0.294E-02    0.512E-02
RMM:   9    -0.413461901849E+03    0.27124E-04   -0.44712E-04  4528   0.252E-02    0.144E-02
RMM:  10    -0.413461918884E+03   -0.17035E-04   -0.96334E-05  5674   0.116E-02    0.118E-02
RMM:  11    -0.413461919613E+03   -0.72884E-06   -0.20441E-05  4365   0.584E-03    0.592E-03
RMM:  12    -0.413461924647E+03   -0.50341E-05   -0.77772E-06  3386   0.374E-03    0.320E-03
RMM:  13    -0.413461928216E+03   -0.35690E-05   -0.20704E-06  2677   0.222E-03    0.149E-03
RMM:  14    -0.413461930290E+03   -0.20740E-05   -0.17008E-06  2607   0.181E-03    0.847E-04
RMM:  15    -0.413461930600E+03   -0.31020E-06   -0.13463E-06  2442   0.147E-03
  145 T=   122. E= -.41286439E+03 F= -.41346193E+03 E0= -.41343949E+03  EK= 0.59754E+00 SP= 0.00E+00 SK= 0.00E+00
       N       E                     dE             d eps       ncg     rms          rms(c)
RMM:   1    -0.413371523948E+03    0.90406E-01   -0.10921E+01  4288   0.632E+00    0.625E-01
RMM:   2    -0.413362419560E+03    0.91044E-02   -0.26434E-01  5422   0.606E-01    0.653E-01
RMM:   3    -0.413360637187E+03    0.17824E-02   -0.45644E-02  5734   0.228E-01    0.614E-01
RMM:   4    -0.413352211628E+03    0.84256E-02   -0.11277E-02  5121   0.133E-01    0.353E-01
RMM:   5    -0.413353170080E+03   -0.95845E-03   -0.14655E-02  4922   0.148E-01    0.208E-01
RMM:   6    -0.413351912222E+03    0.12579E-02   -0.10152E-02  5024   0.120E-01    0.968E-02
RMM:   7    -0.413351521998E+03    0.39022E-03   -0.12862E-03  5219   0.510E-02    0.559E-02
RMM:   8    -0.413351469386E+03    0.52612E-04   -0.32683E-04  5494   0.217E-02    0.354E-02
RMM:   9    -0.413351471421E+03   -0.20356E-05   -0.27919E-04  4697   0.196E-02    0.137E-02
RMM:  10    -0.413351474312E+03   -0.28903E-05   -0.45221E-05  5411   0.818E-03    0.103E-02
RMM:  11    -0.413351472403E+03    0.19084E-05   -0.12142E-05  3990   0.444E-03    0.514E-03
RMM:  12    -0.413351473865E+03   -0.14613E-05   -0.59670E-06  3181   0.329E-03    0.237E-03
RMM:  13    -0.413351475478E+03   -0.16136E-05   -0.12428E-06  2546   0.188E-03    0.124E-03
RMM:  14    -0.413351475757E+03   -0.27916E-06   -0.95330E-07  2440   0.143E-03
  146 T=    99. E= -.41286328E+03 F= -.41335148E+03 E0= -.41332882E+03  EK= 0.48820E+00 SP= 0.00E+00 SK= 0.00E+00
       N       E                     dE             d eps       ncg     rms          rms(c)
RMM:   1    -0.413358618933E+03   -0.71435E-02   -0.97254E+00  4264   0.589E+00    0.627E-01
RMM:   2    -0.413345316288E+03    0.13303E-01   -0.23943E-01  5394   0.575E-01    0.539E-01
RMM:   3    -0.413360702626E+03   -0.15386E-01   -0.42834E-02  5685   0.219E-01    0.679E-01
RMM:   4    -0.413345000717E+03    0.15702E-01   -0.15815E-02  5084   0.147E-01    0.321E-01
RMM:   5    -0.413344837683E+03    0.16303E-03   -0.10425E-02  4682   0.139E-01    0.123E-01
RMM:   6    -0.413344420117E+03    0.41757E-03   -0.40416E-03  5125   0.779E-02    0.705E-02
RMM:   7    -0.413344169332E+03    0.25079E-03   -0.78757E-04  5049   0.372E-02    0.359E-02
RMM:   8    -0.413344153349E+03    0.15983E-04   -0.21941E-04  5606   0.180E-02    0.257E-02
RMM:   9    -0.413344150435E+03    0.29144E-05   -0.11378E-04  4852   0.134E-02    0.127E-02
RMM:  10    -0.413344149191E+03    0.12439E-05   -0.31859E-05  5239   0.688E-03    0.847E-03
RMM:  11    -0.413344147258E+03    0.19325E-05   -0.82927E-06  3624   0.378E-03    0.407E-03
RMM:  12    -0.413344147251E+03    0.70977E-08   -0.29518E-06  2746   0.266E-03
  147 T=    97. E= -.41286647E+03 F= -.41334415E+03 E0= -.41332137E+03  EK= 0.47768E+00 SP= 0.00E+00 SK= 0.00E+00
       N       E                     dE             d eps       ncg     rms          rms(c)
RMM:   1    -0.413416796080E+03   -0.72649E-01   -0.10644E+01  4264   0.607E+00    0.806E-01
RMM:   2    -0.413397087225E+03    0.19709E-01   -0.28962E-01  5349   0.619E-01    0.652E-01
RMM:   3    -0.413399538823E+03   -0.24516E-02   -0.34490E-02  5362   0.226E-01    0.399E-01
RMM:   4    -0.413444765056E+03   -0.45226E-01   -0.57028E-02  5240   0.230E-01    0.857E-01
RMM:   5    -0.413398599939E+03    0.46165E-01   -0.30179E-02  4970   0.192E-01    0.142E-01
RMM:   6    -0.413398055511E+03    0.54443E-03   -0.53087E-03  5558   0.889E-02    0.513E-02
RMM:   7    -0.413398044731E+03    0.10781E-04   -0.11248E-03  5802   0.349E-02    0.330E-02
RMM:   8    -0.413398046844E+03   -0.21139E-05   -0.28927E-04  5685   0.183E-02    0.229E-02
RMM:   9    -0.413398027183E+03    0.19661E-04   -0.86691E-05  5104   0.115E-02    0.118E-02
RMM:  10    -0.413398026693E+03    0.49041E-06   -0.29683E-05  5137   0.677E-03    0.760E-03
RMM:  11    -0.413398025708E+03    0.98479E-06   -0.61514E-06  3166   0.338E-03
  148 T=   107. E= -.41287023E+03 F= -.41339803E+03 E0= -.41337521E+03  EK= 0.52779E+00 SP= 0.00E+00 SK= 0.00E+00
       N       E                     dE             d eps       ncg     rms          rms(c)
RMM:   1    -0.413483808552E+03   -0.85782E-01   -0.12193E+01  4264   0.652E+00    0.989E-01
RMM:   2    -0.413463387480E+03    0.20421E-01   -0.36200E-01  5300   0.675E-01    0.778E-01
RMM:   3    -0.413495032694E+03   -0.31645E-01   -0.68815E-02  5529   0.296E-01    0.806E-01
RMM:   4    -0.413479929588E+03    0.15103E-01   -0.53059E-02  5109   0.238E-01    0.557E-01
RMM:   5    -0.413466638078E+03    0.13292E-01   -0.27077E-02  5170   0.206E-01    0.182E-01
RMM:   6    -0.413465337390E+03    0.13007E-02   -0.47532E-03  5057   0.926E-02    0.807E-02
RMM:   7    -0.413465053790E+03    0.28360E-03   -0.92719E-04  5096   0.409E-02    0.374E-02
RMM:   8    -0.413465035349E+03    0.18441E-04   -0.43441E-04  5802   0.249E-02    0.264E-02
RMM:   9    -0.413465022039E+03    0.13311E-04   -0.11797E-04  5611   0.130E-02    0.195E-02
RMM:  10    -0.413465012923E+03    0.91162E-05   -0.40969E-05  5282   0.823E-03    0.898E-03
RMM:  11    -0.413465014256E+03   -0.13338E-05   -0.24574E-05  5070   0.565E-03    0.551E-03
RMM:  12    -0.413465017878E+03   -0.36215E-05   -0.35881E-06  2803   0.311E-03    0.288E-03
RMM:  13    -0.413465023378E+03   -0.55006E-05   -0.22326E-06  2637   0.237E-03    0.154E-03
RMM:  14    -0.413465030699E+03   -0.73208E-05   -0.13861E-06  2582   0.181E-03    0.756E-04
RMM:  15    -0.413465038248E+03   -0.75484E-05   -0.13137E-06  2584   0.153E-03    0.591E-04
RMM:  16    -0.413465047785E+03   -0.95378E-05   -0.21249E-06  2642   0.173E-03    0.357E-04
RMM:  17    -0.413465052459E+03   -0.46738E-05   -0.11043E-06  2055   0.111E-03    0.263E-04
RMM:  18    -0.413465057186E+03   -0.47267E-05   -0.82495E-07  2197   0.108E-03    0.201E-04
RMM:  19    -0.413465060219E+03   -0.30327E-05   -0.44844E-07  1651   0.799E-04    0.999E-05
RMM:  20    -0.413465062099E+03   -0.18804E-05   -0.21646E-07  1286   0.648E-04    0.662E-05
RMM:  21    -0.413465063232E+03   -0.11331E-05   -0.11540E-07  1095   0.580E-04    0.472E-05
RMM:  22    -0.413465064321E+03   -0.10891E-05   -0.72496E-08  1037   0.560E-04    0.314E-05
RMM:  23    -0.413465064963E+03   -0.64154E-06   -0.43989E-08   979   0.544E-04
  149 T=   121. E= -.41287001E+03 F= -.41346506E+03 E0= -.41344228E+03  EK= 0.59505E+00 SP= 0.00E+00 SK= 0.00E+00
       N       E                     dE             d eps       ncg     rms          rms(c)
RMM:   1    -0.413587358714E+03   -0.12229E+00   -0.13904E+01  4265   0.689E+00    0.845E-01
RMM:   2    -0.413549492515E+03    0.37866E-01   -0.41981E-01  5213   0.711E-01    0.643E-01
RMM:   3    -0.413570483840E+03   -0.20991E-01   -0.56544E-02  5561   0.276E-01    0.657E-01
RMM:   4    -0.413562459062E+03    0.80248E-02   -0.34418E-02  5130   0.196E-01    0.481E-01
RMM:   5    -0.413555108368E+03    0.73507E-02   -0.27197E-02  5318   0.195E-01    0.213E-01
RMM:   6    -0.413553050290E+03    0.20581E-02   -0.63396E-03  5009   0.104E-01    0.899E-02
RMM:   7    -0.413552719017E+03    0.33127E-03   -0.11259E-03  5259   0.459E-02    0.331E-02
RMM:   8    -0.413552710647E+03    0.83697E-05   -0.48441E-04  5982   0.250E-02    0.247E-02
RMM:   9    -0.413552694461E+03    0.16187E-04   -0.10858E-04  5580   0.122E-02    0.178E-02
RMM:  10    -0.413552681892E+03    0.12569E-04   -0.38488E-05  5312   0.794E-03    0.772E-03
RMM:  11    -0.413552680707E+03    0.11842E-05   -0.19788E-05  4758   0.511E-03    0.551E-03
RMM:  12    -0.413552681648E+03   -0.94085E-06   -0.41172E-06  2872   0.336E-03
  150 T=   139. E= -.41286930E+03 F= -.41355268E+03 E0= -.41352993E+03  EK= 0.68339E+00 SP= 0.00E+00 SK= 0.00E+00
