       N       E                     dE             d eps       ncg     rms          rms(c)
RMM:   1     0.220169011505E+04    0.22017E+04   -0.52441E+04  2132   0.654E+02
RMM:   2     0.705963406335E+03   -0.14957E+04   -0.16264E+04  2132   0.177E+02
RMM:   3     0.137774094930E+03   -0.56819E+03   -0.65711E+03  2132   0.117E+02
RMM:   4    -0.159261620879E+03   -0.29704E+03   -0.27856E+03  2132   0.936E+01
RMM:   5    -0.287484554096E+03   -0.12822E+03   -0.11468E+03  2132   0.595E+01
RMM:   6    -0.349930965879E+03   -0.62446E+02   -0.55147E+02  2132   0.423E+01
RMM:   7    -0.382833379153E+03   -0.32902E+02   -0.30446E+02  2132   0.293E+01
RMM:   8    -0.404345965337E+03   -0.21513E+02   -0.18420E+02  2132   0.233E+01
RMM:   9    -0.436011940904E+03   -0.31666E+02   -0.30595E+02  6095   0.173E+01
RMM:  10    -0.441269942507E+03   -0.52580E+01   -0.62662E+01  6399   0.537E+00
RMM:  11    -0.442510894673E+03   -0.12410E+01   -0.11221E+01  6217   0.173E+00
RMM:  12    -0.442893762255E+03   -0.38287E+00   -0.27656E+00  6373   0.601E-01    0.134E+02
RMM:  13    -0.425576785548E+03    0.17317E+02   -0.80738E+01  4674   0.119E+01    0.712E+01
RMM:  14    -0.498675081567E+03   -0.73098E+02   -0.53535E+02  5419   0.232E+01    0.305E+01
RMM:  15    -0.415193723355E+03    0.83481E+02   -0.19661E+02  5068   0.163E+01    0.658E+00
RMM:  16    -0.414041539300E+03    0.11522E+01   -0.39386E+01  6078   0.606E+00    0.427E+00
RMM:  17    -0.413218898985E+03    0.82264E+00   -0.23788E+00  5364   0.184E+00    0.245E+00
RMM:  18    -0.413169046421E+03    0.49853E-01   -0.83210E-01  5966   0.942E-01    0.162E+00
RMM:  19    -0.413168500630E+03    0.54579E-03   -0.27304E-01  5728   0.558E-01    0.854E-01
RMM:  20    -0.413184054475E+03   -0.15554E-01   -0.22087E-01  5459   0.505E-01    0.551E-01
RMM:  21    -0.413167630310E+03    0.16424E-01   -0.31539E-02  5006   0.224E-01    0.258E-01
RMM:  22    -0.413165502958E+03    0.21274E-02   -0.15492E-02  6019   0.111E-01    0.137E-01
RMM:  23    -0.413164274241E+03    0.12287E-02   -0.51276E-03  5953   0.657E-02    0.805E-02
RMM:  24    -0.413163023540E+03    0.12507E-02   -0.14518E-03  5317   0.391E-02    0.406E-02
RMM:  25    -0.413162733245E+03    0.29030E-03   -0.74147E-04  5470   0.248E-02    0.323E-02
RMM:  26    -0.413162959616E+03   -0.22637E-03   -0.77063E-04  5796   0.291E-02    0.333E-02
RMM:  27    -0.413163390534E+03   -0.43092E-03   -0.17088E-04  4520   0.191E-02    0.190E-02
RMM:  28    -0.413163887102E+03   -0.49657E-03   -0.19272E-04  5188   0.199E-02    0.848E-03
RMM:  29    -0.413164260192E+03   -0.37309E-03   -0.10365E-04  4478   0.148E-02    0.498E-03
RMM:  30    -0.413164481733E+03   -0.22154E-03   -0.73936E-05  4007   0.100E-02    0.324E-03
RMM:  31    -0.413164586771E+03   -0.10504E-03   -0.44504E-05  3158   0.601E-03    0.300E-03
RMM:  32    -0.413164610767E+03   -0.23995E-04   -0.18293E-05  2925   0.295E-03    0.152E-03
RMM:  33    -0.413164619478E+03   -0.87115E-05   -0.78031E-06  2787   0.211E-03    0.517E-04
RMM:  34    -0.413164621437E+03   -0.19586E-05   -0.44379E-06  2677   0.175E-03    0.918E-04
RMM:  35    -0.413164620768E+03    0.66845E-06   -0.21193E-06  2253   0.117E-03
    1 T=    61. E= -.41286682E+03 F= -.41316462E+03 E0= -.41314212E+03  EK= 0.29780E+00 SP= 0.00E+00 SK= 0.00E+00
       N       E                     dE             d eps       ncg     rms          rms(c)
RMM:   1    -0.413158199464E+03    0.64220E-02   -0.10296E+01  4001   0.667E-01    0.885E-01
RMM:   2    -0.413166943433E+03   -0.87440E-02   -0.12625E-01  3916   0.936E-02    0.645E-01
RMM:   3    -0.413164448541E+03    0.24949E-02   -0.93637E-03  4611   0.383E-02    0.113E-01
RMM:   4    -0.413175735252E+03   -0.11287E-01   -0.11949E-02  5216   0.907E-02    0.447E-01
RMM:   5    -0.413164290857E+03    0.11444E-01   -0.57540E-03  4864   0.747E-02    0.356E-02
RMM:   6    -0.413164360368E+03   -0.69510E-04   -0.10177E-03  5787   0.308E-02    0.252E-02
RMM:   7    -0.413164361962E+03   -0.15942E-05   -0.21772E-04  5579   0.136E-02    0.135E-02
RMM:   8    -0.413164363792E+03   -0.18299E-05   -0.21524E-05  4158   0.514E-03    0.581E-03
RMM:   9    -0.413164368122E+03   -0.43299E-05   -0.42900E-06  2878   0.240E-03    0.437E-03
RMM:  10    -0.413164373709E+03   -0.55876E-05   -0.13446E-06  2520   0.175E-03    0.255E-03
RMM:  11    -0.413164380342E+03   -0.66330E-05   -0.11558E-06  2508   0.155E-03    0.101E-03
RMM:  12    -0.413164385160E+03   -0.48183E-05   -0.75987E-07  2321   0.122E-03    0.444E-04
RMM:  13    -0.413164386287E+03   -0.11262E-05   -0.37160E-07  1856   0.859E-04    0.259E-04
RMM:  14    -0.413164387700E+03   -0.14135E-05   -0.25836E-07  1367   0.715E-04    0.161E-04
RMM:  15    -0.413164390250E+03   -0.25499E-05   -0.26628E-07  1439   0.735E-04    0.991E-05
RMM:  16    -0.413164390709E+03   -0.45929E-06   -0.15763E-07  1120   0.630E-04
    2 T=    61. E= -.41286660E+03 F= -.41316439E+03 E0= -.41314189E+03  EK= 0.29779E+00 SP= 0.00E+00 SK= 0.00E+00
       N       E                     dE             d eps       ncg     rms          rms(c)
RMM:   1    -0.413159222859E+03    0.51674E-02   -0.10318E+01  4192   0.671E-01    0.907E-01
RMM:   2    -0.413166938142E+03   -0.77153E-02   -0.12421E-01  3966   0.928E-02    0.639E-01
RMM:   3    -0.413165208717E+03    0.17294E-02   -0.95352E-03  4896   0.407E-02    0.143E-01
RMM:   4    -0.413194636537E+03   -0.29428E-01   -0.30403E-02  5176   0.146E-01    0.715E-01
RMM:   5    -0.413164720279E+03    0.29916E-01   -0.14433E-02  4821   0.120E-01    0.454E-02
RMM:   6    -0.413164911302E+03   -0.19102E-03   -0.24803E-03  5777   0.484E-02    0.291E-02
RMM:   7    -0.413164914426E+03   -0.31247E-05   -0.37362E-04  5799   0.171E-02    0.184E-02
RMM:   8    -0.413164910059E+03    0.43677E-05   -0.55805E-05  5068   0.776E-03    0.851E-03
RMM:   9    -0.413164908418E+03    0.16411E-05   -0.11616E-05  3755   0.380E-03    0.630E-03
RMM:  10    -0.413164908731E+03   -0.31286E-06   -0.17061E-06  2569   0.203E-03
    3 T=    61. E= -.41286687E+03 F= -.41316491E+03 E0= -.41314241E+03  EK= 0.29803E+00 SP= 0.00E+00 SK= 0.00E+00
       N       E                     dE             d eps       ncg     rms          rms(c)
RMM:   1    -0.413158667539E+03    0.62409E-02   -0.10237E+01  4223   0.672E-01    0.892E-01
RMM:   2    -0.413166755559E+03   -0.80880E-02   -0.12346E-01  4150   0.943E-02    0.633E-01
RMM:   3    -0.413168024847E+03   -0.12693E-02   -0.11689E-02  5149   0.665E-02    0.272E-01
RMM:   4    -0.413196317649E+03   -0.28293E-01   -0.42323E-02  5135   0.174E-01    0.736E-01
RMM:   5    -0.413164578194E+03    0.31739E-01   -0.13341E-02  4741   0.122E-01    0.572E-02
RMM:   6    -0.413164661067E+03   -0.82873E-04   -0.23563E-03  5569   0.484E-02    0.269E-02
RMM:   7    -0.413164680445E+03   -0.19378E-04   -0.36614E-04  6051   0.165E-02    0.170E-02
RMM:   8    -0.413164680223E+03    0.22224E-06   -0.64794E-05  5274   0.859E-03    0.771E-03
RMM:   9    -0.413164678265E+03    0.19582E-05   -0.98552E-06  3470   0.371E-03    0.371E-03
RMM:  10    -0.413164679599E+03   -0.13348E-05   -0.21903E-06  2594   0.216E-03    0.251E-03
RMM:  11    -0.413164681495E+03   -0.18955E-05   -0.14095E-06  2533   0.183E-03    0.146E-03
RMM:  12    -0.413164682465E+03   -0.97039E-06   -0.72776E-07  2483   0.139E-03
    4 T=    61. E= -.41286668E+03 F= -.41316468E+03 E0= -.41314219E+03  EK= 0.29801E+00 SP= 0.00E+00 SK= 0.00E+00
       N       E                     dE             d eps       ncg     rms          rms(c)
RMM:   1    -0.413158582960E+03    0.60985E-02   -0.10286E+01  4235   0.679E-01    0.883E-01
RMM:   2    -0.413167345762E+03   -0.87628E-02   -0.12631E-01  4044   0.941E-02    0.644E-01
RMM:   3    -0.413165167385E+03    0.21784E-02   -0.94593E-03  4898   0.419E-02    0.133E-01
RMM:   4    -0.413194993556E+03   -0.29826E-01   -0.30775E-02  5158   0.146E-01    0.720E-01
RMM:   5    -0.413164644680E+03    0.30349E-01   -0.14602E-02  4812   0.120E-01    0.439E-02
RMM:   6    -0.413164841975E+03   -0.19730E-03   -0.25059E-03  5783   0.482E-02    0.273E-02
RMM:   7    -0.413164852505E+03   -0.10529E-04   -0.35630E-04  5822   0.167E-02    0.178E-02
RMM:   8    -0.413164853618E+03   -0.11134E-05   -0.57738E-05  5027   0.779E-03    0.857E-03
RMM:   9    -0.413164855315E+03   -0.16974E-05   -0.11872E-05  3814   0.389E-03    0.626E-03
RMM:  10    -0.413164859632E+03   -0.43170E-05   -0.17360E-06  2572   0.202E-03    0.411E-03
RMM:  11    -0.413164865308E+03   -0.56756E-05   -0.15958E-06  2566   0.192E-03    0.191E-03
RMM:  12    -0.413164870973E+03   -0.56650E-05   -0.14368E-06  2542   0.174E-03    0.796E-04
RMM:  13    -0.413164871506E+03   -0.53333E-06   -0.39150E-07  2197   0.107E-03
    5 T=    61. E= -.41286673E+03 F= -.41316487E+03 E0= -.41314239E+03  EK= 0.29814E+00 SP= 0.00E+00 SK= 0.00E+00
       N       E                     dE             d eps       ncg     rms          rms(c)
RMM:   1    -0.413159500953E+03    0.53700E-02   -0.10320E+01  4250   0.684E-01    0.903E-01
RMM:   2    -0.413167397724E+03   -0.78968E-02   -0.12448E-01  4105   0.956E-02    0.641E-01
RMM:   3    -0.413165505316E+03    0.18924E-02   -0.94148E-03  4737   0.403E-02    0.131E-01
RMM:   4    -0.413186057031E+03   -0.20552E-01   -0.20841E-02  5160   0.121E-01    0.601E-01
RMM:   5    -0.413165185323E+03    0.20872E-01   -0.10215E-02  4825   0.997E-02    0.401E-02
RMM:   6    -0.413165318922E+03   -0.13360E-03   -0.17427E-03  5795   0.399E-02    0.258E-02
RMM:   7    -0.413165320968E+03   -0.20463E-05   -0.27425E-04  5720   0.155E-02    0.164E-02
RMM:   8    -0.413165315602E+03    0.53664E-05   -0.48081E-05  4903   0.737E-03    0.789E-03
RMM:   9    -0.413165314572E+03    0.10293E-05   -0.94653E-06  3579   0.356E-03    0.619E-03
RMM:  10    -0.413165315220E+03   -0.64771E-06   -0.13738E-06  2541   0.197E-03
    6 T=    61. E= -.41286689E+03 F= -.41316532E+03 E0= -.41314285E+03  EK= 0.29843E+00 SP= 0.00E+00 SK= 0.00E+00
       N       E                     dE             d eps       ncg     rms          rms(c)
RMM:   1    -0.413159218452E+03    0.60961E-02   -0.10268E+01  4256   0.687E-01    0.899E-01
RMM:   2    -0.413167055167E+03   -0.78367E-02   -0.12371E-01  4183   0.931E-02    0.634E-01
RMM:   3    -0.413167490150E+03   -0.43498E-03   -0.11051E-02  5098   0.603E-02    0.241E-01
RMM:   4    -0.413201203087E+03   -0.33713E-01   -0.44591E-02  5130   0.177E-01    0.785E-01
RMM:   5    -0.413164967243E+03    0.36236E-01   -0.15922E-02  4767   0.130E-01    0.570E-02
RMM:   6    -0.413165091144E+03   -0.12390E-03   -0.27192E-03  5614   0.517E-02    0.276E-02
RMM:   7    -0.413165109759E+03   -0.18614E-04   -0.40088E-04  6038   0.168E-02    0.175E-02
RMM:   8    -0.413165107703E+03    0.20556E-05   -0.65561E-05  5261   0.849E-03    0.793E-03
RMM:   9    -0.413165104061E+03    0.36417E-05   -0.10768E-05  3553   0.374E-03    0.395E-03
RMM:  10    -0.413165104199E+03   -0.13775E-06   -0.25142E-06  2611   0.224E-03
    7 T=    61. E= -.41286659E+03 F= -.41316510E+03 E0= -.41314266E+03  EK= 0.29851E+00 SP= 0.00E+00 SK= 0.00E+00
       N       E                     dE             d eps       ncg     rms          rms(c)
RMM:   1    -0.413159439392E+03    0.56647E-02   -0.10273E+01  4266   0.694E-01    0.882E-01
RMM:   2    -0.413168082360E+03   -0.86430E-02   -0.12580E-01  4150   0.931E-02    0.641E-01
RMM:   3    -0.413166798127E+03    0.12842E-02   -0.10047E-02  5045   0.515E-02    0.183E-01
RMM:   4    -0.413209378888E+03   -0.42581E-01   -0.48087E-02  5145   0.183E-01    0.861E-01
RMM:   5    -0.413165389201E+03    0.43990E-01   -0.20499E-02  4806   0.144E-01    0.526E-02
RMM:   6    -0.413165599469E+03   -0.21027E-03   -0.33254E-03  5743   0.571E-02    0.281E-02
RMM:   7    -0.413165618200E+03   -0.18732E-04   -0.46360E-04  5975   0.183E-02    0.191E-02
RMM:   8    -0.413165620504E+03   -0.23037E-05   -0.73558E-05  5244   0.858E-03    0.919E-03
RMM:   9    -0.413165620289E+03    0.21446E-06   -0.14396E-05  3953   0.415E-03    0.537E-03
RMM:  10    -0.413165623808E+03   -0.35183E-05   -0.26366E-06  2623   0.221E-03    0.362E-03
RMM:  11    -0.413165627053E+03   -0.32456E-05   -0.12084E-06  2526   0.170E-03    0.187E-03
RMM:  12    -0.413165630882E+03   -0.38291E-05   -0.12557E-06  2536   0.164E-03    0.570E-04
RMM:  13    -0.413165632203E+03   -0.13201E-05   -0.53475E-07  2249   0.114E-03    0.478E-04
RMM:  14    -0.413165632137E+03    0.65935E-07   -0.22097E-07  1674   0.805E-04
    8 T=    61. E= -.41286682E+03 F= -.41316563E+03 E0= -.41314320E+03  EK= 0.29881E+00 SP= 0.00E+00 SK= 0.00E+00
       N       E                     dE             d eps       ncg     rms          rms(c)
RMM:   1    -0.413159840651E+03    0.57916E-02   -0.10326E+01  4280   0.698E-01    0.898E-01
RMM:   2    -0.413168138283E+03   -0.82976E-02   -0.12528E-01  4178   0.951E-02    0.643E-01
RMM:   3    -0.413166129365E+03    0.20089E-02   -0.95216E-03  4849   0.417E-02    0.135E-01
RMM:   4    -0.413193424021E+03   -0.27295E-01   -0.28128E-02  5151   0.139E-01    0.690E-01
RMM:   5    -0.413165637166E+03    0.27787E-01   -0.13591E-02  4813   0.115E-01    0.433E-02
RMM:   6    -0.413165812231E+03   -0.17506E-03   -0.22483E-03  5770   0.459E-02    0.279E-02
RMM:   7    -0.413165815187E+03   -0.29563E-05   -0.33961E-04  5753   0.166E-02    0.176E-02
RMM:   8    -0.413165811405E+03    0.37823E-05   -0.52353E-05  5004   0.757E-03    0.825E-03
RMM:   9    -0.413165809958E+03    0.14466E-05   -0.10767E-05  3683   0.372E-03    0.614E-03
RMM:  10    -0.413165810843E+03   -0.88526E-06   -0.15430E-06  2557   0.197E-03
    9 T=    61. E= -.41286675E+03 F= -.41316581E+03 E0= -.41314340E+03  EK= 0.29906E+00 SP= 0.00E+00 SK= 0.00E+00
       N       E                     dE             d eps       ncg     rms          rms(c)
RMM:   1    -0.413160187381E+03    0.56226E-02   -0.10306E+01  4295   0.700E-01    0.906E-01
RMM:   2    -0.413167841989E+03   -0.76546E-02   -0.12382E-01  4257   0.940E-02    0.636E-01
RMM:   3    -0.413168549178E+03   -0.70719E-03   -0.11384E-02  5083   0.638E-02    0.252E-01
RMM:   4    -0.413200310413E+03   -0.31761E-01   -0.43630E-02  5118   0.175E-01    0.767E-01
RMM:   5    -0.413165779090E+03    0.34531E-01   -0.15051E-02  4751   0.127E-01    0.565E-02
RMM:   6    -0.413165891920E+03   -0.11283E-03   -0.25807E-03  5598   0.504E-02    0.279E-02
RMM:   7    -0.413165905266E+03   -0.13346E-04   -0.38307E-04  6014   0.168E-02    0.176E-02
RMM:   8    -0.413165901324E+03    0.39423E-05   -0.64863E-05  5234   0.853E-03    0.789E-03
RMM:   9    -0.413165896380E+03    0.49435E-05   -0.10465E-05  3511   0.374E-03    0.390E-03
RMM:  10    -0.413165895251E+03    0.11287E-05   -0.24275E-06  2606   0.222E-03    0.271E-03
RMM:  11    -0.413165893631E+03    0.16205E-05   -0.12425E-06  2524   0.175E-03    0.141E-03
RMM:  12    -0.413165891857E+03    0.17739E-05   -0.76363E-07  2463   0.138E-03    0.452E-04
RMM:  13    -0.413165890965E+03    0.89224E-06   -0.37283E-07  2047   0.984E-04
   10 T=    61. E= -.41286660E+03 F= -.41316589E+03 E0= -.41314351E+03  EK= 0.29929E+00 SP= 0.00E+00 SK= 0.00E+00
       N       E                     dE             d eps       ncg     rms          rms(c)
RMM:   1    -0.413160431647E+03    0.54602E-02   -0.10264E+01  4292   0.705E-01    0.883E-01
RMM:   2    -0.413168953560E+03   -0.85219E-02   -0.12522E-01  4222   0.941E-02    0.639E-01
RMM:   3    -0.413167039176E+03    0.19144E-02   -0.93401E-03  4872   0.431E-02    0.138E-01
RMM:   4    -0.413198052903E+03   -0.31014E-01   -0.32226E-02  5142   0.149E-01    0.734E-01
RMM:   5    -0.413166452667E+03    0.31600E-01   -0.15390E-02  4805   0.122E-01    0.445E-02
RMM:   6    -0.413166640395E+03   -0.18773E-03   -0.24965E-03  5761   0.487E-02    0.279E-02
RMM:   7    -0.413166646631E+03   -0.62364E-05   -0.36722E-04  5787   0.171E-02    0.180E-02
RMM:   8    -0.413166644161E+03    0.24704E-05   -0.59027E-05  5037   0.792E-03    0.865E-03
RMM:   9    -0.413166642817E+03    0.13440E-05   -0.12296E-05  3827   0.395E-03    0.625E-03
RMM:  10    -0.413166644169E+03   -0.13529E-05   -0.17272E-06  2566   0.202E-03    0.407E-03
RMM:  11    -0.413166646034E+03   -0.18650E-05   -0.16025E-06  2553   0.195E-03    0.181E-03
RMM:  12    -0.413166647569E+03   -0.15341E-05   -0.13328E-06  2526   0.170E-03    0.785E-04
RMM:  13    -0.413166647657E+03   -0.88876E-07   -0.37198E-07  2190   0.106E-03
   11 T=    61. E= -.41286692E+03 F= -.41316665E+03 E0= -.41314429E+03  EK= 0.29973E+00 SP= 0.00E+00 SK= 0.00E+00
       N       E                     dE             d eps       ncg     rms          rms(c)
RMM:   1    -0.413160553568E+03    0.60940E-02   -0.10339E+01  4295   0.715E-01    0.894E-01
RMM:   2    -0.413168992501E+03   -0.84389E-02   -0.12629E-01  4230   0.962E-02    0.646E-01
RMM:   3    -0.413166853181E+03    0.21393E-02   -0.94810E-03  4806   0.418E-02    0.131E-01
RMM:   4    -0.413192604913E+03   -0.25752E-01   -0.26486E-02  5143   0.135E-01    0.670E-01
RMM:   5    -0.413166443924E+03    0.26161E-01   -0.12838E-02  4812   0.111E-01    0.417E-02
RMM:   6    -0.413166603855E+03   -0.15993E-03   -0.20887E-03  5792   0.442E-02    0.264E-02
RMM:   7    -0.413166608577E+03   -0.47211E-05   -0.30657E-04  5735   0.161E-02    0.168E-02
RMM:   8    -0.413166605213E+03    0.33635E-05   -0.55248E-05  4978   0.771E-03    0.833E-03
RMM:   9    -0.413166603753E+03    0.14598E-05   -0.11253E-05  3777   0.384E-03    0.627E-03
RMM:  10    -0.413166604932E+03   -0.11785E-05   -0.15063E-06  2551   0.198E-03    0.406E-03
RMM:  11    -0.413166606529E+03   -0.15975E-05   -0.15851E-06  2554   0.195E-03    0.183E-03
RMM:  12    -0.413166607732E+03   -0.12031E-05   -0.11855E-06  2494   0.164E-03    0.743E-04
RMM:  13    -0.413166607793E+03   -0.60929E-07   -0.35234E-07  2130   0.102E-03
   12 T=    61. E= -.41286665E+03 F= -.41316661E+03 E0= -.41314428E+03  EK= 0.29996E+00 SP= 0.00E+00 SK= 0.00E+00
       N       E                     dE             d eps       ncg     rms          rms(c)
RMM:   1    -0.413161560448E+03    0.50473E-02   -0.10343E+01  4296   0.714E-01    0.910E-01
RMM:   2    -0.413168948197E+03   -0.73877E-02   -0.12424E-01  4241   0.938E-02    0.638E-01
RMM:   3    -0.413167449053E+03    0.14991E-02   -0.95818E-03  4859   0.400E-02    0.142E-01
RMM:   4    -0.413194554541E+03   -0.27105E-01   -0.27954E-02  5143   0.139E-01    0.687E-01
RMM:   5    -0.413166987372E+03    0.27567E-01   -0.13527E-02  4806   0.114E-01    0.439E-02
RMM:   6    -0.413167154863E+03   -0.16749E-03   -0.22403E-03  5803   0.457E-02    0.283E-02
RMM:   7    -0.413167152740E+03    0.21223E-05   -0.33402E-04  5733   0.169E-02    0.179E-02
RMM:   8    -0.413167143559E+03    0.91815E-05   -0.56861E-05  4984   0.790E-03    0.873E-03
RMM:   9    -0.413167138705E+03    0.48537E-05   -0.11464E-05  3763   0.387E-03    0.657E-03
RMM:  10    -0.413167135943E+03    0.27620E-05   -0.15868E-06  2554   0.203E-03    0.420E-03
RMM:  11    -0.413167132602E+03    0.33410E-05   -0.15032E-06  2539   0.192E-03    0.196E-03
RMM:  12    -0.413167128694E+03    0.39084E-05   -0.13232E-06  2527   0.173E-03    0.788E-04
RMM:  13    -0.413167128101E+03    0.59281E-06   -0.38745E-07  2220   0.109E-03
   13 T=    61. E= -.41286668E+03 F= -.41316713E+03 E0= -.41314483E+03  EK= 0.30045E+00 SP= 0.00E+00 SK= 0.00E+00
       N       E                     dE             d eps       ncg     rms          rms(c)
RMM:   1    -0.413162245604E+03    0.48831E-02   -0.10277E+01  4294   0.724E-01    0.886E-01
RMM:   2    -0.413170022077E+03   -0.77765E-02   -0.12533E-01  4246   0.936E-02    0.637E-01
RMM:   3    -0.413168087273E+03    0.19348E-02   -0.92657E-03  4826   0.408E-02    0.134E-01
RMM:   4    -0.413193716868E+03   -0.25630E-01   -0.26410E-02  5141   0.135E-01    0.669E-01
RMM:   5    -0.413167657361E+03    0.26060E-01   -0.12816E-02  4812   0.111E-01    0.420E-02
RMM:   6    -0.413167815923E+03   -0.15856E-03   -0.20943E-03  5807   0.441E-02    0.267E-02
RMM:   7    -0.413167818036E+03   -0.21132E-05   -0.30457E-04  5725   0.161E-02    0.169E-02
RMM:   8    -0.413167812295E+03    0.57416E-05   -0.55586E-05  4977   0.777E-03    0.837E-03
RMM:   9    -0.413167809531E+03    0.27640E-05   -0.11355E-05  3785   0.386E-03    0.633E-03
RMM:  10    -0.413167809299E+03    0.23189E-06   -0.15064E-06  2551   0.199E-03
   14 T=    61. E= -.41286678E+03 F= -.41316781E+03 E0= -.41314554E+03  EK= 0.30103E+00 SP= 0.00E+00 SK= 0.00E+00
       N       E                     dE             d eps       ncg     rms          rms(c)
RMM:   1    -0.413161805051E+03    0.60045E-02   -0.10361E+01  4305   0.726E-01    0.891E-01
RMM:   2    -0.413170456303E+03   -0.86513E-02   -0.12715E-01  4274   0.971E-02    0.648E-01
RMM:   3    -0.413170560438E+03   -0.10413E-03   -0.11451E-02  5092   0.635E-02    0.247E-01
RMM:   4    -0.413206847205E+03   -0.36287E-01   -0.48828E-02  5118   0.185E-01    0.813E-01
RMM:   5    -0.413167695989E+03    0.39151E-01   -0.17234E-02  4758   0.135E-01    0.564E-02
RMM:   6    -0.413167826307E+03   -0.13032E-03   -0.28626E-03  5646   0.529E-02    0.266E-02
RMM:   7    -0.413167845415E+03   -0.19108E-04   -0.41151E-04  6014   0.170E-02    0.175E-02
RMM:   8    -0.413167846370E+03   -0.95425E-06   -0.68861E-05  5264   0.859E-03    0.813E-03
RMM:   9    -0.413167844154E+03    0.22160E-05   -0.12088E-05  3658   0.391E-03    0.384E-03
RMM:  10    -0.413167845493E+03   -0.13398E-05   -0.27010E-06  2632   0.224E-03    0.272E-03
RMM:  11    -0.413167846781E+03   -0.12879E-05   -0.12178E-06  2511   0.173E-03    0.141E-03
RMM:  12    -0.413167847467E+03   -0.68602E-06   -0.78311E-07  2460   0.137E-03
   15 T=    61. E= -.41286645E+03 F= -.41316785E+03 E0= -.41314561E+03  EK= 0.30140E+00 SP= 0.00E+00 SK= 0.00E+00
       N       E                     dE             d eps       ncg     rms          rms(c)
RMM:   1    -0.413163273089E+03    0.45737E-02   -0.10381E+01  4299   0.727E-01    0.912E-01
RMM:   2    -0.413170937988E+03   -0.76649E-02   -0.12508E-01  4252   0.963E-02    0.641E-01
RMM:   3    -0.413169400256E+03    0.15377E-02   -0.97982E-03  4930   0.440E-02    0.153E-01
RMM:   4    -0.413204359771E+03   -0.34960E-01   -0.36830E-02  5139   0.159E-01    0.778E-01
RMM:   5    -0.413168694408E+03    0.35665E-01   -0.17391E-02  4800   0.130E-01    0.476E-02
RMM:   6    -0.413168891699E+03   -0.19729E-03   -0.28381E-03  5767   0.519E-02    0.300E-02
RMM:   7    -0.413168890276E+03    0.14230E-05   -0.40661E-04  5787   0.181E-02    0.193E-02
RMM:   8    -0.413168881648E+03    0.86282E-05   -0.67615E-05  5121   0.845E-03    0.960E-03
RMM:   9    -0.413168875150E+03    0.64978E-05   -0.13785E-05  4000   0.419E-03    0.673E-03
RMM:  10    -0.413168871549E+03    0.36015E-05   -0.19506E-06  2578   0.212E-03    0.433E-03
RMM:  11    -0.413168867874E+03    0.36748E-05   -0.14373E-06  2535   0.187E-03    0.214E-03
RMM:  12    -0.413168862786E+03    0.50882E-05   -0.15261E-06  2549   0.185E-03    0.830E-04
RMM:  13    -0.413168861629E+03    0.11566E-05   -0.43723E-07  2287   0.117E-03    0.550E-04
RMM:  14    -0.413168861515E+03    0.11425E-06   -0.20188E-07  1722   0.802E-04
   16 T=    61. E= -.41286681E+03 F= -.41316886E+03 E0= -.41314666E+03  EK= 0.30205E+00 SP= 0.00E+00 SK= 0.00E+00
       N       E                     dE             d eps       ncg     rms          rms(c)
RMM:   1    -0.413163311051E+03    0.55506E-02   -0.10301E+01  4297   0.726E-01    0.892E-01
RMM:   2    -0.413171550745E+03   -0.82397E-02   -0.12523E-01  4258   0.949E-02    0.637E-01
RMM:   3    -0.413169657434E+03    0.18933E-02   -0.93188E-03  4880   0.412E-02    0.142E-01
RMM:   4    -0.413199347478E+03   -0.29690E-01   -0.30867E-02  5138   0.146E-01    0.718E-01
RMM:   5    -0.413169142088E+03    0.30205E-01   -0.14799E-02  4804   0.120E-01    0.447E-02
RMM:   6    -0.413169318568E+03   -0.17648E-03   -0.24428E-03  5780   0.477E-02    0.285E-02
RMM:   7    -0.413169318222E+03    0.34615E-06   -0.35968E-04  5749   0.170E-02    0.181E-02
RMM:   8    -0.413169311332E+03    0.68896E-05   -0.59066E-05  5038   0.796E-03    0.876E-03
RMM:   9    -0.413169306833E+03    0.44986E-05   -0.12079E-05  3818   0.395E-03    0.638E-03
RMM:  10    -0.413169304815E+03    0.20187E-05   -0.16455E-06  2558   0.202E-03    0.412E-03
RMM:  11    -0.413169302337E+03    0.24776E-05   -0.14540E-06  2539   0.189E-03    0.190E-03
RMM:  12    -0.413169299334E+03    0.30035E-05   -0.12916E-06  2521   0.171E-03    0.789E-04
RMM:  13    -0.413169298858E+03    0.47561E-06   -0.36787E-07  2191   0.107E-03
   17 T=    62. E= -.41286675E+03 F= -.41316930E+03 E0= -.41314714E+03  EK= 0.30255E+00 SP= 0.00E+00 SK= 0.00E+00
       N       E                     dE             d eps       ncg     rms          rms(c)
RMM:   1    -0.413165915734E+03    0.33836E-02   -0.10401E+01  4298   0.759E-01    0.888E-01
RMM:   2    -0.413172384853E+03   -0.64691E-02   -0.13333E-01  4261   0.100E-01    0.649E-01
RMM:   3    -0.413170099756E+03    0.22851E-02   -0.93657E-03  4847   0.420E-02    0.138E-01
RMM:   4    -0.413198490783E+03   -0.28391E-01   -0.29448E-02  5138   0.142E-01    0.703E-01
RMM:   5    -0.413169604840E+03    0.28886E-01   -0.14231E-02  4808   0.117E-01    0.428E-02
RMM:   6    -0.413169769409E+03   -0.16457E-03   -0.22912E-03  5806   0.463E-02    0.267E-02
RMM:   7    -0.413169774389E+03   -0.49802E-05   -0.32226E-04  5774   0.164E-02    0.170E-02
RMM:   8    -0.413169770723E+03    0.36658E-05   -0.61415E-05  5016   0.799E-03    0.873E-03
RMM:   9    -0.413169768006E+03    0.27179E-05   -0.12681E-05  3970   0.407E-03    0.638E-03
RMM:  10    -0.413169768360E+03   -0.35491E-06   -0.16964E-06  2561   0.201E-03
   18 T=    62. E= -.41286664E+03 F= -.41316977E+03 E0= -.41314765E+03  EK= 0.30313E+00 SP= 0.00E+00 SK= 0.00E+00
       N       E                     dE             d eps       ncg     rms          rms(c)
RMM:   1    -0.413165270787E+03    0.44972E-02   -0.10415E+01  4304   0.737E-01    0.911E-01
RMM:   2    -0.413173091778E+03   -0.78210E-02   -0.12622E-01  4303   0.984E-02    0.645E-01
RMM:   3    -0.413174080388E+03   -0.98861E-03   -0.11856E-02  5088   0.660E-02    0.265E-01
RMM:   4    -0.413205392260E+03   -0.31312E-01   -0.45049E-02  5105   0.178E-01    0.766E-01
RMM:   5    -0.413170914704E+03    0.34478E-01   -0.14943E-02  4737   0.127E-01    0.559E-02
RMM:   6    -0.413171019766E+03   -0.10506E-03   -0.25753E-03  5609   0.502E-02    0.279E-02
RMM:   7    -0.413171027474E+03   -0.77071E-05   -0.37743E-04  5997   0.166E-02    0.178E-02
RMM:   8    -0.413171020611E+03    0.68631E-05   -0.65558E-05  5215   0.854E-03    0.804E-03
RMM:   9    -0.413171013295E+03    0.73156E-05   -0.10886E-05  3581   0.383E-03    0.390E-03
RMM:  10    -0.413171010679E+03    0.26159E-05   -0.23811E-06  2598   0.220E-03    0.271E-03
RMM:  11    -0.413171007040E+03    0.36388E-05   -0.11414E-06  2509   0.172E-03    0.142E-03
RMM:  12    -0.413171003309E+03    0.37318E-05   -0.68552E-07  2446   0.135E-03    0.440E-04
RMM:  13    -0.413171001521E+03    0.17874E-05   -0.33715E-07  2022   0.966E-04    0.281E-04
RMM:  14    -0.413171000079E+03    0.14416E-05   -0.19336E-07  1521   0.777E-04    0.197E-04
RMM:  15    -0.413170997490E+03    0.25890E-05   -0.16516E-07  1378   0.732E-04    0.931E-05
RMM:  16    -0.413170995274E+03    0.22168E-05   -0.12997E-07  1371   0.691E-04    0.104E-04
RMM:  17    -0.413170992845E+03    0.24283E-05   -0.11502E-07  1369   0.657E-04    0.610E-05
RMM:  18    -0.413170991072E+03    0.17734E-05   -0.73341E-08  1078   0.585E-04    0.255E-05
RMM:  19    -0.413170990515E+03    0.55660E-06   -0.35606E-08   843   0.539E-04
   19 T=    62. E= -.41286700E+03 F= -.41317099E+03 E0= -.41314891E+03  EK= 0.30400E+00 SP= 0.00E+00 SK= 0.00E+00
       N       E                     dE             d eps       ncg     rms          rms(c)
RMM:   1    -0.413165616189E+03    0.53749E-02   -0.10358E+01  4298   0.741E-01    0.901E-01
RMM:   2    -0.413173388396E+03   -0.77722E-02   -0.12557E-01  4269   0.983E-02    0.638E-01
RMM:   3    -0.413171963584E+03    0.14248E-02   -0.96364E-03  4920   0.454E-02    0.157E-01
RMM:   4    -0.413208830203E+03   -0.36867E-01   -0.39227E-02  5138   0.164E-01    0.799E-01
RMM:   5    -0.413171180037E+03    0.37650E-01   -0.18373E-02  4793   0.134E-01    0.486E-02
RMM:   6    -0.413171380999E+03   -0.20096E-03   -0.30197E-03  5755   0.536E-02    0.303E-02
RMM:   7    -0.413171380640E+03    0.35882E-06   -0.42860E-04  5759   0.183E-02    0.196E-02
RMM:   8    -0.413171372445E+03    0.81950E-05   -0.70219E-05  5183   0.859E-03    0.971E-03
RMM:   9    -0.413171365627E+03    0.68182E-05   -0.14753E-05  4094   0.429E-03    0.664E-03
RMM:  10    -0.413171362100E+03    0.35263E-05   -0.20933E-06  2587   0.213E-03    0.432E-03
RMM:  11    -0.413171358624E+03    0.34762E-05   -0.13162E-06  2513   0.182E-03    0.217E-03
RMM:  12    -0.413171353927E+03    0.46971E-05   -0.13793E-06  2528   0.182E-03    0.772E-04
RMM:  13    -0.413171352682E+03    0.12447E-05   -0.44277E-07  2283   0.118E-03    0.547E-04
RMM:  14    -0.413171352627E+03    0.55425E-07   -0.20786E-07  1778   0.812E-04
   20 T=    62. E= -.41286667E+03 F= -.41317135E+03 E0= -.41314932E+03  EK= 0.30468E+00 SP= 0.00E+00 SK= 0.00E+00
       N       E                     dE             d eps       ncg     rms          rms(c)
RMM:   1    -0.413166829918E+03    0.45228E-02   -0.10410E+01  4296   0.766E-01    0.889E-01
RMM:   2    -0.413175135408E+03   -0.83055E-02   -0.12933E-01  4276   0.992E-02    0.649E-01
RMM:   3    -0.413172830267E+03    0.23051E-02   -0.95910E-03  4848   0.431E-02    0.134E-01
RMM:   4    -0.413201820915E+03   -0.28991E-01   -0.30147E-02  5134   0.144E-01    0.710E-01
RMM:   5    -0.413172321946E+03    0.29499E-01   -0.14579E-02  4804   0.118E-01    0.435E-02
RMM:   6    -0.413172486381E+03   -0.16444E-03   -0.23428E-03  5789   0.472E-02    0.272E-02
RMM:   7    -0.413172492061E+03   -0.56798E-05   -0.34058E-04  5739   0.167E-02    0.174E-02
RMM:   8    -0.413172487416E+03    0.46455E-05   -0.61603E-05  5026   0.807E-03    0.882E-03
RMM:   9    -0.413172483816E+03    0.35994E-05   -0.12442E-05  3898   0.404E-03    0.637E-03
RMM:  10    -0.413172483359E+03    0.45764E-06   -0.16832E-06  2557   0.200E-03
   21 T=    62. E= -.41286680E+03 F= -.41317248E+03 E0= -.41315049E+03  EK= 0.30568E+00 SP= 0.00E+00 SK= 0.00E+00
       N       E                     dE             d eps       ncg     rms          rms(c)
RMM:   1    -0.413167815505E+03    0.46683E-02   -0.10467E+01  4299   0.754E-01    0.909E-01
RMM:   2    -0.413175861933E+03   -0.80464E-02   -0.12775E-01  4299   0.979E-02    0.649E-01
RMM:   3    -0.413176159643E+03   -0.29771E-03   -0.11527E-02  5070   0.630E-02    0.248E-01
RMM:   4    -0.413211853584E+03   -0.35694E-01   -0.47994E-02  5108   0.183E-01    0.806E-01
RMM:   5    -0.413173395870E+03    0.38458E-01   -0.17035E-02  4747   0.134E-01    0.557E-02
RMM:   6    -0.413173527704E+03   -0.13183E-03   -0.28632E-03  5643   0.533E-02    0.282E-02
RMM:   7    -0.413173537258E+03   -0.95546E-05   -0.41415E-04  5977   0.175E-02    0.185E-02
RMM:   8    -0.413173531230E+03    0.60281E-05   -0.69916E-05  5226   0.874E-03    0.850E-03
RMM:   9    -0.413173524016E+03    0.72141E-05   -0.12256E-05  3725   0.400E-03    0.422E-03
RMM:  10    -0.413173521241E+03    0.27749E-05   -0.26228E-06  2628   0.224E-03    0.295E-03
RMM:  11    -0.413173517884E+03    0.33575E-05   -0.10751E-06  2497   0.168E-03    0.150E-03
RMM:  12    -0.413173513908E+03    0.39754E-05   -0.74214E-07  2464   0.138E-03    0.435E-04
RMM:  13    -0.413173511874E+03    0.20338E-05   -0.34904E-07  2026   0.988E-04    0.288E-04
RMM:  14    -0.413173510692E+03    0.11827E-05   -0.18801E-07  1549   0.773E-04    0.185E-04
RMM:  15    -0.413173507936E+03    0.27562E-05   -0.15398E-07  1329   0.725E-04    0.996E-05
RMM:  16    -0.413173505755E+03    0.21807E-05   -0.11392E-07  1303   0.679E-04    0.117E-04
RMM:  17    -0.413173504035E+03    0.17197E-05   -0.82427E-08  1200   0.632E-04    0.708E-05
RMM:  18    -0.413173501720E+03    0.23154E-05   -0.76024E-08  1198   0.615E-04    0.496E-05
RMM:  19    -0.413173500788E+03    0.93154E-06   -0.34733E-08   861   0.546E-04
   22 T=    62. E= -.41286682E+03 F= -.41317350E+03 E0= -.41315156E+03  EK= 0.30668E+00 SP= 0.00E+00 SK= 0.00E+00
       N       E                     dE             d eps       ncg     rms          rms(c)
RMM:   1    -0.413168456075E+03    0.50456E-02   -0.10444E+01  4295   0.754E-01    0.911E-01
RMM:   2    -0.413176429500E+03   -0.79734E-02   -0.12683E-01  4279   0.100E-01    0.642E-01
RMM:   3    -0.413174692162E+03    0.17373E-02   -0.97975E-03  4870   0.467E-02    0.153E-01
RMM:   4    -0.413209048707E+03   -0.34357E-01   -0.36094E-02  5141   0.157E-01    0.771E-01
RMM:   5    -0.413174036549E+03    0.35012E-01   -0.17229E-02  4793   0.129E-01    0.475E-02
RMM:   6    -0.413174228747E+03   -0.19220E-03   -0.28673E-03  5777   0.518E-02    0.302E-02
RMM:   7    -0.413174228523E+03    0.22438E-06   -0.40075E-04  5743   0.183E-02    0.192E-02
RMM:   8    -0.413174218708E+03    0.98144E-05   -0.71535E-05  5137   0.869E-03    0.100E-02
RMM:   9    -0.413174210701E+03    0.80073E-05   -0.14518E-05  4113   0.434E-03    0.706E-03
RMM:  10    -0.413174205906E+03    0.47947E-05   -0.20045E-06  2576   0.215E-03    0.458E-03
RMM:  11    -0.413174200914E+03    0.49924E-05   -0.14922E-06  2525   0.193E-03    0.225E-03
RMM:  12    -0.413174194540E+03    0.63739E-05   -0.14217E-06  2521   0.186E-03    0.789E-04
RMM:  13    -0.413174193037E+03    0.15032E-05   -0.44189E-07  2284   0.119E-03    0.532E-04
RMM:  14    -0.413174192869E+03    0.16779E-06   -0.21142E-07  1769   0.818E-04
   23 T=    63. E= -.41286664E+03 F= -.41317419E+03 E0= -.41315230E+03  EK= 0.30755E+00 SP= 0.00E+00 SK= 0.00E+00
       N       E                     dE             d eps       ncg     rms          rms(c)
RMM:   1    -0.413173755699E+03    0.43734E-03   -0.10485E+01  4298   0.809E-01    0.891E-01
RMM:   2    -0.413178547566E+03   -0.47919E-02   -0.13357E-01  4285   0.106E-01    0.649E-01
RMM:   3    -0.413176017739E+03    0.25298E-02   -0.93309E-03  4719   0.436E-02    0.134E-01
RMM:   4    -0.413198155585E+03   -0.22138E-01   -0.22741E-02  5143   0.126E-01    0.622E-01
RMM:   5    -0.413175681109E+03    0.22474E-01   -0.11213E-02  4809   0.104E-01    0.407E-02
RMM:   6    -0.413175801463E+03   -0.12035E-03   -0.18459E-03  5810   0.410E-02    0.253E-02
RMM:   7    -0.413175803324E+03   -0.18612E-05   -0.25491E-04  5704   0.153E-02    0.149E-02
RMM:   8    -0.413175798571E+03    0.47533E-05   -0.55408E-05  4965   0.767E-03    0.858E-03
RMM:   9    -0.413175793856E+03    0.47148E-05   -0.11152E-05  3866   0.391E-03    0.637E-03
RMM:  10    -0.413175792375E+03    0.14812E-05   -0.14017E-06  2541   0.197E-03    0.413E-03
RMM:  11    -0.413175789958E+03    0.24167E-05   -0.16648E-06  2536   0.207E-03    0.183E-03
RMM:  12    -0.413175787545E+03    0.24124E-05   -0.93152E-07  2445   0.156E-03    0.619E-04
RMM:  13    -0.413175787170E+03    0.37538E-06   -0.31900E-07  2052   0.971E-04
   24 T=    63. E= -.41286702E+03 F= -.41317579E+03 E0= -.41315394E+03  EK= 0.30877E+00 SP= 0.00E+00 SK= 0.00E+00
       N       E                     dE             d eps       ncg     rms          rms(c)
RMM:   1    -0.413176618670E+03   -0.83112E-03   -0.10592E+01  4296   0.817E-01    0.907E-01
RMM:   2    -0.413179430582E+03   -0.28119E-02   -0.13421E-01  4284   0.107E-01    0.655E-01
RMM:   3    -0.413176923769E+03    0.25068E-02   -0.95052E-03  4644   0.436E-02    0.133E-01
RMM:   4    -0.413193761674E+03   -0.16838E-01   -0.17311E-02  5141   0.110E-01    0.544E-01
RMM:   5    -0.413176672304E+03    0.17089E-01   -0.85187E-03  4816   0.904E-02    0.387E-02
RMM:   6    -0.413176749478E+03   -0.77175E-04   -0.14184E-03  5821   0.353E-02    0.229E-02
RMM:   7    -0.413176750471E+03   -0.99303E-06   -0.17172E-04  5603   0.127E-02    0.109E-02
RMM:   8    -0.413176743268E+03    0.72039E-05   -0.31420E-05  4758   0.580E-03    0.721E-03
RMM:   9    -0.413176742530E+03    0.73782E-06   -0.82149E-06  3518   0.329E-03
   25 T=    63. E= -.41286681E+03 F= -.41317674E+03 E0= -.41315495E+03  EK= 0.30993E+00 SP= 0.00E+00 SK= 0.00E+00
       N       E                     dE             d eps       ncg     rms          rms(c)
RMM:   1    -0.413172501905E+03    0.42414E-02   -0.10550E+01  4300   0.773E-01    0.921E-01
RMM:   2    -0.413180193782E+03   -0.76919E-02   -0.12834E-01  4342   0.104E-01    0.647E-01
RMM:   3    -0.413185455682E+03   -0.52619E-02   -0.15671E-02  5119   0.900E-02    0.385E-01
RMM:   4    -0.413198254551E+03   -0.12799E-01   -0.36867E-02  5056   0.165E-01    0.590E-01
RMM:   5    -0.413178134393E+03    0.20120E-01   -0.72708E-03  4641   0.979E-02    0.536E-02
RMM:   6    -0.413178128986E+03    0.54070E-05   -0.14932E-03  5496   0.374E-02    0.282E-02
RMM:   7    -0.413178122787E+03    0.61985E-05   -0.25953E-04  5914   0.153E-02    0.173E-02
RMM:   8    -0.413178111477E+03    0.11310E-04   -0.56460E-05  5080   0.836E-03    0.716E-03
RMM:   9    -0.413178101161E+03    0.10317E-04   -0.82229E-06  3430   0.372E-03    0.353E-03
RMM:  10    -0.413178097369E+03    0.37913E-05   -0.13331E-06  2517   0.197E-03    0.221E-03
RMM:  11    -0.413178089408E+03    0.79607E-05   -0.11336E-06  2504   0.171E-03    0.142E-03
RMM:  12    -0.413178084426E+03    0.49821E-05   -0.49632E-07  2401   0.123E-03    0.462E-04
RMM:  13    -0.413178080360E+03    0.40660E-05   -0.25304E-07  1813   0.865E-04    0.254E-04
RMM:  14    -0.413178076642E+03    0.37184E-05   -0.15254E-07  1397   0.725E-04    0.158E-04
RMM:  15    -0.413178072205E+03    0.44370E-05   -0.12668E-07  1316   0.692E-04    0.107E-04
RMM:  16    -0.413178068092E+03    0.41130E-05   -0.10919E-07  1333   0.664E-04    0.104E-04
RMM:  17    -0.413178063625E+03    0.44672E-05   -0.10804E-07  1356   0.650E-04    0.483E-05
RMM:  18    -0.413178062309E+03    0.13157E-05   -0.46859E-08   921   0.545E-04    0.406E-05
RMM:  19    -0.413178061745E+03    0.56417E-06   -0.24720E-08   763   0.515E-04
   26 T=    63. E= -.41286680E+03 F= -.41317806E+03 E0= -.41315631E+03  EK= 0.31126E+00 SP= 0.00E+00 SK= 0.00E+00
       N       E                     dE             d eps       ncg     rms          rms(c)
RMM:   1    -0.413173911940E+03    0.41504E-02   -0.10515E+01  4290   0.793E-01    0.897E-01
RMM:   2    -0.413182185247E+03   -0.82733E-02   -0.12982E-01  4280   0.103E-01    0.649E-01
RMM:   3    -0.413180100530E+03    0.20847E-02   -0.96738E-03  4753   0.462E-02    0.136E-01
RMM:   4    -0.413205470036E+03   -0.25370E-01   -0.26044E-02  5150   0.134E-01    0.665E-01
RMM:   5    -0.413179704606E+03    0.25765E-01   -0.12898E-02  4812   0.111E-01    0.423E-02
RMM:   6    -0.413179836004E+03   -0.13140E-03   -0.20812E-03  5827   0.433E-02    0.265E-02
RMM:   7    -0.413179837651E+03   -0.16472E-05   -0.26591E-04  5717   0.156E-02    0.147E-02
RMM:   8    -0.413179833419E+03    0.42316E-05   -0.58706E-05  5012   0.773E-03    0.917E-03
RMM:   9    -0.413179827455E+03    0.59637E-05   -0.12480E-05  4032   0.409E-03    0.659E-03
RMM:  10    -0.413179825161E+03    0.22944E-05   -0.16162E-06  2555   0.206E-03    0.426E-03
RMM:  11    -0.413179821981E+03    0.31797E-05   -0.16101E-06  2526   0.203E-03    0.198E-03
RMM:  12    -0.413179818467E+03    0.35148E-05   -0.10762E-06  2474   0.167E-03    0.660E-04
RMM:  13    -0.413179817788E+03    0.67870E-06   -0.35620E-07  2151   0.105E-03
   27 T=    64. E= -.41286701E+03 F= -.41317982E+03 E0= -.41315812E+03  EK= 0.31281E+00 SP= 0.00E+00 SK= 0.00E+00
       N       E                     dE             d eps       ncg     rms          rms(c)
RMM:   1    -0.413181999332E+03   -0.21809E-02   -0.10701E+01  4291   0.847E-01    0.906E-01
RMM:   2    -0.413183590028E+03   -0.15907E-02   -0.13987E-01  4279   0.110E-01    0.661E-01
RMM:   3    -0.413181070828E+03    0.25192E-02   -0.95562E-03  4481   0.437E-02    0.131E-01
RMM:   4    -0.413190354695E+03   -0.92839E-02   -0.98028E-03  5150   0.837E-02    0.406E-01
RMM:   5    -0.413180974474E+03    0.93802E-02   -0.47211E-03  4824   0.667E-02    0.355E-02
RMM:   6    -0.413180999723E+03   -0.25249E-04   -0.81985E-04  5835   0.266E-02    0.214E-02
RMM:   7    -0.413181002983E+03   -0.32598E-05   -0.18936E-04  5469   0.135E-02    0.147E-02
RMM:   8    -0.413180987629E+03    0.15354E-04   -0.24813E-05  4485   0.601E-03    0.605E-03
RMM:   9    -0.413180986237E+03    0.13913E-05   -0.51523E-06  3038   0.282E-03    0.462E-03
RMM:  10    -0.413180984213E+03    0.20244E-05   -0.12354E-06  2492   0.191E-03    0.267E-03
RMM:  11    -0.413180981517E+03    0.26959E-05   -0.86600E-07  2468   0.157E-03    0.128E-03
RMM:  12    -0.413180978899E+03    0.26180E-05   -0.47378E-07  2264   0.114E-03    0.518E-04
RMM:  13    -0.413180977946E+03    0.95305E-06   -0.21046E-07  1731   0.807E-04
   28 T=    64. E= -.41286668E+03 F= -.41318098E+03 E0= -.41315933E+03  EK= 0.31430E+00 SP= 0.00E+00 SK= 0.00E+00
       N       E                     dE             d eps       ncg     rms          rms(c)
RMM:   1    -0.413177506339E+03    0.34726E-02   -0.10675E+01  4291   0.796E-01    0.929E-01
RMM:   2    -0.413185173641E+03   -0.76673E-02   -0.13080E-01  4276   0.106E-01    0.654E-01
RMM:   3    -0.413183083077E+03    0.20906E-02   -0.10091E-02  4447   0.475E-02    0.133E-01
RMM:   4    -0.413191994769E+03   -0.89117E-02   -0.93214E-03  5153   0.810E-02    0.398E-01
RMM:   5    -0.413183032746E+03    0.89620E-02   -0.45869E-03  4831   0.655E-02    0.371E-02
RMM:   6    -0.413183052852E+03   -0.20106E-04   -0.80815E-04  5824   0.268E-02    0.233E-02
RMM:   7    -0.413183046533E+03    0.63188E-05   -0.20828E-04  5402   0.143E-02    0.150E-02
RMM:   8    -0.413183030112E+03    0.16421E-04   -0.22074E-05  4408   0.589E-03    0.632E-03
RMM:   9    -0.413183026410E+03    0.37019E-05   -0.44448E-06  2945   0.265E-03    0.463E-03
RMM:  10    -0.413183020643E+03    0.57673E-05   -0.12864E-06  2490   0.192E-03    0.255E-03
RMM:  11    -0.413183013945E+03    0.66981E-05   -0.84836E-07  2463   0.157E-03    0.122E-03
RMM:  12    -0.413183008453E+03    0.54919E-05   -0.45414E-07  2252   0.116E-03    0.572E-04
RMM:  13    -0.413183006244E+03    0.22087E-05   -0.21506E-07  1790   0.826E-04    0.271E-04
RMM:  14    -0.413183003013E+03    0.32308E-05   -0.12936E-07  1412   0.704E-04    0.172E-04
RMM:  15    -0.413182997991E+03    0.50223E-05   -0.10566E-07  1333   0.682E-04    0.986E-05
RMM:  16    -0.413182996239E+03    0.17522E-05   -0.52759E-08   995   0.600E-04    0.814E-05
RMM:  17    -0.413182992187E+03    0.40521E-05   -0.69367E-08  1225   0.629E-04    0.423E-05
RMM:  18    -0.413182989900E+03    0.22869E-05   -0.42045E-08  1023   0.571E-04    0.244E-05
RMM:  19    -0.413182989509E+03    0.39105E-06   -0.14849E-08   701   0.512E-04
   29 T=    64. E= -.41286687E+03 F= -.41318299E+03 E0= -.41316139E+03  EK= 0.31612E+00 SP= 0.00E+00 SK= 0.00E+00
       N       E                     dE             d eps       ncg     rms          rms(c)
RMM:   1    -0.413178825811E+03    0.41641E-02   -0.10627E+01  4284   0.805E-01    0.907E-01
RMM:   2    -0.413187418788E+03   -0.85930E-02   -0.13207E-01  4268   0.112E-01    0.652E-01
RMM:   3    -0.413185002416E+03    0.24164E-02   -0.98839E-03  4440   0.497E-02    0.128E-01
RMM:   4    -0.413193712132E+03   -0.87097E-02   -0.91688E-03  5156   0.807E-02    0.394E-01
RMM:   5    -0.413184912872E+03    0.87993E-02   -0.45059E-03  4832   0.648E-02    0.362E-02
RMM:   6    -0.413184932421E+03   -0.19549E-04   -0.77394E-04  5823   0.263E-02    0.230E-02
RMM:   7    -0.413184929210E+03    0.32109E-05   -0.20379E-04  5400   0.141E-02    0.147E-02
RMM:   8    -0.413184914428E+03    0.14782E-04   -0.22248E-05  4439   0.589E-03    0.621E-03
RMM:   9    -0.413184912193E+03    0.22355E-05   -0.41663E-06  2897   0.262E-03    0.448E-03
RMM:  10    -0.413184908658E+03    0.35346E-05   -0.12653E-06  2491   0.186E-03    0.248E-03
RMM:  11    -0.413184904701E+03    0.39573E-05   -0.81116E-07  2461   0.152E-03    0.120E-03
RMM:  12    -0.413184901291E+03    0.34105E-05   -0.45138E-07  2247   0.113E-03    0.573E-04
RMM:  13    -0.413184899811E+03    0.14799E-05   -0.20480E-07  1715   0.809E-04    0.255E-04
RMM:  14    -0.413184897792E+03    0.20185E-05   -0.12141E-07  1305   0.693E-04    0.155E-04
RMM:  15    -0.413184894716E+03    0.30762E-05   -0.92910E-08  1205   0.664E-04    0.756E-05
RMM:  16    -0.413184893538E+03    0.11778E-05   -0.50779E-08   970   0.605E-04    0.646E-05
RMM:  17    -0.413184891241E+03    0.22974E-05   -0.53312E-08  1072   0.610E-04    0.395E-05
RMM:  18    -0.413184889155E+03    0.20858E-05   -0.41938E-08  1004   0.582E-04    0.208E-05
RMM:  19    -0.413184888678E+03    0.47639E-06   -0.17398E-08   723   0.531E-04
   30 T=    65. E= -.41286698E+03 F= -.41318489E+03 E0= -.41316334E+03  EK= 0.31790E+00 SP= 0.00E+00 SK= 0.00E+00
       N       E                     dE             d eps       ncg     rms          rms(c)
RMM:   1    -0.413183357533E+03    0.15316E-02   -0.10780E+01  4291   0.865E-01    0.908E-01
RMM:   2    -0.413189715757E+03   -0.63582E-02   -0.14085E-01  4272   0.122E-01    0.666E-01
RMM:   3    -0.413186523983E+03    0.31918E-02   -0.10003E-02  4387   0.513E-02    0.126E-01
RMM:   4    -0.413192530488E+03   -0.60065E-02   -0.65438E-03  5153   0.685E-02    0.326E-01
RMM:   5    -0.413186539411E+03    0.59911E-02   -0.30360E-03  4827   0.536E-02    0.346E-02
RMM:   6    -0.413186553159E+03   -0.13748E-04   -0.57326E-04  5792   0.230E-02    0.229E-02
RMM:   7    -0.413186548062E+03    0.50978E-05   -0.19114E-04  5309   0.136E-02    0.139E-02
RMM:   8    -0.413186537227E+03    0.10834E-04   -0.16097E-05  4167   0.527E-03    0.593E-03
RMM:   9    -0.413186536092E+03    0.11355E-05   -0.27059E-06  2705   0.226E-03    0.389E-03
RMM:  10    -0.413186534134E+03    0.19579E-05   -0.11838E-06  2486   0.174E-03    0.205E-03
RMM:  11    -0.413186532194E+03    0.19398E-05   -0.70611E-07  2430   0.137E-03    0.957E-04
RMM:  12    -0.413186530461E+03    0.17327E-05   -0.37254E-07  2109   0.102E-03    0.447E-04
RMM:  13    -0.413186529369E+03    0.10921E-05   -0.18141E-07  1518   0.757E-04    0.229E-04
RMM:  14    -0.413186527878E+03    0.14915E-05   -0.11390E-07  1180   0.680E-04    0.140E-04
RMM:  15    -0.413186525642E+03    0.22360E-05   -0.96688E-08  1169   0.666E-04    0.751E-05
RMM:  16    -0.413186524793E+03    0.84916E-06   -0.49649E-08   930   0.595E-04
   31 T=    65. E= -.41286680E+03 F= -.41318652E+03 E0= -.41316503E+03  EK= 0.31973E+00 SP= 0.00E+00 SK= 0.00E+00
       N       E                     dE             d eps       ncg     rms          rms(c)
RMM:   1    -0.413183648897E+03    0.28767E-02   -0.10819E+01  4290   0.836E-01    0.934E-01
RMM:   2    -0.413191659076E+03   -0.80102E-02   -0.13505E-01  4281   0.123E-01    0.662E-01
RMM:   3    -0.413189171792E+03    0.24873E-02   -0.10323E-02  4325   0.528E-02    0.131E-01
RMM:   4    -0.413191935181E+03   -0.27634E-02   -0.34708E-03  5138   0.499E-02    0.222E-01
RMM:   5    -0.413189204170E+03    0.27310E-02   -0.14060E-03  4825   0.370E-02    0.357E-02
RMM:   6    -0.413189207958E+03   -0.37881E-05   -0.38888E-04  5605   0.196E-02    0.257E-02
RMM:   7    -0.413189181041E+03    0.26917E-04   -0.18157E-04  5083   0.133E-02    0.134E-02
RMM:   8    -0.413189174358E+03    0.66834E-05   -0.13851E-05  3863   0.467E-03    0.544E-03
RMM:   9    -0.413189172095E+03    0.22626E-05   -0.19120E-06  2529   0.203E-03    0.327E-03
RMM:  10    -0.413189165239E+03    0.68562E-05   -0.92268E-07  2472   0.158E-03    0.161E-03
RMM:  11    -0.413189160936E+03    0.43026E-05   -0.46708E-07  2256   0.111E-03    0.754E-04
RMM:  12    -0.413189155905E+03    0.50313E-05   -0.28814E-07  1958   0.914E-04    0.274E-04
RMM:  13    -0.413189152948E+03    0.29567E-05   -0.13820E-07  1373   0.709E-04    0.179E-04
RMM:  14    -0.413189148921E+03    0.40271E-05   -0.93372E-08  1146   0.659E-04    0.127E-04
RMM:  15    -0.413189144288E+03    0.46330E-05   -0.85528E-08  1249   0.657E-04    0.797E-05
RMM:  16    -0.413189142348E+03    0.19405E-05   -0.47507E-08   980   0.584E-04    0.646E-05
RMM:  17    -0.413189138920E+03    0.34278E-05   -0.55680E-08  1153   0.599E-04    0.314E-05
RMM:  18    -0.413189138023E+03    0.89640E-06   -0.22579E-08   757   0.519E-04
   32 T=    66. E= -.41286714E+03 F= -.41318914E+03 E0= -.41316769E+03  EK= 0.32200E+00 SP= 0.00E+00 SK= 0.00E+00
       N       E                     dE             d eps       ncg     rms          rms(c)
RMM:   1    -0.413190007651E+03   -0.86873E-03   -0.10838E+01  4287   0.874E-01    0.921E-01
RMM:   2    -0.413193705409E+03   -0.36978E-02   -0.13486E-01  4281   0.127E-01    0.657E-01
RMM:   3    -0.413191002171E+03    0.27032E-02   -0.10125E-02  4240   0.497E-02    0.129E-01
RMM:   4    -0.413191827419E+03   -0.82525E-03   -0.16070E-03  5071   0.335E-02    0.118E-01
RMM:   5    -0.413191106181E+03    0.72124E-03   -0.40154E-04  4764   0.204E-02    0.352E-02
RMM:   6    -0.413191102952E+03    0.32289E-05   -0.23942E-04  5427   0.157E-02    0.255E-02
RMM:   7    -0.413191076424E+03    0.26528E-04   -0.16359E-04  4878   0.120E-02    0.145E-02
RMM:   8    -0.413191071605E+03    0.48194E-05   -0.13442E-05  3723   0.436E-03    0.527E-03
RMM:   9    -0.413191070123E+03    0.14817E-05   -0.23702E-06  2396   0.199E-03    0.240E-03
RMM:  10    -0.413191063322E+03    0.68016E-05   -0.83627E-07  2317   0.145E-03    0.106E-03
RMM:  11    -0.413191059702E+03    0.36193E-05   -0.32964E-07  1928   0.947E-04    0.489E-04
RMM:  12    -0.413191055354E+03    0.43480E-05   -0.20074E-07  1592   0.795E-04    0.212E-04
RMM:  13    -0.413191052169E+03    0.31851E-05   -0.97184E-08  1103   0.659E-04    0.136E-04
RMM:  14    -0.413191047769E+03    0.44008E-05   -0.73288E-08   958   0.632E-04    0.109E-04
RMM:  15    -0.413191043157E+03    0.46115E-05   -0.72106E-08  1120   0.632E-04    0.614E-05
RMM:  16    -0.413191041098E+03    0.20588E-05   -0.37002E-08   812   0.554E-04    0.456E-05
RMM:  17    -0.413191039373E+03    0.17251E-05   -0.20786E-08   645   0.523E-04    0.220E-05
RMM:  18    -0.413191038901E+03    0.47233E-06   -0.11105E-08   521   0.502E-04
   33 T=    66. E= -.41286689E+03 F= -.41319104E+03 E0= -.41316964E+03  EK= 0.32415E+00 SP= 0.00E+00 SK= 0.00E+00
       N       E                     dE             d eps       ncg     rms          rms(c)
RMM:   1    -0.413199310037E+03   -0.82707E-02   -0.11015E+01  4298   0.957E-01    0.913E-01
RMM:   2    -0.413196357543E+03    0.29525E-02   -0.15452E-01  4277   0.136E-01    0.672E-01
RMM:   3    -0.413193509690E+03    0.28479E-02   -0.96958E-03  4235   0.543E-02    0.143E-01
RMM:   4    -0.413194412305E+03   -0.90261E-03   -0.19465E-03  5075   0.363E-02    0.127E-01
RMM:   5    -0.413193565240E+03    0.84706E-03   -0.45658E-04  4746   0.218E-02    0.342E-02
RMM:   6    -0.413193564224E+03    0.10166E-05   -0.23357E-04  5471   0.156E-02    0.243E-02
RMM:   7    -0.413193545777E+03    0.18447E-04   -0.16393E-04  4895   0.121E-02    0.144E-02
RMM:   8    -0.413193540863E+03    0.49137E-05   -0.12563E-05  3555   0.422E-03    0.505E-03
RMM:   9    -0.413193540224E+03    0.63887E-06   -0.20512E-06  2450   0.193E-03
   34 T=    66. E= -.41286692E+03 F= -.41319354E+03 E0= -.41317219E+03  EK= 0.32662E+00 SP= 0.00E+00 SK= 0.00E+00
       N       E                     dE             d eps       ncg     rms          rms(c)
RMM:   1    -0.413191088519E+03    0.24523E-02   -0.10998E+01  4302   0.890E-01    0.938E-01
RMM:   2    -0.413198771237E+03   -0.76827E-02   -0.14114E-01  4270   0.130E-01    0.671E-01
RMM:   3    -0.413196220703E+03    0.25505E-02   -0.10288E-02  4304   0.541E-02    0.133E-01
RMM:   4    -0.413196756897E+03   -0.53619E-03   -0.15224E-03  5095   0.295E-02    0.969E-02
RMM:   5    -0.413196290434E+03    0.46646E-03   -0.30566E-04  4792   0.178E-02    0.381E-02
RMM:   6    -0.413196271866E+03    0.18568E-04   -0.20992E-04  5326   0.148E-02    0.275E-02
RMM:   7    -0.413196246299E+03    0.25567E-04   -0.17643E-04  4740   0.113E-02    0.158E-02
RMM:   8    -0.413196240733E+03    0.55659E-05   -0.12841E-05  3649   0.424E-03    0.587E-03
RMM:   9    -0.413196239251E+03    0.14827E-05   -0.30556E-06  2372   0.191E-03    0.228E-03
RMM:  10    -0.413196228601E+03    0.10650E-04   -0.11264E-06  2275   0.147E-03    0.700E-04
RMM:  11    -0.413196224400E+03    0.42007E-05   -0.32638E-07  1833   0.930E-04    0.313E-04
RMM:  12    -0.413196221041E+03    0.33595E-05   -0.16670E-07  1435   0.747E-04    0.234E-04
RMM:  13    -0.413196215964E+03    0.50770E-05   -0.10011E-07  1013   0.654E-04    0.115E-04
RMM:  14    -0.413196209280E+03    0.66843E-05   -0.10282E-07  1190   0.670E-04    0.152E-04
RMM:  15    -0.413196205310E+03    0.39700E-05   -0.58550E-08   955   0.589E-04    0.118E-04
RMM:  16    -0.413196201782E+03    0.35272E-05   -0.46008E-08   847   0.561E-04    0.434E-05
RMM:  17    -0.413196200732E+03    0.10500E-05   -0.18145E-08   578   0.506E-04    0.375E-05
RMM:  18    -0.413196199697E+03    0.10350E-05   -0.14390E-08   559   0.505E-04    0.191E-05
RMM:  19    -0.413196199390E+03    0.30759E-06   -0.85917E-09   463   0.494E-04
   35 T=    67. E= -.41286704E+03 F= -.41319620E+03 E0= -.41317489E+03  EK= 0.32916E+00 SP= 0.00E+00 SK= 0.00E+00
       N       E                     dE             d eps       ncg     rms          rms(c)
RMM:   1    -0.413193269991E+03    0.29297E-02   -0.11002E+01  4299   0.917E-01    0.938E-01
RMM:   2    -0.413200511606E+03   -0.72416E-02   -0.14164E-01  4258   0.131E-01    0.665E-01
RMM:   3    -0.413198386345E+03    0.21253E-02   -0.10410E-02  4616   0.556E-02    0.151E-01
RMM:   4    -0.413219581380E+03   -0.21195E-01   -0.21462E-02  5163   0.123E-01    0.610E-01
RMM:   5    -0.413198206369E+03    0.21375E-01   -0.10854E-02  4805   0.101E-01    0.433E-02
RMM:   6    -0.413198222473E+03   -0.16104E-04   -0.17755E-03  5838   0.403E-02    0.277E-02
RMM:   7    -0.413198228710E+03   -0.62369E-05   -0.28773E-04  5614   0.161E-02    0.164E-02
RMM:   8    -0.413198213596E+03    0.15113E-04   -0.53032E-05  4986   0.781E-03    0.849E-03
RMM:   9    -0.413198210057E+03    0.35394E-05   -0.11285E-05  3888   0.405E-03    0.597E-03
RMM:  10    -0.413198203910E+03    0.61468E-05   -0.15603E-06  2552   0.214E-03    0.345E-03
RMM:  11    -0.413198199088E+03    0.48227E-05   -0.92002E-07  2490   0.158E-03    0.198E-03
RMM:  12    -0.413198190123E+03    0.89646E-05   -0.10989E-06  2487   0.171E-03    0.961E-04
RMM:  13    -0.413198186384E+03    0.37394E-05   -0.40956E-07  2222   0.113E-03    0.539E-04
RMM:  14    -0.413198185631E+03    0.75228E-06   -0.18186E-07  1630   0.777E-04
   36 T=    67. E= -.41286667E+03 F= -.41319819E+03 E0= -.41317692E+03  EK= 0.33152E+00 SP= 0.00E+00 SK= 0.00E+00
       N       E                     dE             d eps       ncg     rms          rms(c)
RMM:   1    -0.413217288585E+03   -0.19102E-01   -0.11280E+01  4306   0.106E+00    0.920E-01
RMM:   2    -0.413204412953E+03    0.12876E-01   -0.16855E-01  4259   0.140E-01    0.678E-01
RMM:   3    -0.413201467349E+03    0.29456E-02   -0.94237E-03  4630   0.543E-02    0.174E-01
RMM:   4    -0.413224358441E+03   -0.22891E-01   -0.23405E-02  5162   0.129E-01    0.633E-01
RMM:   5    -0.413201240308E+03    0.23118E-01   -0.11722E-02  4805   0.105E-01    0.437E-02
RMM:   6    -0.413201264219E+03   -0.23911E-04   -0.19175E-03  5848   0.414E-02    0.278E-02
RMM:   7    -0.413201273843E+03   -0.96246E-05   -0.29495E-04  5648   0.160E-02    0.161E-02
RMM:   8    -0.413201261086E+03    0.12757E-04   -0.58758E-05  5012   0.812E-03    0.856E-03
RMM:   9    -0.413201258804E+03    0.22824E-05   -0.12924E-05  4054   0.431E-03    0.573E-03
RMM:  10    -0.413201254749E+03    0.40548E-05   -0.17613E-06  2583   0.214E-03    0.347E-03
RMM:  11    -0.413201251521E+03    0.32283E-05   -0.99315E-07  2495   0.161E-03    0.197E-03
RMM:  12    -0.413201245291E+03    0.62296E-05   -0.11564E-06  2496   0.171E-03    0.909E-04
RMM:  13    -0.413201242639E+03    0.26525E-05   -0.42817E-07  2211   0.114E-03    0.540E-04
RMM:  14    -0.413201242108E+03    0.53114E-06   -0.19061E-07  1629   0.782E-04
   37 T=    68. E= -.41286696E+03 F= -.41320124E+03 E0= -.41318002E+03  EK= 0.33428E+00 SP= 0.00E+00 SK= 0.00E+00
       N       E                     dE             d eps       ncg     rms          rms(c)
RMM:   1    -0.413205531467E+03   -0.42888E-02   -0.11257E+01  4308   0.104E+00    0.942E-01
RMM:   2    -0.413206955001E+03   -0.14235E-02   -0.15399E-01  4263   0.132E-01    0.682E-01
RMM:   3    -0.413203895752E+03    0.30592E-02   -0.10406E-02  4727   0.550E-02    0.162E-01
RMM:   4    -0.413234209163E+03   -0.30313E-01   -0.30896E-02  5148   0.147E-01    0.726E-01
RMM:   5    -0.413203534123E+03    0.30675E-01   -0.15597E-02  4802   0.121E-01    0.468E-02
RMM:   6    -0.413203581296E+03   -0.47173E-04   -0.24396E-03  5844   0.469E-02    0.294E-02
RMM:   7    -0.413203590524E+03   -0.92285E-05   -0.33909E-04  5724   0.170E-02    0.166E-02
RMM:   8    -0.413203579002E+03    0.11523E-04   -0.65271E-05  5054   0.839E-03    0.966E-03
RMM:   9    -0.413203575508E+03    0.34934E-05   -0.16591E-05  4351   0.474E-03    0.623E-03
RMM:  10    -0.413203570125E+03    0.53827E-05   -0.23029E-06  2623   0.235E-03    0.376E-03
RMM:  11    -0.413203566318E+03    0.38069E-05   -0.11274E-06  2496   0.172E-03    0.222E-03
RMM:  12    -0.413203558015E+03    0.83032E-05   -0.13441E-06  2504   0.189E-03    0.105E-03
RMM:  13    -0.413203554183E+03    0.38321E-05   -0.50182E-07  2322   0.125E-03    0.683E-04
RMM:  14    -0.413203553929E+03    0.25417E-06   -0.21377E-07  1827   0.826E-04
   38 T=    69. E= -.41286678E+03 F= -.41320355E+03 E0= -.41318237E+03  EK= 0.33677E+00 SP= 0.00E+00 SK= 0.00E+00
       N       E                     dE             d eps       ncg     rms          rms(c)
RMM:   1    -0.413203891381E+03   -0.33720E-03   -0.11245E+01  4305   0.103E+00    0.955E-01
RMM:   2    -0.413209096685E+03   -0.52053E-02   -0.14805E-01  4266   0.124E-01    0.675E-01
RMM:   3    -0.413206811831E+03    0.22849E-02   -0.10948E-02  4934   0.546E-02    0.184E-01
RMM:   4    -0.413251332679E+03   -0.44521E-01   -0.47220E-02  5137   0.181E-01    0.876E-01
RMM:   5    -0.413206024894E+03    0.45308E-01   -0.22617E-02  4793   0.147E-01    0.538E-02
RMM:   6    -0.413206145852E+03   -0.12096E-03   -0.36292E-03  5828   0.565E-02    0.323E-02
RMM:   7    -0.413206152928E+03   -0.70760E-05   -0.41209E-04  5717   0.184E-02    0.170E-02
RMM:   8    -0.413206143022E+03    0.99059E-05   -0.51710E-05  4798   0.696E-03    0.867E-03
RMM:   9    -0.413206134596E+03    0.84258E-05   -0.98274E-06  3243   0.336E-03    0.511E-03
RMM:  10    -0.413206131214E+03    0.33820E-05   -0.23781E-06  2585   0.219E-03    0.377E-03
RMM:  11    -0.413206123826E+03    0.73880E-05   -0.14378E-06  2501   0.204E-03    0.209E-03
RMM:  12    -0.413206113131E+03    0.10695E-04   -0.12672E-06  2489   0.188E-03    0.960E-04
RMM:  13    -0.413206110863E+03    0.22680E-05   -0.44670E-07  2330   0.121E-03    0.618E-04
RMM:  14    -0.413206110063E+03    0.80036E-06   -0.20675E-07  1804   0.818E-04
   39 T=    69. E= -.41286686E+03 F= -.41320611E+03 E0= -.41318497E+03  EK= 0.33925E+00 SP= 0.00E+00 SK= 0.00E+00
       N       E                     dE             d eps       ncg     rms          rms(c)
RMM:   1    -0.413217794684E+03   -0.11684E-01   -0.11364E+01  4310   0.115E+00    0.933E-01
RMM:   2    -0.413212466955E+03    0.53277E-02   -0.15791E-01  4268   0.134E-01    0.680E-01
RMM:   3    -0.413209979499E+03    0.24875E-02   -0.10765E-02  4967   0.582E-02    0.201E-01
RMM:   4    -0.413261222110E+03   -0.51243E-01   -0.55960E-02  5132   0.197E-01    0.938E-01
RMM:   5    -0.413208776357E+03    0.52446E-01   -0.25641E-02  4779   0.158E-01    0.572E-02
RMM:   6    -0.413208950919E+03   -0.17456E-03   -0.43414E-03  5819   0.607E-02    0.327E-02
RMM:   7    -0.413208964881E+03   -0.13962E-04   -0.47568E-04  5793   0.192E-02    0.185E-02
RMM:   8    -0.413208963698E+03    0.11831E-05   -0.87775E-05  5210   0.893E-03    0.118E-02
RMM:   9    -0.413208953926E+03    0.97720E-05   -0.27186E-05  4659   0.558E-03    0.707E-03
RMM:  10    -0.413208949568E+03    0.43585E-05   -0.45768E-06  2839   0.299E-03    0.425E-03
RMM:  11    -0.413208945789E+03    0.37783E-05   -0.17351E-06  2511   0.216E-03    0.254E-03
RMM:  12    -0.413208938305E+03    0.74847E-05   -0.14588E-06  2509   0.203E-03    0.857E-04
RMM:  13    -0.413208934866E+03    0.34388E-05   -0.59200E-07  2399   0.137E-03    0.645E-04
RMM:  14    -0.413208934016E+03    0.84964E-06   -0.25385E-07  2002   0.905E-04
   40 T=    70. E= -.41286714E+03 F= -.41320893E+03 E0= -.41318783E+03  EK= 0.34179E+00 SP= 0.00E+00 SK= 0.00E+00
       N       E                     dE             d eps       ncg     rms          rms(c)
RMM:   1    -0.413235947268E+03   -0.27012E-01   -0.11661E+01  4311   0.126E+00    0.943E-01
RMM:   2    -0.413214486200E+03    0.21461E-01   -0.18803E-01  4272   0.147E-01    0.694E-01
RMM:   3    -0.413212580169E+03    0.19060E-02   -0.10462E-02  5037   0.612E-02    0.259E-01
RMM:   4    -0.413271380673E+03   -0.58801E-01   -0.67318E-02  5128   0.216E-01    0.101E+00
RMM:   5    -0.413210649902E+03    0.60731E-01   -0.29548E-02  4775   0.170E-01    0.624E-02
RMM:   6    -0.413210844262E+03   -0.19436E-03   -0.48112E-03  5809   0.650E-02    0.341E-02
RMM:   7    -0.413210861449E+03   -0.17187E-04   -0.57923E-04  5870   0.210E-02    0.225E-02
RMM:   8    -0.413210861061E+03    0.38788E-06   -0.12852E-04  5293   0.110E-02    0.138E-02
RMM:   9    -0.413210846995E+03    0.14066E-04   -0.27086E-05  4652   0.608E-03    0.600E-03
RMM:  10    -0.413210842870E+03    0.41250E-05   -0.59322E-06  2998   0.301E-03    0.378E-03
RMM:  11    -0.413210839333E+03    0.35369E-05   -0.15200E-06  2504   0.203E-03    0.221E-03
RMM:  12    -0.413210833269E+03    0.60638E-05   -0.10708E-06  2485   0.175E-03    0.725E-04
RMM:  13    -0.413210829809E+03    0.34605E-05   -0.50979E-07  2355   0.124E-03    0.425E-04
RMM:  14    -0.413210828362E+03    0.14469E-05   -0.24792E-07  1929   0.879E-04    0.298E-04
RMM:  15    -0.413210825456E+03    0.29056E-05   -0.14404E-07  1419   0.722E-04    0.131E-04
RMM:  16    -0.413210822273E+03    0.31825E-05   -0.99885E-08  1202   0.670E-04    0.112E-04
RMM:  17    -0.413210820105E+03    0.21685E-05   -0.68519E-08  1136   0.636E-04    0.771E-05
RMM:  18    -0.413210817531E+03    0.25737E-05   -0.56170E-08  1133   0.624E-04    0.509E-05
RMM:  19    -0.413210815342E+03    0.21894E-05   -0.43082E-08  1078   0.600E-04    0.355E-05
RMM:  20    -0.413210814721E+03    0.62104E-06   -0.23459E-08   858   0.553E-04
   41 T=    70. E= -.41286685E+03 F= -.41321081E+03 E0= -.41318974E+03  EK= 0.34396E+00 SP= 0.00E+00 SK= 0.00E+00
       N       E                     dE             d eps       ncg     rms          rms(c)
RMM:   1    -0.413215838399E+03   -0.50231E-02   -0.11471E+01  4310   0.121E+00    0.968E-01
RMM:   2    -0.413216121296E+03   -0.28290E-03   -0.15435E-01  4295   0.138E-01    0.684E-01
RMM:   3    -0.413216999564E+03   -0.87827E-03   -0.13733E-02  5079   0.754E-02    0.301E-01
RMM:   4    -0.413253160403E+03   -0.36161E-01   -0.52378E-02  5090   0.193E-01    0.825E-01
RMM:   5    -0.413213224011E+03    0.39936E-01   -0.17747E-02  4737   0.137E-01    0.584E-02
RMM:   6    -0.413213295324E+03   -0.71313E-04   -0.31032E-03  5761   0.526E-02    0.329E-02
RMM:   7    -0.413213300484E+03   -0.51596E-05   -0.43630E-04  5781   0.188E-02    0.215E-02
RMM:   8    -0.413213295371E+03    0.51123E-05   -0.11528E-04  5193   0.108E-02    0.120E-02
RMM:   9    -0.413213281082E+03    0.14289E-04   -0.19937E-05  4437   0.552E-03    0.491E-03
RMM:  10    -0.413213275835E+03    0.52475E-05   -0.40893E-06  2803   0.261E-03    0.309E-03
RMM:  11    -0.413213270345E+03    0.54895E-05   -0.12085E-06  2492   0.185E-03    0.168E-03
RMM:  12    -0.413213262450E+03    0.78954E-05   -0.74620E-07  2452   0.150E-03    0.640E-04
RMM:  13    -0.413213258105E+03    0.43443E-05   -0.36501E-07  2163   0.105E-03    0.309E-04
RMM:  14    -0.413213255587E+03    0.25180E-05   -0.19302E-07  1625   0.790E-04    0.201E-04
RMM:  15    -0.413213249860E+03    0.57276E-05   -0.13395E-07  1377   0.723E-04    0.137E-04
RMM:  16    -0.413213247357E+03    0.25033E-05   -0.82897E-08  1144   0.652E-04    0.916E-05
RMM:  17    -0.413213244008E+03    0.33481E-05   -0.70877E-08  1218   0.643E-04    0.651E-05
RMM:  18    -0.413213241048E+03    0.29603E-05   -0.54583E-08  1140   0.611E-04    0.372E-05
RMM:  19    -0.413213238923E+03    0.21249E-05   -0.38140E-08  1013   0.579E-04    0.337E-05
RMM:  20    -0.413213238668E+03    0.25483E-06   -0.17975E-08   732   0.536E-04
   42 T=    70. E= -.41286708E+03 F= -.41321324E+03 E0= -.41319220E+03  EK= 0.34616E+00 SP= 0.00E+00 SK= 0.00E+00
       N       E                     dE             d eps       ncg     rms          rms(c)
RMM:   1    -0.413229872914E+03   -0.16634E-01   -0.11542E+01  4312   0.133E+00    0.945E-01
RMM:   2    -0.413218114856E+03    0.11758E-01   -0.16352E-01  4298   0.148E-01    0.684E-01
RMM:   3    -0.413219959549E+03   -0.18447E-02   -0.14154E-02  5087   0.826E-02    0.335E-01
RMM:   4    -0.413252704938E+03   -0.32745E-01   -0.52197E-02  5081   0.193E-01    0.801E-01
RMM:   5    -0.413215133436E+03    0.37572E-01   -0.16264E-02  4715   0.134E-01    0.584E-02
RMM:   6    -0.413215184108E+03   -0.50672E-04   -0.28949E-03  5736   0.509E-02    0.322E-02
RMM:   7    -0.413215187559E+03   -0.34516E-05   -0.41256E-04  5786   0.184E-02    0.216E-02
RMM:   8    -0.413215183051E+03    0.45085E-05   -0.11102E-04  5175   0.107E-02    0.113E-02
RMM:   9    -0.413215170811E+03    0.12240E-04   -0.19526E-05  4415   0.548E-03    0.445E-03
RMM:  10    -0.413215167326E+03    0.34845E-05   -0.37993E-06  2758   0.251E-03    0.277E-03
RMM:  11    -0.413215162985E+03    0.43415E-05   -0.12520E-06  2493   0.184E-03    0.150E-03
RMM:  12    -0.413215157685E+03    0.52997E-05   -0.68784E-07  2434   0.142E-03    0.608E-04
RMM:  13    -0.413215154621E+03    0.30636E-05   -0.34065E-07  2023   0.994E-04    0.275E-04
RMM:  14    -0.413215152179E+03    0.24426E-05   -0.18910E-07  1509   0.776E-04    0.165E-04
RMM:  15    -0.413215147726E+03    0.44526E-05   -0.14108E-07  1302   0.721E-04    0.112E-04
RMM:  16    -0.413215145933E+03    0.17936E-05   -0.88073E-08  1142   0.659E-04    0.798E-05
RMM:  17    -0.413215142651E+03    0.32820E-05   -0.79502E-08  1261   0.660E-04    0.559E-05
RMM:  18    -0.413215140564E+03    0.20863E-05   -0.56488E-08  1117   0.609E-04    0.402E-05
RMM:  19    -0.413215139282E+03    0.12821E-05   -0.33018E-08   889   0.564E-04    0.217E-05
RMM:  20    -0.413215138813E+03    0.46952E-06   -0.20163E-08   755   0.542E-04
   43 T=    71. E= -.41286719E+03 F= -.41321514E+03 E0= -.41319413E+03  EK= 0.34795E+00 SP= 0.00E+00 SK= 0.00E+00
       N       E                     dE             d eps       ncg     rms          rms(c)
RMM:   1    -0.413236567637E+03   -0.21428E-01   -0.11708E+01  4312   0.140E+00    0.946E-01
RMM:   2    -0.413219488760E+03    0.17079E-01   -0.18089E-01  4300   0.167E-01    0.700E-01
RMM:   3    -0.413222141689E+03   -0.26529E-02   -0.14865E-02  5077   0.905E-02    0.374E-01
RMM:   4    -0.413253688153E+03   -0.31546E-01   -0.54401E-02  5064   0.198E-01    0.802E-01
RMM:   5    -0.413216177795E+03    0.37510E-01   -0.16073E-02  4714   0.134E-01    0.600E-02
RMM:   6    -0.413216210340E+03   -0.32545E-04   -0.27936E-03  5716   0.504E-02    0.320E-02
RMM:   7    -0.413216211859E+03   -0.15190E-05   -0.39625E-04  5820   0.182E-02    0.219E-02
RMM:   8    -0.413216208044E+03    0.38155E-05   -0.10643E-04  5173   0.105E-02    0.110E-02
RMM:   9    -0.413216197708E+03    0.10336E-04   -0.20448E-05  4426   0.558E-03    0.420E-03
RMM:  10    -0.413216195456E+03    0.22517E-05   -0.38168E-06  2767   0.247E-03    0.255E-03
RMM:  11    -0.413216192229E+03    0.32277E-05   -0.14154E-06  2514   0.187E-03    0.142E-03
RMM:  12    -0.413216188844E+03    0.33852E-05   -0.64380E-07  2437   0.138E-03    0.617E-04
RMM:  13    -0.413216186589E+03    0.22542E-05   -0.32378E-07  1872   0.946E-04    0.273E-04
RMM:  14    -0.413216184377E+03    0.22126E-05   -0.19702E-07  1480   0.773E-04    0.155E-04
RMM:  15    -0.413216181268E+03    0.31082E-05   -0.14920E-07  1311   0.717E-04    0.982E-05
RMM:  16    -0.413216179552E+03    0.17165E-05   -0.93836E-08  1138   0.658E-04    0.739E-05
RMM:  17    -0.413216176808E+03    0.27438E-05   -0.85963E-08  1252   0.659E-04    0.472E-05
RMM:  18    -0.413216175135E+03    0.16730E-05   -0.55328E-08  1068   0.603E-04    0.415E-05
RMM:  19    -0.413216174142E+03    0.99345E-06   -0.33001E-08   870   0.562E-04
   44 T=    71. E= -.41286697E+03 F= -.41321617E+03 E0= -.41319519E+03  EK= 0.34920E+00 SP= 0.00E+00 SK= 0.00E+00
       N       E                     dE             d eps       ncg     rms          rms(c)
RMM:   1    -0.413232417271E+03   -0.16242E-01   -0.11654E+01  4311   0.146E+00    0.973E-01
RMM:   2    -0.413220047984E+03    0.12369E-01   -0.16835E-01  4332   0.170E-01    0.693E-01
RMM:   3    -0.413227919296E+03   -0.78713E-02   -0.19659E-02  5123   0.109E-01    0.467E-01
RMM:   4    -0.413239065341E+03   -0.11146E-01   -0.43052E-02  5035   0.179E-01    0.618E-01
RMM:   5    -0.413217467338E+03    0.21598E-01   -0.81326E-03  4619   0.105E-01    0.551E-02
RMM:   6    -0.413217436924E+03    0.30414E-04   -0.16280E-03  5534   0.391E-02    0.305E-02
RMM:   7    -0.413217433013E+03    0.39114E-05   -0.26894E-04  5628   0.159E-02    0.205E-02
RMM:   8    -0.413217423527E+03    0.94853E-05   -0.10818E-04  5083   0.107E-02    0.976E-03
RMM:   9    -0.413217410011E+03    0.13516E-04   -0.15162E-05  4246   0.527E-03    0.393E-03
RMM:  10    -0.413217406238E+03    0.37733E-05   -0.24883E-06  2666   0.220E-03    0.228E-03
RMM:  11    -0.413217399742E+03    0.64962E-05   -0.11366E-06  2478   0.175E-03    0.126E-03
RMM:  12    -0.413217393849E+03    0.58931E-05   -0.54298E-07  2396   0.129E-03    0.611E-04
RMM:  13    -0.413217390172E+03    0.36770E-05   -0.25389E-07  1790   0.877E-04    0.294E-04
RMM:  14    -0.413217386531E+03    0.36410E-05   -0.14272E-07  1327   0.706E-04    0.154E-04
RMM:  15    -0.413217381366E+03    0.51649E-05   -0.11557E-07  1268   0.688E-04    0.121E-04
RMM:  16    -0.413217378667E+03    0.26987E-05   -0.74698E-08  1136   0.632E-04    0.106E-04
RMM:  17    -0.413217374503E+03    0.41642E-05   -0.66520E-08  1197   0.629E-04    0.606E-05
RMM:  18    -0.413217371501E+03    0.30022E-05   -0.51559E-08  1126   0.589E-04    0.507E-05
RMM:  19    -0.413217370797E+03    0.70382E-06   -0.23547E-08   779   0.521E-04
   45 T=    71. E= -.41286723E+03 F= -.41321737E+03 E0= -.41319641E+03  EK= 0.35014E+00 SP= 0.00E+00 SK= 0.00E+00
       N       E                     dE             d eps       ncg     rms          rms(c)
RMM:   1    -0.413253112268E+03   -0.35741E-01   -0.11751E+01  4311   0.162E+00    0.955E-01
RMM:   2    -0.413219688652E+03    0.33424E-01   -0.17818E-01  4356   0.184E-01    0.689E-01
RMM:   3    -0.413230248349E+03   -0.10560E-01   -0.21477E-02  5127   0.120E-01    0.523E-01
RMM:   4    -0.413234846104E+03   -0.45978E-02   -0.41555E-02  5016   0.178E-01    0.567E-01
RMM:   5    -0.413217064003E+03    0.17782E-01   -0.66047E-03  4583   0.982E-02    0.548E-02
RMM:   6    -0.413217012576E+03    0.51427E-04   -0.12931E-03  5379   0.355E-02    0.295E-02
RMM:   7    -0.413217007676E+03    0.48998E-05   -0.21756E-04  5595   0.145E-02    0.196E-02
RMM:   8    -0.413216999379E+03    0.82970E-05   -0.11732E-04  5092   0.110E-02    0.101E-02
RMM:   9    -0.413216985160E+03    0.14219E-04   -0.16344E-05  4331   0.552E-03    0.397E-03
RMM:  10    -0.413216982171E+03    0.29885E-05   -0.27046E-06  2688   0.221E-03    0.227E-03
RMM:  11    -0.413216976215E+03    0.59559E-05   -0.12812E-06  2489   0.182E-03    0.126E-03
RMM:  12    -0.413216971665E+03    0.45501E-05   -0.55783E-07  2406   0.132E-03    0.689E-04
RMM:  13    -0.413216968052E+03    0.36131E-05   -0.25959E-07  1769   0.895E-04    0.334E-04
RMM:  14    -0.413216964489E+03    0.35636E-05   -0.14099E-07  1347   0.707E-04    0.173E-04
RMM:  15    -0.413216960455E+03    0.40333E-05   -0.10166E-07  1173   0.663E-04    0.117E-04
RMM:  16    -0.413216957816E+03    0.26392E-05   -0.69927E-08  1097   0.622E-04    0.110E-04
RMM:  17    -0.413216954600E+03    0.32164E-05   -0.62871E-08  1165   0.615E-04    0.628E-05
RMM:  18    -0.413216951425E+03    0.31752E-05   -0.48975E-08  1069   0.588E-04    0.509E-05
RMM:  19    -0.413216950799E+03    0.62520E-06   -0.19650E-08   717   0.518E-04
   46 T=    71. E= -.41286695E+03 F= -.41321695E+03 E0= -.41319601E+03  EK= 0.35000E+00 SP= 0.00E+00 SK= 0.00E+00
       N       E                     dE             d eps       ncg     rms          rms(c)
RMM:   1    -0.413235437736E+03   -0.18486E-01   -0.11591E+01  4311   0.164E+00    0.942E-01
RMM:   2    -0.413219013011E+03    0.16425E-01   -0.18379E-01  4372   0.196E-01    0.701E-01
RMM:   3    -0.413230554596E+03   -0.11542E-01   -0.22573E-02  5123   0.127E-01    0.550E-01
RMM:   4    -0.413234295899E+03   -0.37413E-02   -0.44177E-02  5007   0.184E-01    0.577E-01
RMM:   5    -0.413215791168E+03    0.18505E-01   -0.68662E-03  4577   0.101E-01    0.564E-02
RMM:   6    -0.413215724278E+03    0.66890E-04   -0.12873E-03  5336   0.360E-02    0.295E-02
RMM:   7    -0.413215718732E+03    0.55463E-05   -0.21632E-04  5638   0.144E-02    0.200E-02
RMM:   8    -0.413215711687E+03    0.70443E-05   -0.12151E-04  5139   0.112E-02    0.104E-02
RMM:   9    -0.413215698416E+03    0.13272E-04   -0.17776E-05  4381   0.573E-03    0.401E-03
RMM:  10    -0.413215696468E+03    0.19475E-05   -0.29960E-06  2715   0.226E-03    0.231E-03
RMM:  11    -0.413215692519E+03    0.39495E-05   -0.14051E-06  2503   0.188E-03    0.131E-03
RMM:  12    -0.413215689579E+03    0.29401E-05   -0.59109E-07  2423   0.135E-03    0.719E-04
RMM:  13    -0.413215686873E+03    0.27057E-05   -0.28802E-07  1791   0.929E-04    0.349E-04
RMM:  14    -0.413215684324E+03    0.25490E-05   -0.16088E-07  1395   0.734E-04    0.182E-04
RMM:  15    -0.413215681539E+03    0.27850E-05   -0.11387E-07  1192   0.674E-04    0.111E-04
RMM:  16    -0.413215679493E+03    0.20462E-05   -0.80581E-08  1111   0.629E-04    0.101E-04
RMM:  17    -0.413215677276E+03    0.22163E-05   -0.65667E-08  1107   0.609E-04    0.559E-05
RMM:  18    -0.413215674934E+03    0.23428E-05   -0.52762E-08  1015   0.588E-04    0.398E-05
RMM:  19    -0.413215674391E+03    0.54309E-06   -0.21623E-08   713   0.525E-04
   47 T=    71. E= -.41286685E+03 F= -.41321567E+03 E0= -.41319474E+03  EK= 0.34882E+00 SP= 0.00E+00 SK= 0.00E+00
       N       E                     dE             d eps       ncg     rms          rms(c)
RMM:   1    -0.413249251528E+03   -0.33577E-01   -0.11664E+01  4306   0.179E+00    0.964E-01
RMM:   2    -0.413216104933E+03    0.33147E-01   -0.18682E-01  4430   0.204E-01    0.696E-01
RMM:   3    -0.413235824714E+03   -0.19720E-01   -0.29544E-02  5147   0.148E-01    0.666E-01
RMM:   4    -0.413224300017E+03    0.11525E-01   -0.40567E-02  4964   0.180E-01    0.460E-01
RMM:   5    -0.413213449076E+03    0.10851E-01   -0.46185E-03  4525   0.899E-02    0.581E-02
RMM:   6    -0.413213316851E+03    0.13223E-03   -0.57680E-04  4806   0.291E-02    0.297E-02
RMM:   7    -0.413213309627E+03    0.72232E-05   -0.20595E-04  5912   0.145E-02    0.166E-02
RMM:   8    -0.413213297989E+03    0.11639E-04   -0.10108E-04  5177   0.110E-02    0.114E-02
RMM:   9    -0.413213287449E+03    0.10539E-04   -0.16943E-05  4370   0.534E-03    0.459E-03
RMM:  10    -0.413213283789E+03    0.36600E-05   -0.26974E-06  2641   0.255E-03    0.231E-03
RMM:  11    -0.413213278297E+03    0.54918E-05   -0.19107E-06  2529   0.216E-03    0.160E-03
RMM:  12    -0.413213274301E+03    0.39963E-05   -0.67573E-07  2399   0.149E-03    0.910E-04
RMM:  13    -0.413213270445E+03    0.38559E-05   -0.31405E-07  1999   0.985E-04    0.516E-04
RMM:  14    -0.413213264625E+03    0.58204E-05   -0.23994E-07  1959   0.864E-04    0.459E-04
RMM:  15    -0.413213261085E+03    0.35398E-05   -0.10445E-07  1071   0.617E-04    0.184E-04
RMM:  16    -0.413213258574E+03    0.25115E-05   -0.73956E-08  1030   0.598E-04    0.978E-05
RMM:  17    -0.413213255466E+03    0.31075E-05   -0.66099E-08  1080   0.602E-04    0.701E-05
RMM:  18    -0.413213253627E+03    0.18391E-05   -0.40644E-08   905   0.564E-04    0.699E-05
RMM:  19    -0.413213252244E+03    0.13834E-05   -0.25920E-08   810   0.543E-04    0.513E-05
RMM:  20    -0.413213250924E+03    0.13200E-05   -0.24175E-08   818   0.533E-04    0.287E-05
RMM:  21    -0.413213250504E+03    0.41946E-06   -0.11692E-08   627   0.496E-04
   48 T=    70. E= -.41286707E+03 F= -.41321325E+03 E0= -.41319233E+03  EK= 0.34618E+00 SP= 0.00E+00 SK= 0.00E+00
       N       E                     dE             d eps       ncg     rms          rms(c)
RMM:   1    -0.413248953569E+03   -0.35703E-01   -0.11472E+01  4306   0.190E+00    0.954E-01
RMM:   2    -0.413210870289E+03    0.38083E-01   -0.18454E-01  4498   0.214E-01    0.685E-01
RMM:   3    -0.413238476026E+03   -0.27606E-01   -0.36244E-02  5154   0.167E-01    0.761E-01
RMM:   4    -0.413215408474E+03    0.23068E-01   -0.40030E-02  4943   0.182E-01    0.387E-01
RMM:   5    -0.413208413874E+03    0.69946E-02   -0.46052E-03  4716   0.901E-02    0.682E-02
RMM:   6    -0.413208190826E+03    0.22305E-03   -0.48094E-04  4646   0.307E-02    0.333E-02
RMM:   7    -0.413208193230E+03   -0.24042E-05   -0.24320E-04  5751   0.168E-02    0.241E-02
RMM:   8    -0.413208162047E+03    0.31183E-04   -0.81734E-05  4977   0.103E-02    0.931E-03
RMM:   9    -0.413208153725E+03    0.83226E-05   -0.16616E-05  4330   0.511E-03    0.426E-03
RMM:  10    -0.413208149023E+03    0.47017E-05   -0.22241E-06  2620   0.233E-03    0.254E-03
RMM:  11    -0.413208142415E+03    0.66081E-05   -0.90418E-07  2490   0.163E-03    0.150E-03
RMM:  12    -0.413208138643E+03    0.37722E-05   -0.35265E-07  2263   0.106E-03    0.760E-04
RMM:  13    -0.413208133024E+03    0.56189E-05   -0.34151E-07  2163   0.947E-04    0.453E-04
RMM:  14    -0.413208129176E+03    0.38479E-05   -0.16166E-07  1317   0.717E-04    0.284E-04
RMM:  15    -0.413208124316E+03    0.48599E-05   -0.13462E-07  1241   0.693E-04    0.127E-04
RMM:  16    -0.413208121428E+03    0.28879E-05   -0.89025E-08  1218   0.645E-04    0.986E-05
RMM:  17    -0.413208117660E+03    0.37676E-05   -0.81446E-08  1275   0.628E-04    0.794E-05
RMM:  18    -0.413208116405E+03    0.12551E-05   -0.41384E-08   970   0.543E-04    0.590E-05
RMM:  19    -0.413208115090E+03    0.13150E-05   -0.31002E-08   892   0.524E-04    0.260E-05
RMM:  20    -0.413208114139E+03    0.95174E-06   -0.23500E-08   825   0.510E-04
   49 T=    69. E= -.41286676E+03 F= -.41320811E+03 E0= -.41318720E+03  EK= 0.34135E+00 SP= 0.00E+00 SK= 0.00E+00
       N       E                     dE             d eps       ncg     rms          rms(c)
RMM:   1    -0.413225662049E+03   -0.17547E-01   -0.11086E+01  4306   0.192E+00    0.923E-01
RMM:   2    -0.413205039097E+03    0.20623E-01   -0.18199E-01  4526   0.222E-01    0.688E-01
RMM:   3    -0.413233524498E+03   -0.28485E-01   -0.37097E-02  5159   0.171E-01    0.780E-01
RMM:   4    -0.413208988071E+03    0.24536E-01   -0.41345E-02  4938   0.186E-01    0.384E-01
RMM:   5    -0.413201984956E+03    0.70031E-02   -0.50924E-03  4797   0.942E-02    0.731E-02
RMM:   6    -0.413201707852E+03    0.27710E-03   -0.52236E-04  4626   0.325E-02    0.341E-02
RMM:   7    -0.413201706399E+03    0.14530E-05   -0.23702E-04  5734   0.167E-02    0.239E-02
RMM:   8    -0.413201678132E+03    0.28267E-04   -0.79542E-05  5018   0.994E-03    0.991E-03
RMM:   9    -0.413201670950E+03    0.71825E-05   -0.16552E-05  4276   0.513E-03    0.416E-03
RMM:  10    -0.413201667151E+03    0.37990E-05   -0.25049E-06  2640   0.235E-03    0.259E-03
[...]
       N       E                     dE             d eps       ncg     rms          rms(c)
RMM:   1    -0.413151763464E+03    0.75703E-02   -0.10173E+01  4264   0.857E-01    0.851E-01
RMM:   2    -0.413161347022E+03   -0.95836E-02   -0.12066E-01  4316   0.101E-01    0.608E-01
RMM:   3    -0.413160211580E+03    0.11354E-02   -0.69495E-03  4991   0.447E-02    0.162E-01
RMM:   4    -0.413195516512E+03   -0.35305E-01   -0.37491E-02  5148   0.161E-01    0.782E-01
RMM:   5    -0.413159639129E+03    0.35877E-01   -0.17641E-02  4803   0.132E-01    0.491E-02
RMM:   6    -0.413159683006E+03   -0.43877E-04   -0.28704E-03  5738   0.510E-02    0.193E-02
RMM:   7    -0.413159716339E+03   -0.33333E-04   -0.35608E-04  5992   0.156E-02    0.140E-02
RMM:   8    -0.413159726229E+03   -0.98893E-05   -0.53526E-05  5077   0.694E-03    0.790E-03
RMM:   9    -0.413159732779E+03   -0.65504E-05   -0.87011E-06  3160   0.329E-03    0.355E-03
RMM:  10    -0.413159739282E+03   -0.65032E-05   -0.23475E-06  2569   0.205E-03    0.225E-03
RMM:  11    -0.413159746184E+03   -0.69016E-05   -0.10732E-06  2484   0.156E-03    0.115E-03
RMM:  12    -0.413159751470E+03   -0.52860E-05   -0.62868E-07  2311   0.121E-03    0.380E-04
RMM:  13    -0.413159754243E+03   -0.27735E-05   -0.33417E-07  1921   0.926E-04    0.254E-04
RMM:  14    -0.413159757186E+03   -0.29429E-05   -0.25004E-07  1564   0.811E-04    0.147E-04
RMM:  15    -0.413159760100E+03   -0.29138E-05   -0.22373E-07  1605   0.774E-04    0.107E-04
RMM:  16    -0.413159761075E+03   -0.97492E-06   -0.11654E-07  1248   0.650E-04
  139 T=    60. E= -.41286721E+03 F= -.41315976E+03 E0= -.41313903E+03  EK= 0.29255E+00 SP= 0.00E+00 SK= 0.00E+00
       N       E                     dE             d eps       ncg     rms          rms(c)
RMM:   1    -0.413151900704E+03    0.78594E-02   -0.10193E+01  4264   0.867E-01    0.856E-01
RMM:   2    -0.413161343001E+03   -0.94423E-02   -0.12221E-01  4312   0.103E-01    0.618E-01
RMM:   3    -0.413159801029E+03    0.15420E-02   -0.71653E-03  4944   0.434E-02    0.148E-01
RMM:   4    -0.413190670413E+03   -0.30869E-01   -0.32302E-02  5148   0.150E-01    0.732E-01
RMM:   5    -0.413159385121E+03    0.31285E-01   -0.15479E-02  4809   0.123E-01    0.461E-02
RMM:   6    -0.413159422534E+03   -0.37413E-04   -0.25243E-03  5729   0.477E-02    0.195E-02
RMM:   7    -0.413159454705E+03   -0.32171E-04   -0.31805E-04  5948   0.148E-02    0.136E-02
RMM:   8    -0.413159466643E+03   -0.11938E-04   -0.49463E-05  5032   0.685E-03    0.746E-03
RMM:   9    -0.413159474043E+03   -0.73993E-05   -0.80646E-06  3148   0.320E-03    0.342E-03
RMM:  10    -0.413159481873E+03   -0.78306E-05   -0.22295E-06  2567   0.202E-03    0.223E-03
RMM:  11    -0.413159490082E+03   -0.82090E-05   -0.10659E-06  2479   0.155E-03    0.114E-03
RMM:  12    -0.413159496576E+03   -0.64933E-05   -0.64852E-07  2307   0.121E-03    0.375E-04
RMM:  13    -0.413159499789E+03   -0.32133E-05   -0.33530E-07  1901   0.917E-04    0.261E-04
RMM:  14    -0.413159503357E+03   -0.35682E-05   -0.26266E-07  1525   0.808E-04    0.142E-04
RMM:  15    -0.413159506352E+03   -0.29949E-05   -0.21144E-07  1553   0.761E-04    0.105E-04
RMM:  16    -0.413159507725E+03   -0.13732E-05   -0.13374E-07  1309   0.668E-04    0.688E-05
RMM:  17    -0.413159509270E+03   -0.15447E-05   -0.11397E-07  1293   0.644E-04    0.395E-05
RMM:  18    -0.413159509624E+03   -0.35386E-06   -0.57936E-08   995   0.561E-04
  140 T=    60. E= -.41286689E+03 F= -.41315951E+03 E0= -.41313879E+03  EK= 0.29262E+00 SP= 0.00E+00 SK= 0.00E+00
       N       E                     dE             d eps       ncg     rms          rms(c)
RMM:   1    -0.413152732134E+03    0.67771E-02   -0.10142E+01  4264   0.860E-01    0.877E-01
RMM:   2    -0.413161154340E+03   -0.84222E-02   -0.11857E-01  4310   0.101E-01    0.610E-01
RMM:   3    -0.413159913789E+03    0.12406E-02   -0.74860E-03  4955   0.399E-02    0.146E-01
RMM:   4    -0.413183993785E+03   -0.24080E-01   -0.24866E-02  5155   0.132E-01    0.648E-01
RMM:   5    -0.413159713432E+03    0.24280E-01   -0.12097E-02  4813   0.108E-01    0.446E-02
RMM:   6    -0.413159729947E+03   -0.16514E-04   -0.20226E-03  5719   0.428E-02    0.221E-02
RMM:   7    -0.413159751974E+03   -0.22028E-04   -0.26958E-04  5902   0.139E-02    0.137E-02
RMM:   8    -0.413159757502E+03   -0.55276E-05   -0.47127E-05  5030   0.691E-03    0.709E-03
RMM:   9    -0.413159758966E+03   -0.14644E-05   -0.66561E-06  3060   0.304E-03    0.338E-03
RMM:  10    -0.413159762080E+03   -0.31139E-05   -0.20185E-06  2557   0.197E-03    0.223E-03
RMM:  11    -0.413159765264E+03   -0.31842E-05   -0.99904E-07  2474   0.153E-03    0.109E-03
RMM:  12    -0.413159767723E+03   -0.24590E-05   -0.60179E-07  2306   0.120E-03    0.376E-04
RMM:  13    -0.413159768951E+03   -0.12277E-05   -0.30074E-07  1836   0.893E-04    0.260E-04
RMM:  14    -0.413159770298E+03   -0.13467E-05   -0.20919E-07  1428   0.772E-04    0.133E-04
RMM:  15    -0.413159771513E+03   -0.12154E-05   -0.16937E-07  1440   0.732E-04    0.859E-05
RMM:  16    -0.413159772446E+03   -0.93256E-06   -0.12998E-07  1412   0.680E-04
  141 T=    60. E= -.41286709E+03 F= -.41315977E+03 E0= -.41313906E+03  EK= 0.29268E+00 SP= 0.00E+00 SK= 0.00E+00
       N       E                     dE             d eps       ncg     rms          rms(c)
RMM:   1    -0.413152578360E+03    0.71932E-02   -0.99899E+00  4264   0.858E-01    0.855E-01
RMM:   2    -0.413161621739E+03   -0.90434E-02   -0.11791E-01  4314   0.101E-01    0.606E-01
RMM:   3    -0.413159845844E+03    0.17759E-02   -0.72275E-03  4849   0.398E-02    0.132E-01
RMM:   4    -0.413174278654E+03   -0.14433E-01   -0.14922E-02  5157   0.102E-01    0.504E-01
RMM:   5    -0.413159759343E+03    0.14519E-01   -0.73828E-03  4833   0.841E-02    0.382E-02
RMM:   6    -0.413159754541E+03    0.48027E-05   -0.12070E-03  5696   0.339E-02    0.212E-02
RMM:   7    -0.413159772407E+03   -0.17866E-04   -0.17964E-04  5760   0.118E-02    0.119E-02
RMM:   8    -0.413159780600E+03   -0.81937E-05   -0.38285E-05  4924   0.647E-03    0.597E-03
RMM:   9    -0.413159783347E+03   -0.27467E-05   -0.42841E-06  2866   0.263E-03    0.299E-03
RMM:  10    -0.413159788268E+03   -0.49205E-05   -0.14473E-06  2523   0.179E-03    0.194E-03
RMM:  11    -0.413159793537E+03   -0.52695E-05   -0.90174E-07  2466   0.143E-03    0.935E-04
RMM:  12    -0.413159797491E+03   -0.39535E-05   -0.51568E-07  2140   0.109E-03    0.346E-04
RMM:  13    -0.413159799500E+03   -0.20089E-05   -0.25841E-07  1673   0.836E-04    0.228E-04
RMM:  14    -0.413159801842E+03   -0.23425E-05   -0.21676E-07  1467   0.766E-04    0.130E-04
RMM:  15    -0.413159803378E+03   -0.15363E-05   -0.15061E-07  1354   0.694E-04    0.839E-05
RMM:  16    -0.413159805048E+03   -0.16701E-05   -0.14904E-07  1379   0.684E-04    0.601E-05
RMM:  17    -0.413159805692E+03   -0.64307E-06   -0.77502E-08  1064   0.590E-04
  142 T=    60. E= -.41286703E+03 F= -.41315981E+03 E0= -.41313911E+03  EK= 0.29278E+00 SP= 0.00E+00 SK= 0.00E+00
       N       E                     dE             d eps       ncg     rms          rms(c)
RMM:   1    -0.413152780646E+03    0.70244E-02   -0.99854E+00  4264   0.859E-01    0.851E-01
RMM:   2    -0.413162090499E+03   -0.93099E-02   -0.11952E-01  4315   0.101E-01    0.618E-01
RMM:   3    -0.413159846934E+03    0.22436E-02   -0.75382E-03  4739   0.386E-02    0.115E-01
RMM:   4    -0.413164686167E+03   -0.48392E-02   -0.54388E-03  5168   0.623E-02    0.294E-01
RMM:   5    -0.413159850755E+03    0.48354E-02   -0.25041E-03  4842   0.495E-02    0.324E-02
RMM:   6    -0.413159836932E+03    0.13823E-04   -0.46505E-04  5584   0.220E-02    0.202E-02
RMM:   7    -0.413159859776E+03   -0.22844E-04   -0.10703E-04  5556   0.944E-03    0.103E-02
RMM:   8    -0.413159868652E+03   -0.88761E-05   -0.28053E-05  4743   0.582E-03    0.504E-03
RMM:   9    -0.413159871776E+03   -0.31240E-05   -0.19508E-06  2638   0.200E-03    0.268E-03
RMM:  10    -0.413159878971E+03   -0.71947E-05   -0.83967E-07  2486   0.139E-03    0.149E-03
RMM:  11    -0.413159888653E+03   -0.96818E-05   -0.83049E-07  2352   0.126E-03    0.732E-04
RMM:  12    -0.413159893112E+03   -0.44590E-05   -0.36165E-07  1993   0.930E-04    0.312E-04
RMM:  13    -0.413159896176E+03   -0.30640E-05   -0.20523E-07  1336   0.751E-04    0.188E-04
RMM:  14    -0.413159900369E+03   -0.41929E-05   -0.25114E-07  1562   0.777E-04    0.161E-04
RMM:  15    -0.413159902159E+03   -0.17902E-05   -0.13036E-07  1302   0.655E-04    0.126E-04
RMM:  16    -0.413159904446E+03   -0.22866E-05   -0.15700E-07  1333   0.665E-04    0.449E-05
RMM:  17    -0.413159905033E+03   -0.58725E-06   -0.64765E-08   966   0.547E-04
  143 T=    60. E= -.41286685E+03 F= -.41315991E+03 E0= -.41313921E+03  EK= 0.29306E+00 SP= 0.00E+00 SK= 0.00E+00
       N       E                     dE             d eps       ncg     rms          rms(c)
RMM:   1    -0.413153939677E+03    0.59648E-02   -0.99434E+00  4264   0.861E-01    0.872E-01
RMM:   2    -0.413161931334E+03   -0.79917E-02   -0.11678E-01  4323   0.975E-02    0.613E-01
RMM:   3    -0.413160284482E+03    0.16469E-02   -0.78825E-03  4735   0.363E-02    0.121E-01
RMM:   4    -0.413161194301E+03   -0.90982E-03   -0.16776E-03  5177   0.343E-02    0.126E-01
RMM:   5    -0.413160350975E+03    0.84333E-03   -0.51489E-04  4885   0.233E-02    0.351E-02
RMM:   6    -0.413160327547E+03    0.23428E-04   -0.19821E-04  5294   0.151E-02    0.222E-02
RMM:   7    -0.413160339512E+03   -0.11966E-04   -0.99391E-05  5374   0.922E-03    0.118E-02
RMM:   8    -0.413160338383E+03    0.11298E-05   -0.18640E-05  4388   0.538E-03    0.590E-03
RMM:   9    -0.413160339523E+03   -0.11400E-05   -0.25121E-06  2611   0.217E-03    0.265E-03
RMM:  10    -0.413160342193E+03   -0.26709E-05   -0.11642E-06  2484   0.165E-03    0.142E-03
RMM:  11    -0.413160347036E+03   -0.48421E-05   -0.10821E-06  2459   0.146E-03    0.687E-04
RMM:  12    -0.413160348855E+03   -0.18190E-05   -0.38339E-07  2012   0.995E-04    0.337E-04
RMM:  13    -0.413160350120E+03   -0.12651E-05   -0.20240E-07  1581   0.765E-04    0.279E-04
RMM:  14    -0.413160352660E+03   -0.25407E-05   -0.26335E-07  1478   0.767E-04    0.175E-04
RMM:  15    -0.413160353234E+03   -0.57378E-06   -0.84077E-08  1075   0.598E-04
  144 T=    60. E= -.41286701E+03 F= -.41316035E+03 E0= -.41313967E+03  EK= 0.29334E+00 SP= 0.00E+00 SK= 0.00E+00
       N       E                     dE             d eps       ncg     rms          rms(c)
RMM:   1    -0.413153764231E+03    0.65884E-02   -0.98068E+00  4264   0.858E-01    0.860E-01
RMM:   2    -0.413161907709E+03   -0.81435E-02   -0.11548E-01  4328   0.978E-02    0.607E-01
RMM:   3    -0.413160054829E+03    0.18529E-02   -0.79293E-03  4736   0.378E-02    0.118E-01
RMM:   4    -0.413161378320E+03   -0.13235E-02   -0.20369E-03  5227   0.377E-02    0.153E-01
RMM:   5    -0.413160114500E+03    0.12638E-02   -0.71062E-04  4860   0.273E-02    0.350E-02
RMM:   6    -0.413160093868E+03    0.20632E-04   -0.23674E-04  5372   0.163E-02    0.229E-02
RMM:   7    -0.413160106661E+03   -0.12793E-04   -0.11210E-04  5421   0.945E-03    0.122E-02
RMM:   8    -0.413160105743E+03    0.91768E-06   -0.20563E-05  4525   0.554E-03    0.615E-03
RMM:   9    -0.413160106919E+03   -0.11761E-05   -0.27461E-06  2612   0.217E-03    0.261E-03
RMM:  10    -0.413160110269E+03   -0.33491E-05   -0.11847E-06  2484   0.167E-03    0.131E-03
RMM:  11    -0.413160114776E+03   -0.45076E-05   -0.91623E-07  2433   0.141E-03    0.647E-04
RMM:  12    -0.413160116730E+03   -0.19537E-05   -0.34192E-07  2000   0.948E-04    0.347E-04
RMM:  13    -0.413160118461E+03   -0.17308E-05   -0.21915E-07  1504   0.763E-04    0.234E-04
RMM:  14    -0.413160120882E+03   -0.24208E-05   -0.24407E-07  1462   0.756E-04    0.163E-04
RMM:  15    -0.413160121779E+03   -0.89750E-06   -0.11193E-07  1238   0.640E-04
  145 T=    60. E= -.41286674E+03 F= -.41316012E+03 E0= -.41313945E+03  EK= 0.29338E+00 SP= 0.00E+00 SK= 0.00E+00
       N       E                     dE             d eps       ncg     rms          rms(c)
RMM:   1    -0.413154203965E+03    0.59169E-02   -0.97646E+00  4264   0.859E-01    0.849E-01
RMM:   2    -0.413162917766E+03   -0.87138E-02   -0.11692E-01  4328   0.992E-02    0.617E-01
RMM:   3    -0.413160562290E+03    0.23555E-02   -0.83235E-03  4862   0.383E-02    0.108E-01
RMM:   4    -0.413168464478E+03   -0.79022E-02   -0.83894E-03  5166   0.778E-02    0.374E-01
RMM:   5    -0.413160531650E+03    0.79328E-02   -0.40147E-03  4836   0.622E-02    0.377E-02
RMM:   6    -0.413160521867E+03    0.97828E-05   -0.72238E-04  5660   0.263E-02    0.228E-02
RMM:   7    -0.413160543514E+03   -0.21647E-04   -0.14699E-04  5668   0.107E-02    0.112E-02
RMM:   8    -0.413160551351E+03   -0.78368E-05   -0.34665E-05  4951   0.644E-03    0.604E-03
RMM:   9    -0.413160554140E+03   -0.27890E-05   -0.27704E-06  2717   0.234E-03    0.293E-03
RMM:  10    -0.413160561457E+03   -0.73166E-05   -0.12981E-06  2514   0.175E-03    0.164E-03
RMM:  11    -0.413160568930E+03   -0.74730E-05   -0.81487E-07  2428   0.136E-03    0.781E-04
RMM:  12    -0.413160573951E+03   -0.50212E-05   -0.43961E-07  2046   0.102E-03    0.377E-04
RMM:  13    -0.413160577529E+03   -0.35782E-05   -0.27334E-07  1633   0.825E-04    0.205E-04
RMM:  14    -0.413160580564E+03   -0.30352E-05   -0.21318E-07  1435   0.753E-04    0.164E-04
RMM:  15    -0.413160582697E+03   -0.21325E-05   -0.15767E-07  1377   0.699E-04    0.944E-05
RMM:  16    -0.413160584788E+03   -0.20917E-05   -0.15574E-07  1348   0.674E-04    0.549E-05
RMM:  17    -0.413160585099E+03   -0.31031E-06   -0.64097E-08   943   0.557E-04
  146 T=    60. E= -.41286681E+03 F= -.41316059E+03 E0= -.41313992E+03  EK= 0.29378E+00 SP= 0.00E+00 SK= 0.00E+00
       N       E                     dE             d eps       ncg     rms          rms(c)
RMM:   1    -0.413156346271E+03    0.42385E-02   -0.97394E+00  4264   0.877E-01    0.866E-01
RMM:   2    -0.413162822668E+03   -0.64764E-02   -0.11592E-01  4324   0.100E-01    0.616E-01
RMM:   3    -0.413160979244E+03    0.18434E-02   -0.87044E-03  4932   0.403E-02    0.119E-01
RMM:   4    -0.413175453029E+03   -0.14474E-01   -0.14986E-02  5164   0.103E-01    0.504E-01
RMM:   5    -0.413160877685E+03    0.14575E-01   -0.73622E-03  4831   0.836E-02    0.434E-02
RMM:   6    -0.413160882703E+03   -0.50180E-05   -0.12596E-03  5704   0.339E-02    0.248E-02
RMM:   7    -0.413160897446E+03   -0.14743E-04   -0.20458E-04  5823   0.125E-02    0.125E-02
RMM:   8    -0.413160902374E+03   -0.49281E-05   -0.44020E-05  5096   0.705E-03    0.694E-03
RMM:   9    -0.413160903319E+03   -0.94505E-06   -0.45232E-06  2893   0.279E-03
  147 T=    60. E= -.41286689E+03 F= -.41316090E+03 E0= -.41314024E+03  EK= 0.29402E+00 SP= 0.00E+00 SK= 0.00E+00
       N       E                     dE             d eps       ncg     rms          rms(c)
RMM:   1    -0.413155223384E+03    0.56790E-02   -0.96164E+00  4266   0.859E-01    0.866E-01
RMM:   2    -0.413162518079E+03   -0.72947E-02   -0.11322E-01  4334   0.978E-02    0.609E-01
RMM:   3    -0.413161324709E+03    0.11934E-02   -0.94283E-03  5112   0.469E-02    0.159E-01
RMM:   4    -0.413196697244E+03   -0.35373E-01   -0.39036E-02  5148   0.165E-01    0.783E-01
RMM:   5    -0.413160560217E+03    0.36137E-01   -0.17607E-02  4817   0.131E-01    0.613E-02
RMM:   6    -0.413160604156E+03   -0.43939E-04   -0.29105E-03  5662   0.523E-02    0.265E-02
RMM:   7    -0.413160638186E+03   -0.34030E-04   -0.43049E-04  6082   0.174E-02    0.168E-02
RMM:   8    -0.413160643355E+03   -0.51685E-05   -0.79836E-05  5407   0.909E-03    0.934E-03
RMM:   9    -0.413160643170E+03    0.18443E-06   -0.11088E-05  3564   0.397E-03    0.379E-03
RMM:  10    -0.413160646413E+03   -0.32426E-05   -0.32192E-06  2690   0.240E-03    0.251E-03
RMM:  11    -0.413160649977E+03   -0.35644E-05   -0.14480E-06  2515   0.186E-03    0.145E-03
RMM:  12    -0.413160652887E+03   -0.29098E-05   -0.78536E-07  2448   0.138E-03    0.547E-04
RMM:  13    -0.413160654387E+03   -0.15004E-05   -0.39833E-07  2051   0.100E-03    0.306E-04
RMM:  14    -0.413160655782E+03   -0.13950E-05   -0.27385E-07  1701   0.847E-04    0.209E-04
RMM:  15    -0.413160657106E+03   -0.13234E-05   -0.22123E-07  1523   0.771E-04    0.115E-04
RMM:  16    -0.413160658012E+03   -0.90587E-06   -0.16238E-07  1426   0.710E-04
  148 T=    60. E= -.41286668E+03 F= -.41316066E+03 E0= -.41314000E+03  EK= 0.29398E+00 SP= 0.00E+00 SK= 0.00E+00
       N       E                     dE             d eps       ncg     rms          rms(c)
RMM:   1    -0.413155720508E+03    0.49366E-02   -0.95313E+00  4264   0.858E-01    0.847E-01
RMM:   2    -0.413163771223E+03   -0.80507E-02   -0.11399E-01  4337   0.968E-02    0.615E-01
RMM:   3    -0.413161724631E+03    0.20466E-02   -0.94598E-03  5049   0.442E-02    0.129E-01
RMM:   4    -0.413192027742E+03   -0.30303E-01   -0.32325E-02  5152   0.150E-01    0.724E-01
RMM:   5    -0.413161222281E+03    0.30805E-01   -0.15220E-02  4821   0.121E-01    0.536E-02
RMM:   6    -0.413161276370E+03   -0.54089E-04   -0.24669E-03  5698   0.479E-02    0.255E-02
RMM:   7    -0.413161305564E+03   -0.29193E-04   -0.34594E-04  5999   0.156E-02    0.150E-02
RMM:   8    -0.413161315628E+03   -0.10065E-04   -0.64901E-05  5335   0.825E-03    0.846E-03
RMM:   9    -0.413161318244E+03   -0.26156E-05   -0.95282E-06  3440   0.365E-03    0.360E-03
RMM:  10    -0.413161324802E+03   -0.65584E-05   -0.31185E-06  2669   0.237E-03    0.247E-03
RMM:  11    -0.413161330757E+03   -0.59550E-05   -0.12367E-06  2504   0.175E-03    0.136E-03
RMM:  12    -0.413161336153E+03   -0.53961E-05   -0.69193E-07  2413   0.131E-03    0.536E-04
RMM:  13    -0.413161339115E+03   -0.29613E-05   -0.36698E-07  1979   0.959E-04    0.311E-04
RMM:  14    -0.413161341345E+03   -0.22301E-05   -0.22999E-07  1520   0.799E-04    0.176E-04
RMM:  15    -0.413161342863E+03   -0.15178E-05   -0.15715E-07  1288   0.720E-04    0.959E-05
RMM:  16    -0.413161344875E+03   -0.20119E-05   -0.16542E-07  1466   0.726E-04    0.663E-05
RMM:  17    -0.413161345428E+03   -0.55335E-06   -0.87913E-08  1157   0.621E-04
  149 T=    60. E= -.41286690E+03 F= -.41316135E+03 E0= -.41314069E+03  EK= 0.29445E+00 SP= 0.00E+00 SK= 0.00E+00
       N       E                     dE             d eps       ncg     rms          rms(c)
RMM:   1    -0.413156187701E+03    0.51572E-02   -0.95145E+00  4264   0.860E-01    0.861E-01
RMM:   2    -0.413163562958E+03   -0.73753E-02   -0.11341E-01  4338   0.975E-02    0.619E-01
RMM:   3    -0.413161881940E+03    0.16810E-02   -0.10014E-02  5057   0.462E-02    0.139E-01
RMM:   4    -0.413195275981E+03   -0.33394E-01   -0.36185E-02  5153   0.158E-01    0.760E-01
RMM:   5    -0.413161249737E+03    0.34026E-01   -0.16650E-02  4813   0.127E-01    0.568E-02
RMM:   6    -0.413161314496E+03   -0.64759E-04   -0.27434E-03  5680   0.505E-02    0.265E-02
RMM:   7    -0.413161343276E+03   -0.28779E-04   -0.38854E-04  6037   0.165E-02    0.160E-02
RMM:   8    -0.413161350493E+03   -0.72171E-05   -0.71299E-05  5372   0.868E-03    0.892E-03
RMM:   9    -0.413161351644E+03   -0.11510E-05   -0.10445E-05  3512   0.382E-03    0.375E-03
RMM:  10    -0.413161356573E+03   -0.49290E-05   -0.32955E-06  2689   0.242E-03    0.256E-03
RMM:  11    -0.413161361186E+03   -0.46134E-05   -0.12969E-06  2506   0.180E-03    0.144E-03
RMM:  12    -0.413161365356E+03   -0.41696E-05   -0.71563E-07  2433   0.134E-03    0.549E-04
RMM:  13    -0.413161367512E+03   -0.21561E-05   -0.36582E-07  2041   0.977E-04    0.315E-04
RMM:  14    -0.413161369259E+03   -0.17473E-05   -0.22980E-07  1574   0.809E-04    0.185E-04
RMM:  15    -0.413161370469E+03   -0.12097E-05   -0.15437E-07  1302   0.721E-04    0.958E-05
RMM:  16    -0.413161371821E+03   -0.13517E-05   -0.14422E-07  1417   0.712E-04    0.603E-05
RMM:  17    -0.413161372384E+03   -0.56374E-06   -0.89414E-08  1193   0.632E-04
  150 T=    60. E= -.41286676E+03 F= -.41316137E+03 E0= -.41314072E+03  EK= 0.29461E+00 SP= 0.00E+00 SK= 0.00E+00
