       N       E                     dE             d eps       ncg     rms          rms(c)
RMM:   1     0.220086225978E+04    0.22009E+04   -0.52443E+04  2132   0.654E+02
RMM:   2     0.705253362389E+03   -0.14956E+04   -0.16263E+04  2132   0.177E+02
RMM:   3     0.137758129481E+03   -0.56750E+03   -0.65698E+03  2132   0.117E+02
RMM:   4    -0.158859806213E+03   -0.29662E+03   -0.27798E+03  2132   0.935E+01
RMM:   5    -0.287408363273E+03   -0.12855E+03   -0.11447E+03  2132   0.595E+01
RMM:   6    -0.349910035106E+03   -0.62502E+02   -0.55205E+02  2132   0.423E+01
RMM:   7    -0.382749662687E+03   -0.32840E+02   -0.30408E+02  2132   0.293E+01
RMM:   8    -0.404163476710E+03   -0.21414E+02   -0.18387E+02  2132   0.233E+01
RMM:   9    -0.435995581813E+03   -0.31832E+02   -0.30771E+02  6105   0.173E+01
RMM:  10    -0.441296217449E+03   -0.53006E+01   -0.63051E+01  6393   0.539E+00
RMM:  11    -0.442499485164E+03   -0.12033E+01   -0.11166E+01  6219   0.174E+00
RMM:  12    -0.442871281275E+03   -0.37180E+00   -0.26383E+00  6362   0.601E-01    0.134E+02
RMM:  13    -0.425589219228E+03    0.17282E+02   -0.81000E+01  4676   0.119E+01    0.712E+01
RMM:  14    -0.499386618416E+03   -0.73797E+02   -0.54024E+02  5423   0.232E+01    0.307E+01
RMM:  15    -0.414947780348E+03    0.84439E+02   -0.19729E+02  5073   0.163E+01    0.642E+00
RMM:  16    -0.414039355169E+03    0.90843E+00   -0.39003E+01  6076   0.605E+00    0.428E+00
RMM:  17    -0.413218208717E+03    0.82115E+00   -0.23810E+00  5361   0.183E+00    0.246E+00
RMM:  18    -0.413168551242E+03    0.49657E-01   -0.84391E-01  5964   0.942E-01    0.162E+00
RMM:  19    -0.413166122329E+03    0.24289E-02   -0.29945E-01  5722   0.578E-01    0.851E-01
RMM:  20    -0.413179588054E+03   -0.13466E-01   -0.19701E-01  5438   0.481E-01    0.502E-01
RMM:  21    -0.413166843436E+03    0.12745E-01   -0.31293E-02  5020   0.212E-01    0.248E-01
RMM:  22    -0.413165252964E+03    0.15905E-02   -0.14113E-02  6112   0.996E-02    0.146E-01
RMM:  23    -0.413163959584E+03    0.12934E-02   -0.54044E-03  5823   0.672E-02    0.840E-02
RMM:  24    -0.413162755976E+03    0.12036E-02   -0.17911E-03  5571   0.422E-02    0.405E-02
RMM:  25    -0.413162567839E+03    0.18814E-03   -0.84612E-04  5535   0.256E-02    0.299E-02
RMM:  26    -0.413162824827E+03   -0.25699E-03   -0.71323E-04  5856   0.278E-02    0.347E-02
RMM:  27    -0.413163232065E+03   -0.40724E-03   -0.18979E-04  4582   0.195E-02    0.174E-02
RMM:  28    -0.413163716592E+03   -0.48453E-03   -0.19158E-04  5404   0.196E-02    0.937E-03
RMM:  29    -0.413164084504E+03   -0.36791E-03   -0.96440E-05  4427   0.143E-02    0.503E-03
RMM:  30    -0.413164326524E+03   -0.24202E-03   -0.76893E-05  4049   0.105E-02    0.276E-03
RMM:  31    -0.413164437804E+03   -0.11128E-03   -0.47493E-05  3228   0.613E-03    0.286E-03
RMM:  32    -0.413164468207E+03   -0.30403E-04   -0.18932E-05  2917   0.310E-03    0.137E-03
RMM:  33    -0.413164478806E+03   -0.10599E-04   -0.81459E-06  2783   0.210E-03    0.498E-04
RMM:  34    -0.413164482165E+03   -0.33594E-05   -0.46021E-06  2674   0.177E-03    0.108E-03
RMM:  35    -0.413164482034E+03    0.13109E-06   -0.20594E-06  2326   0.117E-03
    1 T=    61. E= -.41286666E+03 F= -.41316448E+03 E0= -.41314198E+03  EK= 0.29782E+00 SP= 0.00E+00 SK= 0.00E+00
       N       E                     dE             d eps       ncg     rms          rms(c)
RMM:   1    -0.413157866124E+03    0.66160E-02   -0.11201E+01  3994   0.718E-01    0.887E-01
RMM:   2    -0.413165472501E+03   -0.76064E-02   -0.13777E-01  3907   0.100E-01    0.640E-01
RMM:   3    -0.413164003117E+03    0.14694E-02   -0.62941E-03  4544   0.339E-02    0.150E-01
RMM:   4    -0.413172867526E+03   -0.88644E-02   -0.94722E-03  5219   0.814E-02    0.397E-01
RMM:   5    -0.413163869151E+03    0.89984E-02   -0.44942E-03  4866   0.659E-02    0.222E-02
RMM:   6    -0.413163912905E+03   -0.43754E-04   -0.73081E-04  5814   0.259E-02    0.137E-02
RMM:   7    -0.413163924294E+03   -0.11389E-04   -0.95777E-05  5365   0.868E-03    0.908E-03
RMM:   8    -0.413163932650E+03   -0.83561E-05   -0.10905E-05  3308   0.350E-03    0.449E-03
RMM:   9    -0.413163940087E+03   -0.74368E-05   -0.26376E-06  2638   0.209E-03    0.282E-03
RMM:  10    -0.413163946981E+03   -0.68939E-05   -0.12198E-06  2514   0.156E-03    0.164E-03
RMM:  11    -0.413163954508E+03   -0.75276E-05   -0.10118E-06  2442   0.133E-03    0.494E-04
RMM:  12    -0.413163957126E+03   -0.26179E-05   -0.50599E-07  2006   0.957E-04    0.236E-04
RMM:  13    -0.413163959033E+03   -0.19068E-05   -0.33276E-07  1463   0.776E-04    0.155E-04
RMM:  14    -0.413163961383E+03   -0.23502E-05   -0.29085E-07  1377   0.735E-04    0.955E-05
RMM:  15    -0.413163962385E+03   -0.10017E-05   -0.20699E-07  1234   0.669E-04    0.569E-05
RMM:  16    -0.413163963166E+03   -0.78098E-06   -0.16972E-07  1201   0.644E-04
    2 T=    61. E= -.41286623E+03 F= -.41316396E+03 E0= -.41314146E+03  EK= 0.29773E+00 SP= 0.00E+00 SK= 0.00E+00
       N       E                     dE             d eps       ncg     rms          rms(c)
RMM:   1    -0.413155761031E+03    0.82014E-02   -0.11203E+01  4186   0.704E-01    0.911E-01
RMM:   2    -0.413165536950E+03   -0.97759E-02   -0.13484E-01  3883   0.957E-02    0.633E-01
RMM:   3    -0.413164962199E+03    0.57475E-03   -0.68813E-03  4878   0.392E-02    0.170E-01
RMM:   4    -0.413195637220E+03   -0.30675E-01   -0.31179E-02  5188   0.147E-01    0.729E-01
RMM:   5    -0.413164519451E+03    0.31118E-01   -0.15072E-02  4826   0.122E-01    0.379E-02
RMM:   6    -0.413164710189E+03   -0.19074E-03   -0.24407E-03  5791   0.481E-02    0.189E-02
RMM:   7    -0.413164723562E+03   -0.13372E-04   -0.29326E-04  5904   0.142E-02    0.140E-02
RMM:   8    -0.413164724249E+03   -0.68697E-06   -0.37753E-05  4465   0.537E-03    0.869E-03
RMM:   9    -0.413164723309E+03    0.93954E-06   -0.60236E-06  2996   0.276E-03
    3 T=    61. E= -.41286672E+03 F= -.41316472E+03 E0= -.41314223E+03  EK= 0.29800E+00 SP= 0.00E+00 SK= 0.00E+00
       N       E                     dE             d eps       ncg     rms          rms(c)
RMM:   1    -0.413155196841E+03    0.95274E-02   -0.11116E+01  4227   0.705E-01    0.894E-01
RMM:   2    -0.413165680025E+03   -0.10483E-01   -0.13375E-01  4181   0.985E-02    0.627E-01
RMM:   3    -0.413168222957E+03   -0.25429E-02   -0.94072E-03  5172   0.673E-02    0.303E-01
RMM:   4    -0.413192897851E+03   -0.24675E-01   -0.39794E-02  5131   0.169E-01    0.703E-01
RMM:   5    -0.413164351139E+03    0.28547E-01   -0.11867E-02  4732   0.117E-01    0.534E-02
RMM:   6    -0.413164393904E+03   -0.42765E-04   -0.20108E-03  5563   0.449E-02    0.166E-02
RMM:   7    -0.413164415748E+03   -0.21844E-04   -0.29132E-04  6038   0.149E-02    0.119E-02
RMM:   8    -0.413164418617E+03   -0.28683E-05   -0.37191E-05  4719   0.555E-03    0.732E-03
RMM:   9    -0.413164420546E+03   -0.19290E-05   -0.71693E-06  3170   0.366E-03    0.362E-03
RMM:  10    -0.413164422266E+03   -0.17201E-05   -0.17667E-06  2544   0.214E-03    0.220E-03
RMM:  11    -0.413164424424E+03   -0.21584E-05   -0.10464E-06  2543   0.158E-03    0.106E-03
RMM:  12    -0.413164425560E+03   -0.11363E-05   -0.47997E-07  2211   0.108E-03    0.459E-04
RMM:  13    -0.413164426829E+03   -0.12686E-05   -0.37956E-07  1761   0.886E-04    0.216E-04
RMM:  14    -0.413164427377E+03   -0.54835E-06   -0.20687E-07  1367   0.725E-04
    4 T=    61. E= -.41286643E+03 F= -.41316443E+03 E0= -.41314194E+03  EK= 0.29800E+00 SP= 0.00E+00 SK= 0.00E+00
       N       E                     dE             d eps       ncg     rms          rms(c)
RMM:   1    -0.413155023194E+03    0.94036E-02   -0.11157E+01  4236   0.710E-01    0.884E-01
RMM:   2    -0.413165959674E+03   -0.10936E-01   -0.13789E-01  4045   0.971E-02    0.639E-01
RMM:   3    -0.413164867042E+03    0.10926E-02   -0.63896E-03  4930   0.364E-02    0.164E-01
RMM:   4    -0.413195598749E+03   -0.30732E-01   -0.31379E-02  5169   0.148E-01    0.731E-01
RMM:   5    -0.413164318506E+03    0.31280E-01   -0.15129E-02  4813   0.122E-01    0.363E-02
RMM:   6    -0.413164511687E+03   -0.19318E-03   -0.24281E-03  5782   0.478E-02    0.168E-02
RMM:   7    -0.413164530261E+03   -0.18574E-04   -0.28559E-04  5871   0.139E-02    0.131E-02
RMM:   8    -0.413164535150E+03   -0.48889E-05   -0.35789E-05  4396   0.526E-03    0.821E-03
RMM:   9    -0.413164539387E+03   -0.42368E-05   -0.57271E-06  2948   0.275E-03    0.557E-03
RMM:  10    -0.413164546020E+03   -0.66334E-05   -0.21024E-06  2560   0.211E-03    0.280E-03
RMM:  11    -0.413164551878E+03   -0.58581E-05   -0.14482E-06  2543   0.177E-03    0.139E-03
RMM:  12    -0.413164555447E+03   -0.35683E-05   -0.72967E-07  2435   0.133E-03    0.487E-04
RMM:  13    -0.413164556738E+03   -0.12913E-05   -0.32657E-07  2004   0.929E-04    0.300E-04
RMM:  14    -0.413164558220E+03   -0.14821E-05   -0.21911E-07  1531   0.778E-04    0.175E-04
RMM:  15    -0.413164559986E+03   -0.17657E-05   -0.22137E-07  1534   0.752E-04    0.138E-04
RMM:  16    -0.413164560287E+03   -0.30162E-06   -0.92162E-08  1055   0.625E-04
    5 T=    61. E= -.41286642E+03 F= -.41316456E+03 E0= -.41314208E+03  EK= 0.29814E+00 SP= 0.00E+00 SK= 0.00E+00
       N       E                     dE             d eps       ncg     rms          rms(c)
RMM:   1    -0.413155993621E+03    0.85664E-02   -0.11211E+01  4248   0.716E-01    0.907E-01
RMM:   2    -0.413166218758E+03   -0.10225E-01   -0.13486E-01  4007   0.967E-02    0.635E-01
RMM:   3    -0.413165369009E+03    0.84975E-03   -0.66419E-03  4834   0.374E-02    0.167E-01
RMM:   4    -0.413193369197E+03   -0.28000E-01   -0.28322E-02  5166   0.140E-01    0.698E-01
RMM:   5    -0.413164962934E+03    0.28406E-01   -0.13873E-02  4814   0.116E-01    0.358E-02
RMM:   6    -0.413165140438E+03   -0.17750E-03   -0.22273E-03  5781   0.455E-02    0.183E-02
RMM:   7    -0.413165152474E+03   -0.12035E-04   -0.26434E-04  5852   0.134E-02    0.135E-02
RMM:   8    -0.413165153473E+03   -0.99934E-06   -0.33503E-05  4366   0.517E-03    0.836E-03
RMM:   9    -0.413165153030E+03    0.44240E-06   -0.56551E-06  2936   0.275E-03
    6 T=    61. E= -.41286669E+03 F= -.41316515E+03 E0= -.41314269E+03  EK= 0.29846E+00 SP= 0.00E+00 SK= 0.00E+00
       N       E                     dE             d eps       ncg     rms          rms(c)
RMM:   1    -0.413155648838E+03    0.95046E-02   -0.11152E+01  4267   0.722E-01    0.902E-01
RMM:   2    -0.413165469683E+03   -0.98208E-02   -0.13430E-01  4225   0.995E-02    0.628E-01
RMM:   3    -0.413168207585E+03   -0.27379E-02   -0.94171E-03  5151   0.656E-02    0.296E-01
RMM:   4    -0.413193783133E+03   -0.25576E-01   -0.39901E-02  5123   0.168E-01    0.711E-01
RMM:   5    -0.413164608959E+03    0.29174E-01   -0.12267E-02  4741   0.118E-01    0.530E-02
RMM:   6    -0.413164661665E+03   -0.52706E-04   -0.20592E-03  5589   0.453E-02    0.168E-02
RMM:   7    -0.413164682283E+03   -0.20618E-04   -0.28971E-04  6041   0.148E-02    0.120E-02
RMM:   8    -0.413164683745E+03   -0.14628E-05   -0.37334E-05  4699   0.554E-03    0.735E-03
RMM:   9    -0.413164682242E+03    0.15033E-05   -0.68235E-06  3063   0.358E-03    0.355E-03
RMM:  10    -0.413164682308E+03   -0.66073E-07   -0.18367E-06  2545   0.213E-03
    7 T=    61. E= -.41286618E+03 F= -.41316468E+03 E0= -.41314224E+03  EK= 0.29850E+00 SP= 0.00E+00 SK= 0.00E+00
       N       E                     dE             d eps       ncg     rms          rms(c)
RMM:   1    -0.413155784264E+03    0.88980E-02   -0.11152E+01  4277   0.726E-01    0.883E-01
RMM:   2    -0.413166707251E+03   -0.10923E-01   -0.13717E-01  4061   0.954E-02    0.637E-01
RMM:   3    -0.413165934596E+03    0.77266E-03   -0.65380E-03  4994   0.400E-02    0.177E-01
RMM:   4    -0.413205422587E+03   -0.39488E-01   -0.41102E-02  5156   0.168E-01    0.825E-01
RMM:   5    -0.413165211804E+03    0.40211E-01   -0.19408E-02  4807   0.138E-01    0.428E-02
RMM:   6    -0.413165435696E+03   -0.22389E-03   -0.31213E-03  5762   0.542E-02    0.171E-02
RMM:   7    -0.413165462765E+03   -0.27069E-04   -0.37445E-04  5937   0.155E-02    0.137E-02
RMM:   8    -0.413165467261E+03   -0.44960E-05   -0.43279E-05  4444   0.558E-03    0.846E-03
RMM:   9    -0.413165470593E+03   -0.33313E-05   -0.69631E-06  3004   0.284E-03    0.570E-03
RMM:  10    -0.413165475903E+03   -0.53103E-05   -0.24792E-06  2575   0.223E-03    0.279E-03
RMM:  11    -0.413165480238E+03   -0.43352E-05   -0.14681E-06  2539   0.178E-03    0.134E-03
RMM:  12    -0.413165482864E+03   -0.26256E-05   -0.79361E-07  2446   0.135E-03    0.440E-04
RMM:  13    -0.413165484164E+03   -0.13000E-05   -0.38651E-07  2026   0.965E-04    0.283E-04
RMM:  14    -0.413165485337E+03   -0.11731E-05   -0.28535E-07  1651   0.823E-04    0.195E-04
RMM:  15    -0.413165486083E+03   -0.74575E-06   -0.21700E-07  1424   0.737E-04
    8 T=    61. E= -.41286663E+03 F= -.41316549E+03 E0= -.41314306E+03  EK= 0.29886E+00 SP= 0.00E+00 SK= 0.00E+00
       N       E                     dE             d eps       ncg     rms          rms(c)
RMM:   1    -0.413156250482E+03    0.92349E-02   -0.11219E+01  4281   0.729E-01    0.901E-01
RMM:   2    -0.413166633518E+03   -0.10383E-01   -0.13631E-01  4155   0.101E-01    0.638E-01
RMM:   3    -0.413165788317E+03    0.84520E-03   -0.65920E-03  4834   0.382E-02    0.166E-01
RMM:   4    -0.413194450785E+03   -0.28662E-01   -0.29101E-02  5159   0.142E-01    0.706E-01
RMM:   5    -0.413165288616E+03    0.29162E-01   -0.14256E-02  4806   0.118E-01    0.353E-02
RMM:   6    -0.413165470527E+03   -0.18191E-03   -0.22730E-03  5784   0.460E-02    0.177E-02
RMM:   7    -0.413165482873E+03   -0.12346E-04   -0.26759E-04  5850   0.136E-02    0.133E-02
RMM:   8    -0.413165483908E+03   -0.10346E-05   -0.34161E-05  4387   0.522E-03    0.843E-03
RMM:   9    -0.413165483632E+03    0.27569E-06   -0.56087E-06  2927   0.277E-03
    9 T=    61. E= -.41286640E+03 F= -.41316548E+03 E0= -.41314308E+03  EK= 0.29908E+00 SP= 0.00E+00 SK= 0.00E+00
       N       E                     dE             d eps       ncg     rms          rms(c)
RMM:   1    -0.413156760557E+03    0.87234E-02   -0.11204E+01  4297   0.734E-01    0.909E-01
RMM:   2    -0.413166314954E+03   -0.95544E-02   -0.13436E-01  4275   0.969E-02    0.629E-01
RMM:   3    -0.413169436608E+03   -0.31217E-02   -0.98442E-03  5143   0.683E-02    0.307E-01
RMM:   4    -0.413192883264E+03   -0.23447E-01   -0.38616E-02  5107   0.166E-01    0.689E-01
RMM:   5    -0.413165607950E+03    0.27275E-01   -0.11328E-02  4729   0.114E-01    0.524E-02
RMM:   6    -0.413165651512E+03   -0.43561E-04   -0.19268E-03  5567   0.436E-02    0.174E-02
RMM:   7    -0.413165668974E+03   -0.17462E-04   -0.27176E-04  6032   0.145E-02    0.122E-02
RMM:   8    -0.413165669015E+03   -0.41851E-07   -0.35200E-05  4690   0.549E-03    0.735E-03
RMM:   9    -0.413165665234E+03    0.37810E-05   -0.69758E-06  3074   0.365E-03    0.357E-03
RMM:  10    -0.413165664027E+03    0.12078E-05   -0.17777E-06  2548   0.212E-03    0.210E-03
RMM:  11    -0.413165662673E+03    0.13536E-05   -0.98613E-07  2528   0.155E-03    0.102E-03
RMM:  12    -0.413165661735E+03    0.93839E-06   -0.45185E-07  2161   0.106E-03
   10 T=    61. E= -.41286630E+03 F= -.41316566E+03 E0= -.41314328E+03  EK= 0.29936E+00 SP= 0.00E+00 SK= 0.00E+00
       N       E                     dE             d eps       ncg     rms          rms(c)
RMM:   1    -0.413157196994E+03    0.84657E-02   -0.11160E+01  4296   0.742E-01    0.885E-01
RMM:   2    -0.413167771592E+03   -0.10575E-01   -0.13601E-01  4170   0.962E-02    0.634E-01
RMM:   3    -0.413166757590E+03    0.10140E-02   -0.63124E-03  4914   0.392E-02    0.168E-01
RMM:   4    -0.413198709493E+03   -0.31952E-01   -0.32671E-02  5150   0.150E-01    0.745E-01
RMM:   5    -0.413166159346E+03    0.32550E-01   -0.15955E-02  4805   0.124E-01    0.365E-02
RMM:   6    -0.413166353667E+03   -0.19432E-03   -0.24939E-03  5779   0.485E-02    0.178E-02
RMM:   7    -0.413166369183E+03   -0.15517E-04   -0.29335E-04  5881   0.142E-02    0.136E-02
RMM:   8    -0.413166371505E+03   -0.23214E-05   -0.38154E-05  4488   0.544E-03    0.878E-03
RMM:   9    -0.413166372070E+03   -0.56493E-06   -0.62255E-06  2993   0.284E-03
   11 T=    61. E= -.41286656E+03 F= -.41316637E+03 E0= -.41314401E+03  EK= 0.29981E+00 SP= 0.00E+00 SK= 0.00E+00
       N       E                     dE             d eps       ncg     rms          rms(c)
RMM:   1    -0.413156849876E+03    0.95216E-02   -0.11236E+01  4297   0.743E-01    0.896E-01
RMM:   2    -0.413167450508E+03   -0.10601E-01   -0.13792E-01  4290   0.996E-02    0.641E-01
RMM:   3    -0.413170366616E+03   -0.29161E-02   -0.97159E-03  5142   0.694E-02    0.314E-01
RMM:   4    -0.413196538370E+03   -0.26172E-01   -0.42931E-02  5102   0.174E-01    0.724E-01
RMM:   5    -0.413166126295E+03    0.30412E-01   -0.12604E-02  4711   0.120E-01    0.531E-02
RMM:   6    -0.413166186608E+03   -0.60312E-04   -0.21684E-03  5575   0.458E-02    0.154E-02
RMM:   7    -0.413166210595E+03   -0.23987E-04   -0.29443E-04  6034   0.149E-02    0.116E-02
RMM:   8    -0.413166213764E+03   -0.31697E-05   -0.37585E-05  4713   0.552E-03    0.715E-03
RMM:   9    -0.413166216117E+03   -0.23524E-05   -0.72018E-06  3142   0.367E-03    0.373E-03
RMM:  10    -0.413166217795E+03   -0.16781E-05   -0.19579E-06  2543   0.217E-03    0.224E-03
RMM:  11    -0.413166219440E+03   -0.16451E-05   -0.11602E-06  2544   0.162E-03    0.106E-03
RMM:  12    -0.413166220137E+03   -0.69659E-06   -0.50836E-07  2266   0.110E-03
   12 T=    61. E= -.41286617E+03 F= -.41316622E+03 E0= -.41314389E+03  EK= 0.30005E+00 SP= 0.00E+00 SK= 0.00E+00
       N       E                     dE             d eps       ncg     rms          rms(c)
RMM:   1    -0.413157893313E+03    0.83261E-02   -0.11261E+01  4298   0.747E-01    0.915E-01
RMM:   2    -0.413167663937E+03   -0.97706E-02   -0.13464E-01  4216   0.943E-02    0.632E-01
RMM:   3    -0.413167308879E+03    0.35506E-03   -0.69395E-03  4948   0.389E-02    0.178E-01
RMM:   4    -0.413202456935E+03   -0.35148E-01   -0.36106E-02  5148   0.158E-01    0.779E-01
RMM:   5    -0.413166739846E+03    0.35717E-01   -0.17402E-02  4797   0.130E-01    0.406E-02
RMM:   6    -0.413166948824E+03   -0.20898E-03   -0.28334E-03  5777   0.510E-02    0.200E-02
RMM:   7    -0.413166960338E+03   -0.11514E-04   -0.32959E-04  5892   0.149E-02    0.148E-02
RMM:   8    -0.413166958095E+03    0.22428E-05   -0.42116E-05  4579   0.568E-03    0.956E-03
RMM:   9    -0.413166953211E+03    0.48838E-05   -0.68982E-06  3036   0.290E-03    0.646E-03
RMM:  10    -0.413166948786E+03    0.44256E-05   -0.22174E-06  2550   0.219E-03    0.324E-03
RMM:  11    -0.413166945499E+03    0.32864E-05   -0.16390E-06  2544   0.192E-03    0.157E-03
RMM:  12    -0.413166942953E+03    0.25464E-05   -0.83049E-07  2458   0.145E-03    0.514E-04
RMM:  13    -0.413166942113E+03    0.84046E-06   -0.34760E-07  2123   0.988E-04
   13 T=    61. E= -.41286634E+03 F= -.41316694E+03 E0= -.41314464E+03  EK= 0.30060E+00 SP= 0.00E+00 SK= 0.00E+00
       N       E                     dE             d eps       ncg     rms          rms(c)
RMM:   1    -0.413157908477E+03    0.90345E-02   -0.11177E+01  4294   0.748E-01    0.889E-01
RMM:   2    -0.413168536407E+03   -0.10628E-01   -0.13662E-01  4231   0.958E-02    0.632E-01
RMM:   3    -0.413167733025E+03    0.80338E-03   -0.63721E-03  4862   0.370E-02    0.168E-01
RMM:   4    -0.413196565888E+03   -0.28833E-01   -0.29418E-02  5145   0.143E-01    0.708E-01
RMM:   5    -0.413167229157E+03    0.29337E-01   -0.14412E-02  4805   0.118E-01    0.350E-02
RMM:   6    -0.413167407622E+03   -0.17846E-03   -0.22850E-03  5801   0.458E-02    0.176E-02
RMM:   7    -0.413167418718E+03   -0.11096E-04   -0.26238E-04  5837   0.135E-02    0.132E-02
RMM:   8    -0.413167418792E+03   -0.74688E-07   -0.34324E-05  4393   0.523E-03    0.850E-03
RMM:   9    -0.413167416914E+03    0.18779E-05   -0.56208E-06  2932   0.277E-03    0.579E-03
RMM:  10    -0.413167416296E+03    0.61874E-06   -0.19729E-06  2543   0.210E-03
   14 T=    61. E= -.41286634E+03 F= -.41316742E+03 E0= -.41314515E+03  EK= 0.30107E+00 SP= 0.00E+00 SK= 0.00E+00
       N       E                     dE             d eps       ncg     rms          rms(c)
RMM:   1    -0.413157922179E+03    0.94947E-02   -0.11268E+01  4306   0.756E-01    0.892E-01
RMM:   2    -0.413169202484E+03   -0.11280E-01   -0.13909E-01  4286   0.990E-02    0.643E-01
RMM:   3    -0.413171114809E+03   -0.19123E-02   -0.90868E-03  5124   0.655E-02    0.294E-01
RMM:   4    -0.413202243571E+03   -0.31129E-01   -0.46112E-02  5106   0.180E-01    0.771E-01
RMM:   5    -0.413167515223E+03    0.34728E-01   -0.14844E-02  4729   0.127E-01    0.510E-02
RMM:   6    -0.413167614528E+03   -0.99305E-04   -0.24413E-03  5625   0.487E-02    0.145E-02
RMM:   7    -0.413167640347E+03   -0.25819E-04   -0.31623E-04  6016   0.149E-02    0.115E-02
RMM:   8    -0.413167643527E+03   -0.31794E-05   -0.38939E-05  4651   0.553E-03    0.692E-03
RMM:   9    -0.413167645329E+03   -0.18024E-05   -0.61768E-06  2889   0.323E-03    0.339E-03
RMM:  10    -0.413167646972E+03   -0.16429E-05   -0.21633E-06  2555   0.210E-03    0.198E-03
RMM:  11    -0.413167648180E+03   -0.12075E-05   -0.10296E-06  2535   0.148E-03    0.896E-04
RMM:  12    -0.413167648783E+03   -0.60310E-06   -0.50118E-07  1974   0.104E-03
   15 T=    61. E= -.41286625E+03 F= -.41316765E+03 E0= -.41314541E+03  EK= 0.30140E+00 SP= 0.00E+00 SK= 0.00E+00
       N       E                     dE             d eps       ncg     rms          rms(c)
RMM:   1    -0.413161447537E+03    0.62006E-02   -0.11328E+01  4307   0.784E-01    0.916E-01
RMM:   2    -0.413169413025E+03   -0.79655E-02   -0.13515E-01  4240   0.100E-01    0.635E-01
RMM:   3    -0.413168895717E+03    0.51731E-03   -0.69074E-03  4923   0.390E-02    0.174E-01
RMM:   4    -0.413202049271E+03   -0.33154E-01   -0.34020E-02  5148   0.153E-01    0.758E-01
RMM:   5    -0.413168328066E+03    0.33721E-01   -0.16492E-02  4802   0.127E-01    0.388E-02
RMM:   6    -0.413168523487E+03   -0.19542E-03   -0.26537E-03  5800   0.494E-02    0.195E-02
RMM:   7    -0.413168531864E+03   -0.83772E-05   -0.30432E-04  5880   0.145E-02    0.144E-02
RMM:   8    -0.413168528979E+03    0.28856E-05   -0.40007E-05  4561   0.561E-03    0.943E-03
RMM:   9    -0.413168523511E+03    0.54678E-05   -0.64751E-06  3014   0.290E-03    0.640E-03
RMM:  10    -0.413168518248E+03    0.52628E-05   -0.21398E-06  2547   0.219E-03    0.324E-03
RMM:  11    -0.413168514087E+03    0.41609E-05   -0.16172E-06  2533   0.192E-03    0.159E-03
RMM:  12    -0.413168510937E+03    0.31503E-05   -0.81123E-07  2457   0.144E-03    0.519E-04
RMM:  13    -0.413168509889E+03    0.10474E-05   -0.33712E-07  2126   0.976E-04    0.332E-04
RMM:  14    -0.413168508655E+03    0.12346E-05   -0.18943E-07  1588   0.768E-04    0.191E-04
RMM:  15    -0.413168505947E+03    0.27075E-05   -0.21433E-07  1658   0.780E-04    0.176E-04
RMM:  16    -0.413168505382E+03    0.56563E-06   -0.75416E-08  1032   0.610E-04
   16 T=    61. E= -.41286654E+03 F= -.41316851E+03 E0= -.41314631E+03  EK= 0.30196E+00 SP= 0.00E+00 SK= 0.00E+00
       N       E                     dE             d eps       ncg     rms          rms(c)
RMM:   1    -0.413159634203E+03    0.88717E-02   -0.11220E+01  4296   0.761E-01    0.895E-01
RMM:   2    -0.413170104141E+03   -0.10470E-01   -0.13674E-01  4252   0.980E-02    0.631E-01
RMM:   3    -0.413169307417E+03    0.79672E-03   -0.65250E-03  4895   0.417E-02    0.176E-01
RMM:   4    -0.413204304139E+03   -0.34997E-01   -0.35986E-02  5144   0.157E-01    0.777E-01
RMM:   5    -0.413168772158E+03    0.35532E-01   -0.17484E-02  4800   0.130E-01    0.389E-02
RMM:   6    -0.413168972221E+03   -0.20006E-03   -0.27533E-03  5772   0.507E-02    0.189E-02
RMM:   7    -0.413168984084E+03   -0.11862E-04   -0.31921E-04  5877   0.148E-02    0.142E-02
RMM:   8    -0.413168982700E+03    0.13839E-05   -0.40860E-05  4526   0.559E-03    0.917E-03
RMM:   9    -0.413168978699E+03    0.40011E-05   -0.65674E-06  3007   0.286E-03    0.627E-03
RMM:  10    -0.413168975304E+03    0.33943E-05   -0.21460E-06  2547   0.218E-03    0.313E-03
RMM:  11    -0.413168972904E+03    0.23999E-05   -0.15568E-06  2527   0.189E-03    0.153E-03
RMM:  12    -0.413168971101E+03    0.18037E-05   -0.75393E-07  2445   0.142E-03    0.517E-04
RMM:  13    -0.413168970469E+03    0.63203E-06   -0.33183E-07  2113   0.971E-04
   17 T=    62. E= -.41286648E+03 F= -.41316897E+03 E0= -.41314681E+03  EK= 0.30249E+00 SP= 0.00E+00 SK= 0.00E+00
       N       E                     dE             d eps       ncg     rms          rms(c)
RMM:   1    -0.413159781272E+03    0.91898E-02   -0.11302E+01  4299   0.768E-01    0.890E-01
RMM:   2    -0.413171188927E+03   -0.11408E-01   -0.13948E-01  4265   0.101E-01    0.644E-01
RMM:   3    -0.413169917072E+03    0.12719E-02   -0.63669E-03  4899   0.393E-02    0.171E-01
RMM:   4    -0.413203971150E+03   -0.34054E-01   -0.35137E-02  5146   0.155E-01    0.768E-01
RMM:   5    -0.413169286110E+03    0.34685E-01   -0.17022E-02  4803   0.128E-01    0.376E-02
RMM:   6    -0.413169483269E+03   -0.19716E-03   -0.26993E-03  5783   0.501E-02    0.178E-02
RMM:   7    -0.413169497672E+03   -0.14403E-04   -0.30705E-04  5879   0.146E-02    0.137E-02
RMM:   8    -0.413169498562E+03   -0.89011E-06   -0.40178E-05  4528   0.556E-03    0.894E-03
RMM:   9    -0.413169497430E+03    0.11324E-05   -0.64978E-06  3008   0.288E-03    0.613E-03
RMM:  10    -0.413169497835E+03   -0.40482E-06   -0.22456E-06  2560   0.220E-03
   18 T=    62. E= -.41286635E+03 F= -.41316950E+03 E0= -.41314738E+03  EK= 0.30315E+00 SP= 0.00E+00 SK= 0.00E+00
       N       E                     dE             d eps       ncg     rms          rms(c)
RMM:   1    -0.413161577707E+03    0.79197E-02   -0.11362E+01  4306   0.775E-01    0.915E-01
RMM:   2    -0.413171574717E+03   -0.99970E-02   -0.13786E-01  4305   0.101E-01    0.639E-01
RMM:   3    -0.413174616390E+03   -0.30417E-02   -0.98528E-03  5125   0.687E-02    0.313E-01
RMM:   4    -0.413199201143E+03   -0.24585E-01   -0.40884E-02  5090   0.170E-01    0.705E-01
RMM:   5    -0.413170507996E+03    0.28693E-01   -0.11919E-02  4708   0.117E-01    0.496E-02
RMM:   6    -0.413170566840E+03   -0.58845E-04   -0.20120E-03  5586   0.441E-02    0.164E-02
RMM:   7    -0.413170581519E+03   -0.14679E-04   -0.26358E-04  5998   0.140E-02    0.118E-02
RMM:   8    -0.413170579356E+03    0.21638E-05   -0.33265E-05  4528   0.529E-03    0.698E-03
RMM:   9    -0.413170571619E+03    0.77369E-05   -0.57948E-06  2845   0.329E-03    0.328E-03
RMM:  10    -0.413170568052E+03    0.35670E-05   -0.17930E-06  2536   0.202E-03    0.186E-03
RMM:  11    -0.413170564244E+03    0.38081E-05   -0.84812E-07  2514   0.144E-03    0.894E-04
RMM:  12    -0.413170561901E+03    0.23429E-05   -0.42771E-07  1959   0.102E-03    0.456E-04
RMM:  13    -0.413170559085E+03    0.28153E-05   -0.33114E-07  1873   0.906E-04    0.237E-04
RMM:  14    -0.413170557602E+03    0.14835E-05   -0.17973E-07  1420   0.725E-04    0.146E-04
RMM:  15    -0.413170554687E+03    0.29150E-05   -0.20211E-07  1620   0.753E-04    0.105E-04
RMM:  16    -0.413170553013E+03    0.16737E-05   -0.11635E-07  1258   0.639E-04    0.890E-05
RMM:  17    -0.413170550872E+03    0.21416E-05   -0.10352E-07  1243   0.628E-04    0.462E-05
RMM:  18    -0.413170549099E+03    0.17729E-05   -0.70539E-08  1052   0.576E-04    0.258E-05
RMM:  19    -0.413170548713E+03    0.38564E-06   -0.32670E-08   796   0.525E-04
   19 T=    62. E= -.41286653E+03 F= -.41317055E+03 E0= -.41314847E+03  EK= 0.30402E+00 SP= 0.00E+00 SK= 0.00E+00
       N       E                     dE             d eps       ncg     rms          rms(c)
RMM:   1    -0.413161949455E+03    0.85996E-02   -0.11312E+01  4297   0.786E-01    0.905E-01
RMM:   2    -0.413172149523E+03   -0.10200E-01   -0.13694E-01  4261   0.999E-02    0.632E-01
RMM:   3    -0.413171660880E+03    0.48864E-03   -0.67113E-03  4964   0.414E-02    0.186E-01
RMM:   4    -0.413211376927E+03   -0.39716E-01   -0.41741E-02  5144   0.169E-01    0.827E-01
RMM:   5    -0.413170926089E+03    0.40451E-01   -0.19821E-02  4796   0.139E-01    0.426E-02
RMM:   6    -0.413171132644E+03   -0.20656E-03   -0.31178E-03  5755   0.543E-02    0.196E-02
RMM:   7    -0.413171146405E+03   -0.13760E-04   -0.36799E-04  5885   0.157E-02    0.149E-02
RMM:   8    -0.413171143738E+03    0.26669E-05   -0.46450E-05  4663   0.590E-03    0.958E-03
RMM:   9    -0.413171138023E+03    0.57147E-05   -0.72936E-06  3065   0.294E-03    0.646E-03
RMM:  10    -0.413171132368E+03    0.56550E-05   -0.23289E-06  2550   0.226E-03    0.318E-03
RMM:  11    -0.413171128285E+03    0.40827E-05   -0.15273E-06  2524   0.190E-03    0.155E-03
RMM:  12    -0.413171125341E+03    0.29445E-05   -0.75866E-07  2449   0.144E-03    0.511E-04
RMM:  13    -0.413171124380E+03    0.96080E-06   -0.34123E-07  2128   0.993E-04
   20 T=    62. E= -.41286634E+03 F= -.41317112E+03 E0= -.41314909E+03  EK= 0.30479E+00 SP= 0.00E+00 SK= 0.00E+00
       N       E                     dE             d eps       ncg     rms          rms(c)
RMM:   1    -0.413162385626E+03    0.87397E-02   -0.11356E+01  4300   0.784E-01    0.891E-01
RMM:   2    -0.413173441205E+03   -0.11056E-01   -0.14115E-01  4273   0.102E-01    0.644E-01
RMM:   3    -0.413172387538E+03    0.10537E-02   -0.64160E-03  4912   0.401E-02    0.174E-01
RMM:   4    -0.413207871995E+03   -0.35484E-01   -0.36723E-02  5142   0.159E-01    0.783E-01
RMM:   5    -0.413171714230E+03    0.36158E-01   -0.17816E-02  4801   0.131E-01    0.382E-02
RMM:   6    -0.413171912212E+03   -0.19798E-03   -0.28232E-03  5789   0.516E-02    0.180E-02
RMM:   7    -0.413171927603E+03   -0.15392E-04   -0.32482E-04  5908   0.149E-02    0.139E-02
RMM:   8    -0.413171927387E+03    0.21591E-06   -0.42904E-05  4590   0.569E-03    0.921E-03
RMM:   9    -0.413171924647E+03    0.27407E-05   -0.66969E-06  3020   0.291E-03    0.633E-03
RMM:  10    -0.413171923145E+03    0.15013E-05   -0.23068E-06  2564   0.225E-03    0.320E-03
RMM:  11    -0.413171922109E+03    0.10359E-05   -0.16948E-06  2540   0.194E-03    0.158E-03
RMM:  12    -0.413171921077E+03    0.10322E-05   -0.80215E-07  2446   0.144E-03    0.537E-04
RMM:  13    -0.413171920646E+03    0.43081E-06   -0.34756E-07  2122   0.980E-04
   21 T=    62. E= -.41286627E+03 F= -.41317192E+03 E0= -.41314993E+03  EK= 0.30565E+00 SP= 0.00E+00 SK= 0.00E+00
       N       E                     dE             d eps       ncg     rms          rms(c)
RMM:   1    -0.413163612280E+03    0.83088E-02   -0.11435E+01  4300   0.789E-01    0.912E-01
RMM:   2    -0.413174227816E+03   -0.10616E-01   -0.13989E-01  4279   0.998E-02    0.643E-01
RMM:   3    -0.413173527497E+03    0.70032E-03   -0.66403E-03  4889   0.394E-02    0.176E-01
RMM:   4    -0.413207138490E+03   -0.33611E-01   -0.34503E-02  5145   0.154E-01    0.762E-01
RMM:   5    -0.413173014561E+03    0.34124E-01   -0.16829E-02  4799   0.127E-01    0.380E-02
RMM:   6    -0.413173200030E+03   -0.18547E-03   -0.26623E-03  5775   0.501E-02    0.188E-02
RMM:   7    -0.413173210935E+03   -0.10906E-04   -0.30416E-04  5882   0.146E-02    0.141E-02
RMM:   8    -0.413173208428E+03    0.25074E-05   -0.40609E-05  4588   0.564E-03    0.928E-03
RMM:   9    -0.413173202684E+03    0.57445E-05   -0.65479E-06  3019   0.291E-03    0.628E-03
RMM:  10    -0.413173197374E+03    0.53092E-05   -0.20548E-06  2544   0.217E-03    0.320E-03
RMM:  11    -0.413173192947E+03    0.44275E-05   -0.15729E-06  2530   0.191E-03    0.158E-03
RMM:  12    -0.413173189715E+03    0.32323E-05   -0.73332E-07  2440   0.142E-03    0.531E-04
RMM:  13    -0.413173188586E+03    0.11287E-05   -0.32220E-07  2110   0.962E-04    0.322E-04
RMM:  14    -0.413173186973E+03    0.16133E-05   -0.18258E-07  1585   0.765E-04    0.177E-04
RMM:  15    -0.413173184205E+03    0.27675E-05   -0.16245E-07  1536   0.742E-04    0.151E-04
RMM:  16    -0.413173183534E+03    0.67139E-06   -0.70619E-08  1041   0.612E-04
   22 T=    62. E= -.41286663E+03 F= -.41317318E+03 E0= -.41315124E+03  EK= 0.30655E+00 SP= 0.00E+00 SK= 0.00E+00
       N       E                     dE             d eps       ncg     rms          rms(c)
RMM:   1    -0.413164607850E+03    0.85764E-02   -0.11423E+01  4297   0.791E-01    0.915E-01
RMM:   2    -0.413174772409E+03   -0.10165E-01   -0.13830E-01  4285   0.107E-01    0.635E-01
RMM:   3    -0.413174264538E+03    0.50787E-03   -0.68354E-03  4887   0.441E-02    0.182E-01
RMM:   4    -0.413210800250E+03   -0.36536E-01   -0.37674E-02  5148   0.161E-01    0.794E-01
RMM:   5    -0.413173632254E+03    0.37168E-01   -0.18235E-02  4798   0.134E-01    0.403E-02
RMM:   6    -0.413173831130E+03   -0.19888E-03   -0.29266E-03  5781   0.524E-02    0.201E-02
RMM:   7    -0.413173840656E+03   -0.95259E-05   -0.32845E-04  5895   0.153E-02    0.149E-02
RMM:   8    -0.413173836224E+03    0.44315E-05   -0.43547E-05  4659   0.583E-03    0.980E-03
RMM:   9    -0.413173828499E+03    0.77253E-05   -0.70963E-06  3065   0.300E-03    0.665E-03
RMM:  10    -0.413173820722E+03    0.77764E-05   -0.22005E-06  2548   0.228E-03    0.337E-03
RMM:  11    -0.413173814127E+03    0.65951E-05   -0.16331E-06  2525   0.197E-03    0.165E-03
RMM:  12    -0.413173809530E+03    0.45968E-05   -0.76940E-07  2455   0.146E-03    0.546E-04
RMM:  13    -0.413173807976E+03    0.15545E-05   -0.33935E-07  2133   0.991E-04    0.342E-04
RMM:  14    -0.413173805949E+03    0.20269E-05   -0.18825E-07  1648   0.778E-04    0.189E-04
RMM:  15    -0.413173802139E+03    0.38101E-05   -0.16895E-07  1583   0.750E-04    0.160E-04
RMM:  16    -0.413173801462E+03    0.67708E-06   -0.70420E-08  1053   0.611E-04
   23 T=    63. E= -.41286645E+03 F= -.41317380E+03 E0= -.41315191E+03  EK= 0.30735E+00 SP= 0.00E+00 SK= 0.00E+00
       N       E                     dE             d eps       ncg     rms          rms(c)
RMM:   1    -0.413165580565E+03    0.82216E-02   -0.11417E+01  4294   0.794E-01    0.893E-01
RMM:   2    -0.413176952173E+03   -0.11372E-01   -0.14175E-01  4274   0.105E-01    0.643E-01
RMM:   3    -0.413175667526E+03    0.12846E-02   -0.63119E-03  4818   0.404E-02    0.171E-01
RMM:   4    -0.413204369568E+03   -0.28702E-01   -0.29247E-02  5151   0.142E-01    0.705E-01
RMM:   5    -0.413175234215E+03    0.29135E-01   -0.14436E-02  4805   0.118E-01    0.340E-02
RMM:   6    -0.413175395582E+03   -0.16137E-03   -0.22921E-03  5792   0.459E-02    0.173E-02
RMM:   7    -0.413175406520E+03   -0.10938E-04   -0.24723E-04  5797   0.135E-02    0.126E-02
RMM:   8    -0.413175405421E+03    0.10994E-05   -0.35044E-05  4525   0.532E-03    0.877E-03
RMM:   9    -0.413175401005E+03    0.44161E-05   -0.61168E-06  3028   0.291E-03    0.599E-03
RMM:  10    -0.413175398090E+03    0.29144E-05   -0.18938E-06  2544   0.212E-03    0.316E-03
RMM:  11    -0.413175395718E+03    0.23724E-05   -0.15397E-06  2534   0.189E-03    0.157E-03
RMM:  12    -0.413175393913E+03    0.18045E-05   -0.69364E-07  2424   0.137E-03    0.540E-04
RMM:  13    -0.413175393310E+03    0.60284E-06   -0.29142E-07  2026   0.922E-04
   24 T=    63. E= -.41286680E+03 F= -.41317539E+03 E0= -.41315355E+03  EK= 0.30859E+00 SP= 0.00E+00 SK= 0.00E+00
       N       E                     dE             d eps       ncg     rms          rms(c)
RMM:   1    -0.413167001504E+03    0.83924E-02   -0.11533E+01  4296   0.808E-01    0.910E-01
RMM:   2    -0.413177906646E+03   -0.10905E-01   -0.14150E-01  4282   0.106E-01    0.648E-01
RMM:   3    -0.413176678103E+03    0.12285E-02   -0.64688E-03  4775   0.423E-02    0.172E-01
RMM:   4    -0.413205289466E+03   -0.28611E-01   -0.28958E-02  5146   0.142E-01    0.704E-01
RMM:   5    -0.413176259410E+03    0.29030E-01   -0.14308E-02  4803   0.118E-01    0.342E-02
RMM:   6    -0.413176416588E+03   -0.15718E-03   -0.22785E-03  5804   0.456E-02    0.178E-02
RMM:   7    -0.413176425666E+03   -0.90782E-05   -0.23895E-04  5775   0.134E-02    0.125E-02
RMM:   8    -0.413176423364E+03    0.23016E-05   -0.34978E-05  4543   0.534E-03    0.892E-03
RMM:   9    -0.413176417460E+03    0.59038E-05   -0.63938E-06  3079   0.298E-03    0.606E-03
RMM:  10    -0.413176412667E+03    0.47929E-05   -0.19019E-06  2546   0.217E-03    0.319E-03
RMM:  11    -0.413176408411E+03    0.42570E-05   -0.15742E-06  2529   0.192E-03    0.158E-03
RMM:  12    -0.413176405433E+03    0.29776E-05   -0.69427E-07  2427   0.138E-03    0.533E-04
RMM:  13    -0.413176404429E+03    0.10038E-05   -0.29024E-07  2034   0.921E-04    0.329E-04
RMM:  14    -0.413176402913E+03    0.15157E-05   -0.16430E-07  1547   0.747E-04    0.182E-04
RMM:  15    -0.413176400207E+03    0.27068E-05   -0.15195E-07  1570   0.734E-04    0.184E-04
RMM:  16    -0.413176399623E+03    0.58359E-06   -0.59064E-08   972   0.592E-04
   25 T=    63. E= -.41286670E+03 F= -.41317640E+03 E0= -.41315460E+03  EK= 0.30970E+00 SP= 0.00E+00 SK= 0.00E+00
       N       E                     dE             d eps       ncg     rms          rms(c)
RMM:   1    -0.413168143631E+03    0.82566E-02   -0.11558E+01  4293   0.811E-01    0.924E-01
RMM:   2    -0.413178271475E+03   -0.10128E-01   -0.14068E-01  4275   0.109E-01    0.640E-01
RMM:   3    -0.413177671112E+03    0.60036E-03   -0.67650E-03  4698   0.421E-02    0.174E-01
RMM:   4    -0.413201392406E+03   -0.23721E-01   -0.23892E-02  5147   0.129E-01    0.643E-01
RMM:   5    -0.413177344474E+03    0.24048E-01   -0.11996E-02  4811   0.107E-01    0.327E-02
RMM:   6    -0.413177468178E+03   -0.12370E-03   -0.18695E-03  5804   0.410E-02    0.178E-02
RMM:   7    -0.413177471858E+03   -0.36804E-05   -0.18633E-04  5614   0.120E-02    0.114E-02
RMM:   8    -0.413177466675E+03    0.51837E-05   -0.27171E-05  4226   0.479E-03    0.820E-03
RMM:   9    -0.413177458899E+03    0.77762E-05   -0.59916E-06  3061   0.292E-03    0.560E-03
RMM:  10    -0.413177451676E+03    0.72229E-05   -0.16013E-06  2523   0.209E-03    0.308E-03
RMM:  11    -0.413177443409E+03    0.82667E-05   -0.14805E-06  2527   0.190E-03    0.150E-03
RMM:  12    -0.413177438138E+03    0.52705E-05   -0.60165E-07  2407   0.134E-03    0.524E-04
RMM:  13    -0.413177436585E+03    0.15536E-05   -0.25267E-07  1968   0.890E-04    0.328E-04
RMM:  14    -0.413177434296E+03    0.22889E-05   -0.13720E-07  1455   0.724E-04    0.176E-04
RMM:  15    -0.413177429716E+03    0.45801E-05   -0.14841E-07  1698   0.745E-04    0.237E-04
RMM:  16    -0.413177428914E+03    0.80169E-06   -0.49452E-08   926   0.573E-04
   26 T=    63. E= -.41286646E+03 F= -.41317743E+03 E0= -.41315568E+03  EK= 0.31096E+00 SP= 0.00E+00 SK= 0.00E+00
       N       E                     dE             d eps       ncg     rms          rms(c)
RMM:   1    -0.413169431767E+03    0.79979E-02   -0.11528E+01  4292   0.814E-01    0.900E-01
RMM:   2    -0.413180565916E+03   -0.11134E-01   -0.14244E-01  4274   0.103E-01    0.643E-01
RMM:   3    -0.413179646925E+03    0.91899E-03   -0.63403E-03  4677   0.406E-02    0.171E-01
RMM:   4    -0.413200761879E+03   -0.21115E-01   -0.21267E-02  5148   0.122E-01    0.607E-01
RMM:   5    -0.413179385596E+03    0.21376E-01   -0.10705E-02  4814   0.101E-01    0.293E-02
RMM:   6    -0.413179492099E+03   -0.10650E-03   -0.16147E-03  5828   0.382E-02    0.160E-02
RMM:   7    -0.413179497301E+03   -0.52019E-05   -0.15932E-04  5541   0.112E-02    0.102E-02
RMM:   8    -0.413179494156E+03    0.31445E-05   -0.22461E-05  4022   0.442E-03    0.730E-03
RMM:   9    -0.413179489054E+03    0.51029E-05   -0.54740E-06  3007   0.283E-03    0.500E-03
RMM:  10    -0.413179485358E+03    0.36954E-05   -0.15003E-06  2522   0.202E-03    0.279E-03
RMM:  11    -0.413179481120E+03    0.42384E-05   -0.13430E-06  2518   0.180E-03    0.137E-03
RMM:  12    -0.413179478318E+03    0.28021E-05   -0.54804E-07  2384   0.126E-03    0.505E-04
RMM:  13    -0.413179477374E+03    0.94366E-06   -0.22120E-07  1848   0.843E-04
   27 T=    64. E= -.41286683E+03 F= -.41317948E+03 E0= -.41315778E+03  EK= 0.31265E+00 SP= 0.00E+00 SK= 0.00E+00
       N       E                     dE             d eps       ncg     rms          rms(c)
RMM:   1    -0.413171998966E+03    0.74794E-02   -0.11679E+01  4294   0.839E-01    0.909E-01
RMM:   2    -0.413181716203E+03   -0.97172E-02   -0.14617E-01  4271   0.107E-01    0.654E-01
RMM:   3    -0.413180563211E+03    0.11530E-02   -0.64506E-03  4584   0.410E-02    0.168E-01
RMM:   4    -0.413196176528E+03   -0.15613E-01   -0.15964E-02  5157   0.107E-01    0.526E-01
RMM:   5    -0.413180245917E+03    0.15931E-01   -0.78963E-03  4816   0.864E-02    0.259E-02
RMM:   6    -0.413180319376E+03   -0.73459E-04   -0.12397E-03  5850   0.327E-02    0.147E-02
RMM:   7    -0.413180323263E+03   -0.38869E-05   -0.11632E-04  5335   0.961E-03    0.918E-03
RMM:   8    -0.413180318488E+03    0.47748E-05   -0.15836E-05  3677   0.390E-03    0.620E-03
RMM:   9    -0.413180316018E+03    0.24700E-05   -0.46719E-06  2889   0.274E-03    0.444E-03
RMM:  10    -0.413180312228E+03    0.37897E-05   -0.11742E-06  2516   0.187E-03    0.250E-03
RMM:  11    -0.413180307846E+03    0.43817E-05   -0.11588E-06  2511   0.167E-03    0.122E-03
RMM:  12    -0.413180305164E+03    0.26826E-05   -0.47182E-07  2353   0.117E-03    0.434E-04
RMM:  13    -0.413180304296E+03    0.86804E-06   -0.18433E-07  1657   0.779E-04
   28 T=    64. E= -.41286621E+03 F= -.41318030E+03 E0= -.41315866E+03  EK= 0.31409E+00 SP= 0.00E+00 SK= 0.00E+00
       N       E                     dE             d eps       ncg     rms          rms(c)
RMM:   1    -0.413173191387E+03    0.71138E-02   -0.11743E+01  4291   0.840E-01    0.933E-01
RMM:   2    -0.413183484217E+03   -0.10293E-01   -0.14374E-01  4273   0.111E-01    0.646E-01
RMM:   3    -0.413182626482E+03    0.85773E-03   -0.68185E-03  4373   0.402E-02    0.170E-01
RMM:   4    -0.413187527640E+03   -0.49012E-02   -0.53318E-03  5170   0.621E-02    0.293E-01
RMM:   5    -0.413182667503E+03    0.48601E-02   -0.23844E-03  4828   0.478E-02    0.220E-02
RMM:   6    -0.413182673520E+03   -0.60173E-05   -0.40474E-04  5802   0.192E-02    0.153E-02
RMM:   7    -0.413182665777E+03    0.77434E-05   -0.61640E-05  5136   0.778E-03    0.790E-03
RMM:   8    -0.413182656138E+03    0.96388E-05   -0.69778E-06  2996   0.326E-03    0.359E-03
RMM:   9    -0.413182650271E+03    0.58668E-05   -0.13795E-06  2546   0.186E-03    0.236E-03
RMM:  10    -0.413182643035E+03    0.72366E-05   -0.71279E-07  2466   0.137E-03    0.131E-03
RMM:  11    -0.413182636643E+03    0.63918E-05   -0.44935E-07  2200   0.107E-03    0.486E-04
RMM:  12    -0.413182632204E+03    0.44386E-05   -0.23320E-07  1707   0.835E-04    0.210E-04
RMM:  13    -0.413182628949E+03    0.32549E-05   -0.13279E-07  1269   0.701E-04    0.118E-04
RMM:  14    -0.413182624673E+03    0.42764E-05   -0.11647E-07  1442   0.700E-04    0.969E-05
RMM:  15    -0.413182620858E+03    0.38144E-05   -0.92444E-08  1344   0.646E-04    0.100E-04
RMM:  16    -0.413182618462E+03    0.23966E-05   -0.61544E-08  1108   0.578E-04    0.434E-05
RMM:  17    -0.413182616405E+03    0.20572E-05   -0.47223E-08   983   0.558E-04    0.258E-05
RMM:  18    -0.413182615987E+03    0.41728E-06   -0.21645E-08   743   0.517E-04
   29 T=    64. E= -.41286666E+03 F= -.41318262E+03 E0= -.41316102E+03  EK= 0.31596E+00 SP= 0.00E+00 SK= 0.00E+00
       N       E                     dE             d eps       ncg     rms          rms(c)
RMM:   1    -0.413174509318E+03    0.81071E-02   -0.11700E+01  4289   0.846E-01    0.910E-01
RMM:   2    -0.413185516202E+03   -0.11007E-01   -0.14627E-01  4271   0.109E-01    0.646E-01
RMM:   3    -0.413184429085E+03    0.10871E-02   -0.64766E-03  4463   0.428E-02    0.171E-01
RMM:   4    -0.413192725050E+03   -0.82960E-02   -0.87765E-03  5145   0.816E-02    0.385E-01
RMM:   5    -0.413184274348E+03    0.84507E-02   -0.41770E-03  4819   0.630E-02    0.220E-02
RMM:   6    -0.413184296827E+03   -0.22479E-04   -0.65625E-04  5833   0.240E-02    0.145E-02
RMM:   7    -0.413184294718E+03    0.21095E-05   -0.80100E-05  5330   0.859E-03    0.930E-03
RMM:   8    -0.413184286949E+03    0.77688E-05   -0.10278E-05  3355   0.376E-03    0.467E-03
RMM:   9    -0.413184282131E+03    0.48179E-05   -0.22107E-06  2617   0.224E-03    0.295E-03
RMM:  10    -0.413184277314E+03    0.48176E-05   -0.82150E-07  2493   0.148E-03    0.169E-03
RMM:  11    -0.413184272502E+03    0.48114E-05   -0.56565E-07  2384   0.121E-03    0.719E-04
RMM:  12    -0.413184269008E+03    0.34943E-05   -0.29985E-07  1952   0.918E-04    0.257E-04
RMM:  13    -0.413184267370E+03    0.16375E-05   -0.14327E-07  1312   0.711E-04    0.153E-04
RMM:  14    -0.413184264707E+03    0.26639E-05   -0.10846E-07  1239   0.678E-04    0.973E-05
RMM:  15    -0.413184262094E+03    0.26127E-05   -0.84579E-08  1216   0.652E-04    0.748E-05
RMM:  16    -0.413184261014E+03    0.10798E-05   -0.48934E-08   977   0.591E-04    0.550E-05
RMM:  17    -0.413184257929E+03    0.30854E-05   -0.70230E-08  1295   0.628E-04    0.409E-05
RMM:  18    -0.413184257324E+03    0.60435E-06   -0.25079E-08   769   0.522E-04
   30 T=    65. E= -.41286667E+03 F= -.41318426E+03 E0= -.41316271E+03  EK= 0.31759E+00 SP= 0.00E+00 SK= 0.00E+00
       N       E                     dE             d eps       ncg     rms          rms(c)
RMM:   1    -0.413176498937E+03    0.77590E-02   -0.11832E+01  4288   0.880E-01    0.911E-01
RMM:   2    -0.413188105008E+03   -0.11606E-01   -0.15136E-01  4271   0.122E-01    0.660E-01
RMM:   3    -0.413186098849E+03    0.20062E-02   -0.62970E-03  4397   0.403E-02    0.168E-01
RMM:   4    -0.413190735664E+03   -0.46368E-02   -0.52959E-03  5144   0.620E-02    0.287E-01
RMM:   5    -0.413186076590E+03    0.46591E-02   -0.23098E-03  4821   0.468E-02    0.188E-02
RMM:   6    -0.413186081901E+03   -0.53109E-05   -0.36309E-04  5778   0.184E-02    0.133E-02
RMM:   7    -0.413186079669E+03    0.22319E-05   -0.53129E-05  5039   0.728E-03    0.722E-03
RMM:   8    -0.413186074386E+03    0.52825E-05   -0.71996E-06  3071   0.332E-03    0.336E-03
RMM:   9    -0.413186072134E+03    0.22519E-05   -0.13791E-06  2543   0.187E-03    0.209E-03
RMM:  10    -0.413186069239E+03    0.28952E-05   -0.62920E-07  2350   0.124E-03    0.121E-03
RMM:  11    -0.413186066357E+03    0.28824E-05   -0.43456E-07  2153   0.102E-03    0.457E-04
RMM:  12    -0.413186064241E+03    0.21153E-05   -0.23192E-07  1614   0.809E-04    0.189E-04
RMM:  13    -0.413186062774E+03    0.14675E-05   -0.12921E-07  1197   0.686E-04    0.115E-04
RMM:  14    -0.413186060956E+03    0.18182E-05   -0.10211E-07  1231   0.668E-04    0.629E-05
RMM:  15    -0.413186059019E+03    0.19365E-05   -0.83207E-08  1222   0.644E-04    0.659E-05
RMM:  16    -0.413186058174E+03    0.84534E-06   -0.42521E-08   892   0.570E-04
   31 T=    65. E= -.41286675E+03 F= -.41318606E+03 E0= -.41316456E+03  EK= 0.31931E+00 SP= 0.00E+00 SK= 0.00E+00
       N       E                     dE             d eps       ncg     rms          rms(c)
RMM:   1    -0.413184469359E+03    0.15897E-02   -0.11991E+01  4294   0.917E-01    0.938E-01
RMM:   2    -0.413189783439E+03   -0.53141E-02   -0.15183E-01  4271   0.119E-01    0.654E-01
RMM:   3    -0.413188793522E+03    0.98992E-03   -0.68734E-03  4266   0.479E-02    0.176E-01
RMM:   4    -0.413191066468E+03   -0.22729E-02   -0.29906E-03  5085   0.493E-02    0.199E-01
RMM:   5    -0.413188838984E+03    0.22275E-02   -0.10609E-03  4791   0.326E-02    0.206E-02
RMM:   6    -0.413188830987E+03    0.79969E-05   -0.19983E-04  5677   0.144E-02    0.149E-02
RMM:   7    -0.413188818076E+03    0.12911E-04   -0.37075E-05  4658   0.655E-03    0.547E-03
RMM:   8    -0.413188809205E+03    0.88706E-05   -0.50488E-06  2904   0.305E-03    0.284E-03
RMM:   9    -0.413188805281E+03    0.39247E-05   -0.80570E-07  2482   0.166E-03    0.171E-03
RMM:  10    -0.413188798047E+03    0.72335E-05   -0.52858E-07  2315   0.117E-03    0.883E-04
RMM:  11    -0.413188792987E+03    0.50605E-05   -0.28436E-07  1791   0.881E-04    0.357E-04
RMM:  12    -0.413188788151E+03    0.48353E-05   -0.18148E-07  1538   0.771E-04    0.164E-04
RMM:  13    -0.413188784322E+03    0.38294E-05   -0.11769E-07  1302   0.683E-04    0.952E-05
RMM:  14    -0.413188780786E+03    0.35358E-05   -0.86039E-08  1217   0.639E-04    0.699E-05
RMM:  15    -0.413188776220E+03    0.45656E-05   -0.83451E-08  1271   0.637E-04    0.511E-05
RMM:  16    -0.413188774131E+03    0.20895E-05   -0.47122E-08  1000   0.572E-04    0.424E-05
RMM:  17    -0.413188772972E+03    0.11588E-05   -0.30329E-08   816   0.533E-04    0.199E-05
RMM:  18    -0.413188772466E+03    0.50660E-06   -0.17414E-08   686   0.512E-04
   32 T=    65. E= -.41286722E+03 F= -.41318877E+03 E0= -.41316732E+03  EK= 0.32155E+00 SP= 0.00E+00 SK= 0.00E+00
       N       E                     dE             d eps       ncg     rms          rms(c)
RMM:   1    -0.413191321083E+03   -0.25481E-02   -0.12016E+01  4292   0.942E-01    0.924E-01
RMM:   2    -0.413192048166E+03   -0.72708E-03   -0.15635E-01  4279   0.131E-01    0.651E-01
RMM:   3    -0.413190676635E+03    0.13715E-02   -0.64116E-03  4176   0.394E-02    0.181E-01
RMM:   4    -0.413190922266E+03   -0.24563E-03   -0.13068E-03  4950   0.292E-02    0.709E-02
RMM:   5    -0.413190654268E+03    0.26800E-03   -0.14713E-04  4703   0.128E-02    0.199E-02
RMM:   6    -0.413190642179E+03    0.12089E-04   -0.67271E-05  5236   0.878E-03    0.138E-02
RMM:   7    -0.413190628553E+03    0.13626E-04   -0.18241E-05  3724   0.512E-03    0.387E-03
RMM:   8    -0.413190621850E+03    0.67025E-05   -0.27196E-06  2582   0.252E-03    0.231E-03
RMM:   9    -0.413190618958E+03    0.28916E-05   -0.55351E-07  2314   0.141E-03    0.136E-03
RMM:  10    -0.413190612830E+03    0.61287E-05   -0.34331E-07  1873   0.958E-04    0.583E-04
RMM:  11    -0.413190606698E+03    0.61320E-05   -0.20989E-07  1571   0.771E-04    0.226E-04
RMM:  12    -0.413190603884E+03    0.28136E-05   -0.92006E-08  1241   0.634E-04    0.147E-04
RMM:  13    -0.413190597601E+03    0.62836E-05   -0.10065E-07  1284   0.656E-04    0.859E-05
RMM:  14    -0.413190594368E+03    0.32323E-05   -0.46464E-08   929   0.563E-04    0.671E-05
RMM:  15    -0.413190592430E+03    0.19385E-05   -0.27341E-08   792   0.527E-04    0.485E-05
RMM:  16    -0.413190589356E+03    0.30741E-05   -0.39214E-08   949   0.555E-04    0.401E-05
RMM:  17    -0.413190589146E+03    0.20931E-06   -0.81412E-09   529   0.470E-04
   33 T=    66. E= -.41286692E+03 F= -.41319059E+03 E0= -.41316919E+03  EK= 0.32366E+00 SP= 0.00E+00 SK= 0.00E+00
       N       E                     dE             d eps       ncg     rms          rms(c)
RMM:   1    -0.413184996020E+03    0.55933E-02   -0.12059E+01  4291   0.923E-01    0.915E-01
RMM:   2    -0.413194700213E+03   -0.97042E-02   -0.15675E-01  4265   0.127E-01    0.664E-01
RMM:   3    -0.413193179730E+03    0.15205E-02   -0.63416E-03  4415   0.448E-02    0.176E-01
RMM:   4    -0.413200034141E+03   -0.68544E-02   -0.73648E-03  5147   0.756E-02    0.349E-01
RMM:   5    -0.413193171013E+03    0.68631E-02   -0.33447E-03  4807   0.571E-02    0.216E-02
RMM:   6    -0.413193158747E+03    0.12266E-04   -0.52253E-04  5771   0.231E-02    0.139E-02
RMM:   7    -0.413193158978E+03   -0.23159E-06   -0.70880E-05  5208   0.834E-03    0.826E-03
RMM:   8    -0.413193153655E+03    0.53234E-05   -0.10202E-05  3388   0.376E-03    0.407E-03
RMM:   9    -0.413193150688E+03    0.29666E-05   -0.20146E-06  2593   0.218E-03    0.234E-03
RMM:  10    -0.413193147351E+03    0.33367E-05   -0.73085E-07  2447   0.138E-03    0.131E-03
RMM:  11    -0.413193143681E+03    0.36701E-05   -0.50235E-07  2299   0.112E-03    0.584E-04
RMM:  12    -0.413193140711E+03    0.29708E-05   -0.29405E-07  1858   0.888E-04    0.221E-04
RMM:  13    -0.413193139261E+03    0.14500E-05   -0.13946E-07  1222   0.696E-04    0.139E-04
RMM:  14    -0.413193137420E+03    0.18402E-05   -0.10097E-07  1113   0.663E-04    0.761E-05
RMM:  15    -0.413193135357E+03    0.20634E-05   -0.82833E-08  1157   0.650E-04    0.545E-05
RMM:  16    -0.413193134751E+03    0.60634E-06   -0.43977E-08   877   0.591E-04
   34 T=    66. E= -.41286705E+03 F= -.41319313E+03 E0= -.41317178E+03  EK= 0.32609E+00 SP= 0.00E+00 SK= 0.00E+00
       N       E                     dE             d eps       ncg     rms          rms(c)
RMM:   1    -0.413186761518E+03    0.63738E-02   -0.12177E+01  4300   0.947E-01    0.942E-01
RMM:   2    -0.413197010146E+03   -0.10249E-01   -0.15826E-01  4263   0.135E-01    0.664E-01
RMM:   3    -0.413195888951E+03    0.11212E-02   -0.66434E-03  4516   0.445E-02    0.184E-01
RMM:   4    -0.413205611988E+03   -0.97230E-02   -0.10207E-02  5162   0.866E-02    0.419E-01
RMM:   5    -0.413195690964E+03    0.99210E-02   -0.50291E-03  4818   0.691E-02    0.251E-02
RMM:   6    -0.413195681404E+03    0.95592E-05   -0.79499E-04  5789   0.273E-02    0.154E-02
RMM:   7    -0.413195679700E+03    0.17044E-05   -0.10518E-04  5410   0.932E-03    0.963E-03
RMM:   8    -0.413195671455E+03    0.82452E-05   -0.13255E-05  3610   0.398E-03    0.499E-03
RMM:   9    -0.413195665193E+03    0.62619E-05   -0.25632E-06  2648   0.234E-03    0.285E-03
RMM:  10    -0.413195658476E+03    0.67169E-05   -0.90919E-07  2498   0.154E-03    0.155E-03
RMM:  11    -0.413195651751E+03    0.67253E-05   -0.59820E-07  2404   0.123E-03    0.720E-04
RMM:  12    -0.413195645975E+03    0.57757E-05   -0.33755E-07  2088   0.961E-04    0.259E-04
RMM:  13    -0.413195643709E+03    0.22658E-05   -0.15428E-07  1365   0.725E-04    0.171E-04
RMM:  14    -0.413195640070E+03    0.36398E-05   -0.10489E-07  1148   0.671E-04    0.104E-04
RMM:  15    -0.413195636032E+03    0.40378E-05   -0.87137E-08  1221   0.661E-04    0.688E-05
RMM:  16    -0.413195634416E+03    0.16157E-05   -0.53188E-08  1004   0.605E-04    0.555E-05
RMM:  17    -0.413195630402E+03    0.40141E-05   -0.62803E-08  1267   0.631E-04    0.504E-05
RMM:  18    -0.413195629037E+03    0.13645E-05   -0.30046E-08   872   0.545E-04    0.238E-05
RMM:  19    -0.413195628807E+03    0.23074E-06   -0.16201E-08   687   0.515E-04
   35 T=    67. E= -.41286699E+03 F= -.41319563E+03 E0= -.41317432E+03  EK= 0.32864E+00 SP= 0.00E+00 SK= 0.00E+00
       N       E                     dE             d eps       ncg     rms          rms(c)
RMM:   1    -0.413189182487E+03    0.64466E-02   -0.12212E+01  4299   0.964E-01    0.942E-01
RMM:   2    -0.413198929688E+03   -0.97472E-02   -0.15668E-01  4260   0.120E-01    0.657E-01
RMM:   3    -0.413198141379E+03    0.78831E-03   -0.69418E-03  4840   0.454E-02    0.197E-01
RMM:   4    -0.413232097526E+03   -0.33956E-01   -0.34298E-02  5152   0.155E-01    0.767E-01
RMM:   5    -0.413197736871E+03    0.34361E-01   -0.17253E-02  4799   0.128E-01    0.388E-02
RMM:   6    -0.413197809529E+03   -0.72659E-04   -0.27245E-03  5862   0.486E-02    0.194E-02
RMM:   7    -0.413197821256E+03   -0.11727E-04   -0.27274E-04  5741   0.140E-02    0.131E-02
RMM:   8    -0.413197814442E+03    0.68147E-05   -0.34058E-05  4373   0.524E-03    0.892E-03
RMM:   9    -0.413197808900E+03    0.55417E-05   -0.10271E-05  3612   0.357E-03    0.616E-03
RMM:  10    -0.413197799133E+03    0.97672E-05   -0.24396E-06  2575   0.258E-03    0.287E-03
RMM:  11    -0.413197791614E+03    0.75184E-05   -0.16628E-06  2523   0.201E-03    0.164E-03
RMM:  12    -0.413197784090E+03    0.75244E-05   -0.76091E-07  2458   0.155E-03    0.626E-04
RMM:  13    -0.413197781632E+03    0.24582E-05   -0.30736E-07  2184   0.999E-04    0.440E-04
RMM:  14    -0.413197779756E+03    0.18757E-05   -0.13397E-07  1483   0.727E-04    0.252E-04
RMM:  15    -0.413197772923E+03    0.68332E-05   -0.15949E-07  1974   0.784E-04    0.376E-04
RMM:  16    -0.413197772211E+03    0.71192E-06   -0.42980E-08   927   0.556E-04
   36 T=    67. E= -.41286677E+03 F= -.41319777E+03 E0= -.41317651E+03  EK= 0.33100E+00 SP= 0.00E+00 SK= 0.00E+00
       N       E                     dE             d eps       ncg     rms          rms(c)
RMM:   1    -0.413194088233E+03    0.36847E-02   -0.12307E+01  4300   0.101E+00    0.924E-01
RMM:   2    -0.413202479015E+03   -0.83908E-02   -0.16111E-01  4259   0.134E-01    0.669E-01
RMM:   3    -0.413201284400E+03    0.11946E-02   -0.67777E-03  4839   0.530E-02    0.202E-01
RMM:   4    -0.413245181265E+03   -0.43897E-01   -0.45024E-02  5156   0.177E-01    0.869E-01
RMM:   5    -0.413200555006E+03    0.44626E-01   -0.22495E-02  4801   0.146E-01    0.418E-02
RMM:   6    -0.413200669571E+03   -0.11457E-03   -0.34083E-03  5859   0.549E-02    0.200E-02
RMM:   7    -0.413200685600E+03   -0.16029E-04   -0.33692E-04  5749   0.155E-02    0.135E-02
RMM:   8    -0.413200682929E+03    0.26707E-05   -0.40005E-05  4180   0.527E-03    0.918E-03
RMM:   9    -0.413200676266E+03    0.66633E-05   -0.10286E-05  3528   0.358E-03    0.552E-03
RMM:  10    -0.413200672268E+03    0.39981E-05   -0.32896E-06  2667   0.262E-03    0.290E-03
RMM:  11    -0.413200667091E+03    0.51769E-05   -0.15793E-06  2512   0.202E-03    0.163E-03
RMM:  12    -0.413200662239E+03    0.48525E-05   -0.75009E-07  2454   0.148E-03    0.598E-04
RMM:  13    -0.413200660116E+03    0.21227E-05   -0.32191E-07  2187   0.100E-03    0.362E-04
RMM:  14    -0.413200658369E+03    0.17464E-05   -0.15238E-07  1552   0.748E-04    0.218E-04
RMM:  15    -0.413200653867E+03    0.45027E-05   -0.13827E-07  1603   0.732E-04    0.195E-04
RMM:  16    -0.413200653202E+03    0.66458E-06   -0.51254E-08   982   0.588E-04
   37 T=    68. E= -.41286692E+03 F= -.41320065E+03 E0= -.41317943E+03  EK= 0.33374E+00 SP= 0.00E+00 SK= 0.00E+00
       N       E                     dE             d eps       ncg     rms          rms(c)
RMM:   1    -0.413195419481E+03    0.52344E-02   -0.12457E+01  4308   0.104E+00    0.946E-01
RMM:   2    -0.413205363451E+03   -0.99440E-02   -0.16292E-01  4258   0.130E-01    0.673E-01
RMM:   3    -0.413203879628E+03    0.14838E-02   -0.68737E-03  4761   0.507E-02    0.200E-01
RMM:   4    -0.413237865312E+03   -0.33986E-01   -0.34252E-02  5158   0.155E-01    0.768E-01
RMM:   5    -0.413203429790E+03    0.34436E-01   -0.17493E-02  4810   0.128E-01    0.375E-02
RMM:   6    -0.413203496359E+03   -0.66569E-04   -0.26108E-03  5844   0.482E-02    0.188E-02
RMM:   7    -0.413203510345E+03   -0.13986E-04   -0.27496E-04  5792   0.140E-02    0.133E-02
RMM:   8    -0.413203504359E+03    0.59860E-05   -0.35795E-05  4535   0.540E-03    0.895E-03
RMM:   9    -0.413203499742E+03    0.46166E-05   -0.91987E-06  3437   0.342E-03    0.587E-03
RMM:  10    -0.413203491623E+03    0.81190E-05   -0.22954E-06  2546   0.243E-03    0.275E-03
RMM:  11    -0.413203485585E+03    0.60377E-05   -0.14810E-06  2514   0.190E-03    0.151E-03
RMM:  12    -0.413203479533E+03    0.60526E-05   -0.70077E-07  2448   0.146E-03    0.569E-04
RMM:  13    -0.413203477323E+03    0.22094E-05   -0.30173E-07  2151   0.978E-04    0.385E-04
RMM:  14    -0.413203475446E+03    0.18771E-05   -0.14129E-07  1487   0.732E-04    0.218E-04
RMM:  15    -0.413203469825E+03    0.56213E-05   -0.13469E-07  1675   0.743E-04    0.230E-04
RMM:  16    -0.413203468939E+03    0.88576E-06   -0.48056E-08   936   0.582E-04
   38 T=    68. E= -.41286721E+03 F= -.41320347E+03 E0= -.41318229E+03  EK= 0.33626E+00 SP= 0.00E+00 SK= 0.00E+00
       N       E                     dE             d eps       ncg     rms          rms(c)
RMM:   1    -0.413200824190E+03    0.26456E-02   -0.12540E+01  4305   0.108E+00    0.958E-01
RMM:   2    -0.413206800356E+03   -0.59762E-02   -0.16620E-01  4263   0.126E-01    0.667E-01
RMM:   3    -0.413206208631E+03    0.59173E-03   -0.74176E-03  4968   0.538E-02    0.227E-01
RMM:   4    -0.413256522985E+03   -0.50314E-01   -0.53233E-02  5141   0.192E-01    0.931E-01
RMM:   5    -0.413205153162E+03    0.51370E-01   -0.25561E-02  4791   0.157E-01    0.473E-02
RMM:   6    -0.413205306854E+03   -0.15369E-03   -0.39785E-03  5837   0.589E-02    0.220E-02
RMM:   7    -0.413205325252E+03   -0.18398E-04   -0.40200E-04  5807   0.168E-02    0.150E-02
RMM:   8    -0.413205322316E+03    0.29365E-05   -0.54705E-05  4694   0.612E-03    0.109E-02
RMM:   9    -0.413205312645E+03    0.96711E-05   -0.12573E-05  3800   0.382E-03    0.689E-03
RMM:  10    -0.413205302325E+03    0.10319E-04   -0.36313E-06  2666   0.289E-03    0.319E-03
RMM:  11    -0.413205294787E+03    0.75387E-05   -0.17036E-06  2515   0.210E-03    0.186E-03
RMM:  12    -0.413205286111E+03    0.86754E-05   -0.85922E-07  2467   0.163E-03    0.652E-04
RMM:  13    -0.413205281854E+03    0.42572E-05   -0.36141E-07  2275   0.108E-03    0.423E-04
RMM:  14    -0.413205278739E+03    0.31149E-05   -0.17256E-07  1711   0.786E-04    0.275E-04
RMM:  15    -0.413205270593E+03    0.81464E-05   -0.14892E-07  1786   0.766E-04    0.255E-04
RMM:  16    -0.413205269804E+03    0.78839E-06   -0.55140E-08  1006   0.580E-04
   39 T=    69. E= -.41286677E+03 F= -.41320527E+03 E0= -.41318413E+03  EK= 0.33850E+00 SP= 0.00E+00 SK= 0.00E+00
       N       E                     dE             d eps       ncg     rms          rms(c)
RMM:   1    -0.413202105547E+03    0.31650E-02   -0.12544E+01  4309   0.113E+00    0.935E-01
RMM:   2    -0.413210334414E+03   -0.82289E-02   -0.16788E-01  4263   0.133E-01    0.672E-01
RMM:   3    -0.413209573701E+03    0.76071E-03   -0.71364E-03  4994   0.535E-02    0.235E-01
RMM:   4    -0.413263691830E+03   -0.54118E-01   -0.58524E-02  5137   0.200E-01    0.964E-01
RMM:   5    -0.413208300103E+03    0.55392E-01   -0.27271E-02  4786   0.162E-01    0.494E-02
RMM:   6    -0.413208485369E+03   -0.18527E-03   -0.43846E-03  5825   0.611E-02    0.215E-02
RMM:   7    -0.413208509258E+03   -0.23889E-04   -0.44205E-04  5879   0.175E-02    0.153E-02
RMM:   8    -0.413208509102E+03    0.15602E-06   -0.61950E-05  4890   0.655E-03    0.114E-02
RMM:   9    -0.413208500796E+03    0.83052E-05   -0.12403E-05  3714   0.383E-03    0.690E-03
RMM:  10    -0.413208493451E+03    0.73457E-05   -0.38085E-06  2669   0.291E-03    0.318E-03
RMM:  11    -0.413208488382E+03    0.50684E-05   -0.17287E-06  2512   0.211E-03    0.184E-03
RMM:  12    -0.413208482745E+03    0.56377E-05   -0.88754E-07  2471   0.163E-03    0.671E-04
RMM:  13    -0.413208480084E+03    0.26603E-05   -0.37886E-07  2273   0.109E-03    0.433E-04
RMM:  14    -0.413208477837E+03    0.22471E-05   -0.19060E-07  1762   0.801E-04    0.270E-04
RMM:  15    -0.413208472185E+03    0.56517E-05   -0.15932E-07  1701   0.760E-04    0.239E-04
RMM:  16    -0.413208471686E+03    0.49917E-06   -0.62143E-08  1036   0.592E-04
   40 T=    69. E= -.41286738E+03 F= -.41320847E+03 E0= -.41318736E+03  EK= 0.34109E+00 SP= 0.00E+00 SK= 0.00E+00
       N       E                     dE             d eps       ncg     rms          rms(c)
RMM:   1    -0.413205370575E+03    0.31016E-02   -0.12723E+01  4301   0.118E+00    0.947E-01
RMM:   2    -0.413211521808E+03   -0.61512E-02   -0.17402E-01  4267   0.138E-01    0.683E-01
RMM:   3    -0.413211255436E+03    0.26637E-03   -0.76046E-03  5049   0.561E-02    0.257E-01
RMM:   4    -0.413267159674E+03   -0.55904E-01   -0.62891E-02  5134   0.208E-01    0.984E-01
RMM:   5    -0.413209529427E+03    0.57630E-01   -0.27923E-02  4773   0.166E-01    0.525E-02
RMM:   6    -0.413209725875E+03   -0.19645E-03   -0.45821E-03  5819   0.623E-02    0.213E-02
RMM:   7    -0.413209752032E+03   -0.26157E-04   -0.47294E-04  5931   0.181E-02    0.160E-02
RMM:   8    -0.413209752236E+03   -0.20405E-06   -0.68384E-05  5032   0.696E-03    0.117E-02
RMM:   9    -0.413209743533E+03    0.87032E-05   -0.11282E-05  3556   0.384E-03    0.649E-03
RMM:  10    -0.413209736261E+03    0.72720E-05   -0.40003E-06  2680   0.294E-03    0.297E-03
RMM:  11    -0.413209731128E+03    0.51326E-05   -0.16768E-06  2518   0.207E-03    0.160E-03
RMM:  12    -0.413209725929E+03    0.51996E-05   -0.82358E-07  2464   0.155E-03    0.627E-04
RMM:  13    -0.413209723308E+03    0.26207E-05   -0.35904E-07  2222   0.106E-03    0.404E-04
RMM:  14    -0.413209720240E+03    0.30683E-05   -0.19648E-07  1723   0.806E-04    0.261E-04
RMM:  15    -0.413209715765E+03    0.44745E-05   -0.13814E-07  1471   0.726E-04    0.163E-04
RMM:  16    -0.413209714618E+03    0.11474E-05   -0.68877E-08  1048   0.616E-04    0.801E-05
RMM:  17    -0.413209712443E+03    0.21746E-05   -0.55173E-08  1022   0.610E-04    0.469E-05
RMM:  18    -0.413209708764E+03    0.36790E-05   -0.67320E-08  1254   0.638E-04    0.504E-05
RMM:  19    -0.413209708240E+03    0.52452E-06   -0.25381E-08   809   0.560E-04
   41 T=    70. E= -.41286681E+03 F= -.41320971E+03 E0= -.41318863E+03  EK= 0.34290E+00 SP= 0.00E+00 SK= 0.00E+00
       N       E                     dE             d eps       ncg     rms          rms(c)
RMM:   1    -0.413213848257E+03   -0.41395E-02   -0.12848E+01  4308   0.127E+00    0.971E-01
RMM:   2    -0.413213190623E+03    0.65763E-03   -0.17706E-01  4291   0.145E-01    0.675E-01
RMM:   3    -0.413216055689E+03   -0.28651E-02   -0.10149E-02  5126   0.733E-02    0.336E-01
RMM:   4    -0.413249059212E+03   -0.33004E-01   -0.49314E-02  5090   0.186E-01    0.802E-01
RMM:   5    -0.413212123938E+03    0.36935E-01   -0.16513E-02  4726   0.134E-01    0.497E-02
RMM:   6    -0.413212170725E+03   -0.46787E-04   -0.27145E-03  5754   0.493E-02    0.192E-02
RMM:   7    -0.413212182982E+03   -0.12258E-04   -0.31887E-04  5880   0.154E-02    0.147E-02
RMM:   8    -0.413212180282E+03    0.27005E-05   -0.50589E-05  4886   0.629E-03    0.946E-03
RMM:   9    -0.413212168147E+03    0.12135E-04   -0.87734E-06  3278   0.390E-03    0.432E-03
RMM:  10    -0.413212159503E+03    0.86439E-05   -0.26620E-06  2570   0.243E-03    0.222E-03
RMM:  11    -0.413212152168E+03    0.73351E-05   -0.10063E-06  2508   0.160E-03    0.100E-03
RMM:  12    -0.413212146539E+03    0.56292E-05   -0.41624E-07  2302   0.112E-03    0.490E-04
RMM:  13    -0.413212141240E+03    0.52990E-05   -0.24601E-07  1644   0.847E-04    0.240E-04
RMM:  14    -0.413212137608E+03    0.36321E-05   -0.15451E-07  1351   0.732E-04    0.148E-04
RMM:  15    -0.413212132018E+03    0.55898E-05   -0.12756E-07  1379   0.713E-04    0.819E-05
RMM:  16    -0.413212128179E+03    0.38384E-05   -0.94585E-08  1331   0.661E-04    0.558E-05
RMM:  17    -0.413212124370E+03    0.38090E-05   -0.75114E-08  1283   0.623E-04    0.455E-05
RMM:  18    -0.413212122406E+03    0.19646E-05   -0.47757E-08  1020   0.565E-04    0.284E-05
RMM:  19    -0.413212121835E+03    0.57091E-06   -0.28549E-08   816   0.530E-04
   42 T=    70. E= -.41286730E+03 F= -.41321212E+03 E0= -.41319108E+03  EK= 0.34482E+00 SP= 0.00E+00 SK= 0.00E+00
       N       E                     dE             d eps       ncg     rms          rms(c)
RMM:   1    -0.413214404961E+03   -0.22826E-02   -0.12800E+01  4310   0.134E+00    0.946E-01
RMM:   2    -0.413214980396E+03   -0.57544E-03   -0.17533E-01  4298   0.153E-01    0.675E-01
RMM:   3    -0.413219049409E+03   -0.40690E-02   -0.10983E-02  5111   0.820E-02    0.370E-01
RMM:   4    -0.413246440075E+03   -0.27391E-01   -0.47186E-02  5064   0.184E-01    0.756E-01
RMM:   5    -0.413213898425E+03    0.32542E-01   -0.14118E-02  4704   0.127E-01    0.483E-02
RMM:   6    -0.413213919891E+03   -0.21466E-04   -0.23762E-03  5729   0.461E-02    0.182E-02
RMM:   7    -0.413213928880E+03   -0.89886E-05   -0.27327E-04  5874   0.147E-02    0.141E-02
RMM:   8    -0.413213926251E+03    0.26291E-05   -0.44411E-05  4818   0.605E-03    0.881E-03
RMM:   9    -0.413213916100E+03    0.10151E-04   -0.84841E-06  3255   0.399E-03    0.410E-03
RMM:  10    -0.413213909719E+03    0.63813E-05   -0.24240E-06  2563   0.239E-03    0.223E-03
RMM:  11    -0.413213904330E+03    0.53886E-05   -0.10272E-06  2510   0.159E-03    0.103E-03
RMM:  12    -0.413213900402E+03    0.39289E-05   -0.43528E-07  2303   0.111E-03    0.498E-04
RMM:  13    -0.413213896118E+03    0.42833E-05   -0.28413E-07  1694   0.870E-04    0.254E-04
RMM:  14    -0.413213893774E+03    0.23447E-05   -0.16860E-07  1323   0.733E-04    0.147E-04
RMM:  15    -0.413213889942E+03    0.38313E-05   -0.13491E-07  1299   0.704E-04    0.750E-05
RMM:  16    -0.413213886788E+03    0.31540E-05   -0.10162E-07  1237   0.668E-04    0.509E-05
RMM:  17    -0.413213883988E+03    0.27999E-05   -0.78200E-08  1202   0.633E-04    0.404E-05
RMM:  18    -0.413213881711E+03    0.22770E-05   -0.59097E-08  1112   0.598E-04    0.376E-05
RMM:  19    -0.413213881000E+03    0.71148E-06   -0.34620E-08   847   0.540E-04
   43 T=    71. E= -.41286739E+03 F= -.41321388E+03 E0= -.41319286E+03  EK= 0.34650E+00 SP= 0.00E+00 SK= 0.00E+00
       N       E                     dE             d eps       ncg     rms          rms(c)
RMM:   1    -0.413240396212E+03   -0.26515E-01   -0.13178E+01  4311   0.151E+00    0.948E-01
RMM:   2    -0.413215973712E+03    0.24422E-01   -0.20003E-01  4297   0.174E-01    0.692E-01
RMM:   3    -0.413221455610E+03   -0.54819E-02   -0.12275E-02  5108   0.920E-02    0.421E-01
RMM:   4    -0.413245352469E+03   -0.23897E-01   -0.48135E-02  5056   0.186E-01    0.740E-01
RMM:   5    -0.413214610549E+03    0.30742E-01   -0.13229E-02  4677   0.126E-01    0.508E-02
RMM:   6    -0.413214612940E+03   -0.23904E-05   -0.22743E-03  5677   0.452E-02    0.186E-02
RMM:   7    -0.413214621804E+03   -0.88642E-05   -0.26822E-04  5898   0.148E-02    0.146E-02
RMM:   8    -0.413214619140E+03    0.26642E-05   -0.42302E-05  4808   0.601E-03    0.895E-03
RMM:   9    -0.413214610317E+03    0.88224E-05   -0.98599E-06  3421   0.436E-03    0.435E-03
RMM:  10    -0.413214605166E+03    0.51511E-05   -0.27096E-06  2596   0.251E-03    0.252E-03
RMM:  11    -0.413214601076E+03    0.40905E-05   -0.12621E-06  2521   0.175E-03    0.112E-03
RMM:  12    -0.413214598225E+03    0.28511E-05   -0.52407E-07  2415   0.123E-03    0.586E-04
RMM:  13    -0.413214594609E+03    0.36155E-05   -0.36483E-07  1813   0.962E-04    0.341E-04
RMM:  14    -0.413214592776E+03    0.18332E-05   -0.20229E-07  1398   0.781E-04    0.187E-04
RMM:  15    -0.413214590354E+03    0.24218E-05   -0.14868E-07  1266   0.721E-04    0.101E-04
RMM:  16    -0.413214587340E+03    0.30145E-05   -0.12415E-07  1312   0.696E-04    0.552E-05
RMM:  17    -0.413214585905E+03    0.14353E-05   -0.77620E-08  1097   0.626E-04    0.471E-05
RMM:  18    -0.413214583716E+03    0.21885E-05   -0.67723E-08  1106   0.609E-04    0.330E-05
RMM:  19    -0.413214582689E+03    0.10268E-05   -0.43911E-08   922   0.565E-04    0.252E-05
RMM:  20    -0.413214582282E+03    0.40717E-06   -0.26458E-08   775   0.538E-04
   44 T=    71. E= -.41286703E+03 F= -.41321458E+03 E0= -.41319359E+03  EK= 0.34755E+00 SP= 0.00E+00 SK= 0.00E+00
       N       E                     dE             d eps       ncg     rms          rms(c)
RMM:   1    -0.413238606337E+03   -0.24024E-01   -0.13209E+01  4307   0.157E+00    0.977E-01
RMM:   2    -0.413216462637E+03    0.22144E-01   -0.18757E-01  4354   0.181E-01    0.683E-01
RMM:   3    -0.413229459680E+03   -0.12997E-01   -0.19012E-02  5140   0.118E-01    0.540E-01
RMM:   4    -0.413230900158E+03   -0.14405E-02   -0.37338E-02  5012   0.169E-01    0.535E-01
RMM:   5    -0.413216113958E+03    0.14786E-01   -0.57042E-03  4557   0.937E-02    0.429E-02
RMM:   6    -0.413216064346E+03    0.49611E-04   -0.97878E-04  5297   0.310E-02    0.170E-02
RMM:   7    -0.413216063228E+03    0.11181E-05   -0.11028E-04  5652   0.102E-02    0.126E-02
RMM:   8    -0.413216058556E+03    0.46727E-05   -0.30448E-05  4877   0.551E-03    0.791E-03
RMM:   9    -0.413216042855E+03    0.15701E-04   -0.88705E-06  3445   0.430E-03    0.393E-03
RMM:  10    -0.413216037361E+03    0.54937E-05   -0.14481E-06  2533   0.204E-03    0.183E-03
RMM:  11    -0.413216031092E+03    0.62697E-05   -0.92264E-07  2486   0.151E-03    0.940E-04
RMM:  12    -0.413216025409E+03    0.56823E-05   -0.40058E-07  2355   0.110E-03    0.480E-04
RMM:  13    -0.413216020721E+03    0.46882E-05   -0.21081E-07  1445   0.782E-04    0.234E-04
RMM:  14    -0.413216017513E+03    0.32080E-05   -0.12512E-07  1185   0.682E-04    0.150E-04
RMM:  15    -0.413216011402E+03    0.61107E-05   -0.12127E-07  1354   0.697E-04    0.942E-05
RMM:  16    -0.413216008390E+03    0.30127E-05   -0.72027E-08  1102   0.613E-04    0.855E-05
RMM:  17    -0.413216005400E+03    0.29892E-05   -0.52470E-08   995   0.580E-04    0.504E-05
RMM:  18    -0.413216002895E+03    0.25057E-05   -0.47462E-08  1008   0.568E-04    0.278E-05
RMM:  19    -0.413216002197E+03    0.69736E-06   -0.22244E-08   722   0.516E-04
   45 T=    71. E= -.41286741E+03 F= -.41321600E+03 E0= -.41319503E+03  EK= 0.34859E+00 SP= 0.00E+00 SK= 0.00E+00
       N       E                     dE             d eps       ncg     rms          rms(c)
RMM:   1    -0.413235326585E+03   -0.19324E-01   -0.13082E+01  4307   0.165E+00    0.958E-01
RMM:   2    -0.413216243009E+03    0.19084E-01   -0.18466E-01  4369   0.190E-01    0.679E-01
RMM:   3    -0.413231805047E+03   -0.15562E-01   -0.21168E-02  5135   0.128E-01    0.581E-01
RMM:   4    -0.413228426013E+03    0.33790E-02   -0.36830E-02  4988   0.169E-01    0.498E-01
RMM:   5    -0.413215828515E+03    0.12597E-01   -0.49640E-03  4543   0.906E-02    0.433E-02
RMM:   6    -0.413215757937E+03    0.70577E-04   -0.74964E-04  5056   0.284E-02    0.168E-02
RMM:   7    -0.413215757487E+03    0.45050E-06   -0.95253E-05  5665   0.930E-03    0.107E-02
RMM:   8    -0.413215751191E+03    0.62962E-05   -0.25930E-05  4814   0.552E-03    0.681E-03
RMM:   9    -0.413215740165E+03    0.11026E-04   -0.11131E-05  3860   0.408E-03    0.432E-03
RMM:  10    -0.413215736290E+03    0.38750E-05   -0.17305E-06  2507   0.218E-03    0.182E-03
RMM:  11    -0.413215731258E+03    0.50323E-05   -0.12733E-06  2457   0.178E-03    0.108E-03
RMM:  12    -0.413215726128E+03    0.51295E-05   -0.50898E-07  2349   0.129E-03    0.639E-04
RMM:  13    -0.413215722208E+03    0.39200E-05   -0.22347E-07  1737   0.852E-04    0.334E-04
RMM:  14    -0.413215718559E+03    0.36494E-05   -0.12150E-07  1206   0.684E-04    0.170E-04
RMM:  15    -0.413215713071E+03    0.54881E-05   -0.12063E-07  1394   0.689E-04    0.152E-04
RMM:  16    -0.413215710209E+03    0.28618E-05   -0.62575E-08   952   0.571E-04    0.130E-04
RMM:  17    -0.413215707094E+03    0.31145E-05   -0.51477E-08   904   0.553E-04    0.484E-05
RMM:  18    -0.413215704902E+03    0.21919E-05   -0.35982E-08   827   0.541E-04    0.449E-05
RMM:  19    -0.413215703899E+03    0.10030E-05   -0.20485E-08   675   0.515E-04    0.257E-05
RMM:  20    -0.413215703238E+03    0.66180E-06   -0.12483E-08   590   0.500E-04
   46 T=    71. E= -.41286714E+03 F= -.41321570E+03 E0= -.41319475E+03  EK= 0.34856E+00 SP= 0.00E+00 SK= 0.00E+00
       N       E                     dE             d eps       ncg     rms          rms(c)
RMM:   1    -0.413257606267E+03   -0.41902E-01   -0.13356E+01  4310   0.180E+00    0.944E-01
RMM:   2    -0.413215748558E+03    0.41858E-01   -0.22022E-01  4384   0.213E-01    0.696E-01
RMM:   3    -0.413230535430E+03   -0.14787E-01   -0.20598E-02  5137   0.128E-01    0.601E-01
RMM:   4    -0.413229012099E+03    0.15233E-02   -0.39050E-02  5006   0.174E-01    0.541E-01
RMM:   5    -0.413214673152E+03    0.14339E-01   -0.62700E-03  4540   0.989E-02    0.483E-02
RMM:   6    -0.413214591165E+03    0.81987E-04   -0.92332E-04  5129   0.316E-02    0.185E-02
RMM:   7    -0.413214590822E+03    0.34285E-06   -0.12438E-04  5813   0.105E-02    0.130E-02
RMM:   8    -0.413214588301E+03    0.25215E-05   -0.34677E-05  5015   0.573E-03    0.886E-03
RMM:   9    -0.413214575696E+03    0.12605E-04   -0.14423E-05  4101   0.498E-03    0.495E-03
RMM:  10    -0.413214571618E+03    0.40786E-05   -0.21335E-06  2544   0.230E-03    0.234E-03
RMM:  11    -0.413214567981E+03    0.36367E-05   -0.17732E-06  2533   0.200E-03    0.133E-03
RMM:  12    -0.413214564932E+03    0.30492E-05   -0.53726E-07  2395   0.137E-03    0.741E-04
RMM:  13    -0.413214562109E+03    0.28222E-05   -0.25966E-07  1866   0.887E-04    0.365E-04
RMM:  14    -0.413214559478E+03    0.26315E-05   -0.14984E-07  1245   0.698E-04    0.202E-04
RMM:  15    -0.413214556437E+03    0.30413E-05   -0.12260E-07  1184   0.668E-04    0.903E-05
RMM:  16    -0.413214554257E+03    0.21792E-05   -0.87650E-08  1118   0.626E-04    0.858E-05
RMM:  17    -0.413214552529E+03    0.17283E-05   -0.61066E-08   978   0.581E-04    0.648E-05
RMM:  18    -0.413214551130E+03    0.13990E-05   -0.41426E-08   841   0.549E-04    0.329E-05
RMM:  19    -0.413214550717E+03    0.41341E-06   -0.21866E-08   674   0.518E-04
   47 T=    71. E= -.41286709E+03 F= -.41321455E+03 E0= -.41319361E+03  EK= 0.34746E+00 SP= 0.00E+00 SK= 0.00E+00
       N       E                     dE             d eps       ncg     rms          rms(c)
RMM:   1    -0.413261143403E+03   -0.46592E-01   -0.13375E+01  4306   0.194E+00    0.970E-01
RMM:   2    -0.413212831176E+03    0.48312E-01   -0.20855E-01  4487   0.210E-01    0.688E-01
RMM:   3    -0.413238611763E+03   -0.25781E-01   -0.30690E-02  5159   0.157E-01    0.730E-01
RMM:   4    -0.413220014858E+03    0.18597E-01   -0.37566E-02  4950   0.175E-01    0.420E-01
RMM:   5    -0.413212409025E+03    0.76058E-02   -0.45241E-03  4609   0.898E-02    0.570E-02
RMM:   6    -0.413212217449E+03    0.19158E-03   -0.44147E-04  4679   0.284E-02    0.224E-02
RMM:   7    -0.413212217224E+03    0.22472E-06   -0.11213E-04  5819   0.108E-02    0.150E-02
RMM:   8    -0.413212207685E+03    0.95396E-05   -0.22342E-05  4506   0.511E-03    0.102E-02
RMM:   9    -0.413212192148E+03    0.15536E-04   -0.97278E-06  3365   0.427E-03    0.483E-03
RMM:  10    -0.413212185289E+03    0.68592E-05   -0.26061E-06  2611   0.264E-03    0.228E-03
RMM:  11    -0.413212179210E+03    0.60789E-05   -0.18744E-06  2543   0.212E-03    0.145E-03
RMM:  12    -0.413212173622E+03    0.55881E-05   -0.69416E-07  2444   0.147E-03    0.721E-04
RMM:  13    -0.413212169406E+03    0.42167E-05   -0.32830E-07  2133   0.968E-04    0.397E-04
RMM:  14    -0.413212165341E+03    0.40650E-05   -0.18722E-07  1494   0.740E-04    0.213E-04
RMM:  15    -0.413212159754E+03    0.55862E-05   -0.15978E-07  1455   0.716E-04    0.137E-04
RMM:  16    -0.413212157162E+03    0.25926E-05   -0.86263E-08  1107   0.613E-04    0.103E-04
RMM:  17    -0.413212154119E+03    0.30426E-05   -0.72417E-08  1106   0.601E-04    0.486E-05
RMM:  18    -0.413212152079E+03    0.20404E-05   -0.50641E-08  1004   0.575E-04    0.280E-05
RMM:  19    -0.413212151245E+03    0.83358E-06   -0.25345E-08   792   0.539E-04
   48 T=    70. E= -.41286715E+03 F= -.41321215E+03 E0= -.41319122E+03  EK= 0.34500E+00 SP= 0.00E+00 SK= 0.00E+00
       N       E                     dE             d eps       ncg     rms          rms(c)
RMM:   1    -0.413259554528E+03   -0.47402E-01   -0.13196E+01  4306   0.207E+00    0.959E-01
RMM:   2    -0.413207704402E+03    0.51850E-01   -0.20592E-01  4509   0.223E-01    0.677E-01
RMM:   3    -0.413239750224E+03   -0.32046E-01   -0.36431E-02  5162   0.171E-01    0.803E-01
RMM:   4    -0.413212550544E+03    0.27200E-01   -0.37707E-02  4926   0.178E-01    0.374E-01
RMM:   5    -0.413207516655E+03    0.50339E-02   -0.52175E-03  4911   0.934E-02    0.727E-02
RMM:   6    -0.413207185459E+03    0.33120E-03   -0.60875E-04  4697   0.338E-02    0.268E-02
RMM:   7    -0.413207181016E+03    0.44432E-05   -0.14139E-04  5716   0.127E-02    0.167E-02
RMM:   8    -0.413207170582E+03    0.10434E-04   -0.19620E-05  4213   0.492E-03    0.109E-02
RMM:   9    -0.413207154836E+03    0.15746E-04   -0.10988E-05  3529   0.438E-03    0.475E-03
RMM:  10    -0.413207146085E+03    0.87508E-05   -0.38135E-06  2796   0.301E-03    0.260E-03
RMM:  11    -0.413207138557E+03    0.75277E-05   -0.23278E-06  2619   0.239E-03    0.174E-03
RMM:  12    -0.413207134255E+03    0.43025E-05   -0.67842E-07  2447   0.153E-03    0.829E-04
RMM:  13    -0.413207130007E+03    0.42480E-05   -0.33508E-07  2212   0.995E-04    0.501E-04
RMM:  14    -0.413207124894E+03    0.51125E-05   -0.21863E-07  1694   0.797E-04    0.243E-04
RMM:  15    -0.413207120006E+03    0.48888E-05   -0.15842E-07  1444   0.722E-04    0.157E-04
RMM:  16    -0.413207117943E+03    0.20628E-05   -0.82287E-08  1110   0.623E-04    0.100E-04
RMM:  17    -0.413207114533E+03    0.34096E-05   -0.85704E-08  1294   0.642E-04    0.531E-05
[...]
RMM:   6    -0.413160947805E+03   -0.30062E-04   -0.28467E-03  5718   0.511E-02    0.222E-02
RMM:   7    -0.413160980997E+03   -0.33191E-04   -0.36630E-04  6006   0.161E-02    0.152E-02
RMM:   8    -0.413160990841E+03   -0.98448E-05   -0.61756E-05  5221   0.770E-03    0.823E-03
RMM:   9    -0.413160995304E+03   -0.44622E-05   -0.10086E-05  3316   0.358E-03    0.362E-03
RMM:  10    -0.413161000162E+03   -0.48582E-05   -0.27359E-06  2609   0.219E-03    0.243E-03
RMM:  11    -0.413161005043E+03   -0.48807E-05   -0.14890E-06  2529   0.176E-03    0.128E-03
RMM:  12    -0.413161007834E+03   -0.27914E-05   -0.97650E-07  2438   0.138E-03    0.459E-04
RMM:  13    -0.413161008649E+03   -0.81501E-06   -0.49850E-07  2010   0.101E-03
  138 T=    60. E= -.41286600E+03 F= -.41316101E+03 E0= -.41314030E+03  EK= 0.29501E+00 SP= 0.00E+00 SK= 0.00E+00
       N       E                     dE             d eps       ncg     rms          rms(c)
RMM:   1    -0.413154279878E+03    0.67280E-02   -0.93428E+00  4265   0.818E-01    0.835E-01
RMM:   2    -0.413162014049E+03   -0.77342E-02   -0.11074E-01  4319   0.927E-02    0.590E-01
RMM:   3    -0.413160582822E+03    0.14312E-02   -0.79720E-03  5018   0.411E-02    0.142E-01
RMM:   4    -0.413190104625E+03   -0.29522E-01   -0.31312E-02  5144   0.147E-01    0.717E-01
RMM:   5    -0.413160158000E+03    0.29947E-01   -0.14836E-02  4810   0.120E-01    0.491E-02
RMM:   6    -0.413160174821E+03   -0.16821E-04   -0.23896E-03  5709   0.470E-02    0.251E-02
RMM:   7    -0.413160199646E+03   -0.24825E-04   -0.33144E-04  5959   0.155E-02    0.155E-02
RMM:   8    -0.413160207092E+03   -0.74460E-05   -0.60221E-05  5210   0.790E-03    0.800E-03
RMM:   9    -0.413160208681E+03   -0.15898E-05   -0.88498E-06  3295   0.346E-03    0.377E-03
RMM:  10    -0.413160212471E+03   -0.37891E-05   -0.25978E-06  2597   0.220E-03    0.257E-03
RMM:  11    -0.413160215502E+03   -0.30318E-05   -0.14594E-06  2522   0.174E-03    0.131E-03
RMM:  12    -0.413160217135E+03   -0.16326E-05   -0.11124E-06  2461   0.143E-03    0.497E-04
RMM:  13    -0.413160217250E+03   -0.11550E-06   -0.53681E-07  2058   0.103E-03
  139 T=    60. E= -.41286581E+03 F= -.41316022E+03 E0= -.41313952E+03  EK= 0.29440E+00 SP= 0.00E+00 SK= 0.00E+00
       N       E                     dE             d eps       ncg     rms          rms(c)
RMM:   1    -0.413155667993E+03    0.45491E-02   -0.90644E+00  4265   0.808E-01    0.817E-01
RMM:   2    -0.413163521769E+03   -0.78538E-02   -0.10947E-01  4323   0.915E-02    0.597E-01
RMM:   3    -0.413161277884E+03    0.22439E-02   -0.88781E-03  4980   0.411E-02    0.118E-01
RMM:   4    -0.413186700888E+03   -0.25423E-01   -0.26814E-02  5144   0.136E-01    0.666E-01
RMM:   5    -0.413160941388E+03    0.25760E-01   -0.12758E-02  4816   0.111E-01    0.467E-02
RMM:   6    -0.413160954913E+03   -0.13526E-04   -0.20693E-03  5729   0.437E-02    0.254E-02
RMM:   7    -0.413160981481E+03   -0.26568E-04   -0.30064E-04  5916   0.149E-02    0.148E-02
RMM:   8    -0.413160993357E+03   -0.11876E-04   -0.56317E-05  5156   0.778E-03    0.765E-03
RMM:   9    -0.413160997996E+03   -0.46385E-05   -0.80675E-06  3234   0.334E-03    0.377E-03
RMM:  10    -0.413161006031E+03   -0.80349E-05   -0.23841E-06  2585   0.217E-03    0.254E-03
RMM:  11    -0.413161013630E+03   -0.75991E-05   -0.14664E-06  2522   0.173E-03    0.126E-03
RMM:  12    -0.413161019632E+03   -0.60022E-05   -0.12039E-06  2477   0.143E-03    0.511E-04
RMM:  13    -0.413161021821E+03   -0.21887E-05   -0.57423E-07  2028   0.102E-03    0.368E-04
RMM:  14    -0.413161023103E+03   -0.12817E-05   -0.40145E-07  1659   0.872E-04    0.208E-04
RMM:  15    -0.413161024082E+03   -0.97924E-06   -0.46807E-07  1870   0.889E-04
  140 T=    60. E= -.41286604E+03 F= -.41316102E+03 E0= -.41314034E+03  EK= 0.29498E+00 SP= 0.00E+00 SK= 0.00E+00
       N       E                     dE             d eps       ncg     rms          rms(c)
RMM:   1    -0.413156924370E+03    0.40987E-02   -0.88098E+00  4264   0.800E-01    0.829E-01
RMM:   2    -0.413163685550E+03   -0.67612E-02   -0.10634E-01  4323   0.900E-02    0.603E-01
RMM:   3    -0.413161329810E+03    0.23557E-02   -0.10401E-02  4981   0.425E-02    0.113E-01
RMM:   4    -0.413187053636E+03   -0.25724E-01   -0.27335E-02  5138   0.138E-01    0.670E-01
RMM:   5    -0.413160954296E+03    0.26099E-01   -0.12903E-02  4815   0.112E-01    0.489E-02
RMM:   6    -0.413160970383E+03   -0.16088E-04   -0.21182E-03  5704   0.443E-02    0.276E-02
RMM:   7    -0.413160995794E+03   -0.25411E-04   -0.32154E-04  5887   0.154E-02    0.156E-02
RMM:   8    -0.413161005065E+03   -0.92710E-05   -0.57526E-05  5187   0.799E-03    0.796E-03
RMM:   9    -0.413161008278E+03   -0.32128E-05   -0.81418E-06  3245   0.335E-03    0.403E-03
RMM:  10    -0.413161015337E+03   -0.70591E-05   -0.24238E-06  2593   0.220E-03    0.265E-03
RMM:  11    -0.413161021518E+03   -0.61807E-05   -0.14034E-06  2526   0.173E-03    0.130E-03
RMM:  12    -0.413161026463E+03   -0.49458E-05   -0.11328E-06  2458   0.143E-03    0.550E-04
RMM:  13    -0.413161028405E+03   -0.19416E-05   -0.56081E-07  2072   0.104E-03    0.374E-04
RMM:  14    -0.413161029380E+03   -0.97467E-06   -0.33807E-07  1605   0.844E-04
  141 T=    60. E= -.41286595E+03 F= -.41316103E+03 E0= -.41314035E+03  EK= 0.29508E+00 SP= 0.00E+00 SK= 0.00E+00
       N       E                     dE             d eps       ncg     rms          rms(c)
RMM:   1    -0.413157679816E+03    0.33486E-02   -0.84743E+00  4265   0.789E-01    0.837E-01
RMM:   2    -0.413163157227E+03   -0.54774E-02   -0.10231E-01  4330   0.875E-02    0.599E-01
RMM:   3    -0.413160445810E+03    0.27114E-02   -0.11619E-02  4952   0.391E-02    0.940E-02
RMM:   4    -0.413175489130E+03   -0.15043E-01   -0.15772E-02  5155   0.105E-01    0.515E-01
RMM:   5    -0.413160304804E+03    0.15184E-01   -0.76772E-03  4824   0.860E-02    0.454E-02
RMM:   6    -0.413160304866E+03   -0.62468E-07   -0.13575E-03  5689   0.361E-02    0.298E-02
RMM:   7    -0.413160309509E+03   -0.46428E-05   -0.26541E-04  5680   0.146E-02    0.152E-02
RMM:   8    -0.413160311281E+03   -0.17723E-05   -0.45685E-05  5088   0.746E-03    0.778E-03
RMM:   9    -0.413160312046E+03   -0.76528E-06   -0.52266E-06  2967   0.279E-03
  142 T=    60. E= -.41286583E+03 F= -.41316031E+03 E0= -.41313964E+03  EK= 0.29448E+00 SP= 0.00E+00 SK= 0.00E+00
       N       E                     dE             d eps       ncg     rms          rms(c)
RMM:   1    -0.413159041910E+03    0.12694E-02   -0.81328E+00  4269   0.777E-01    0.818E-01
RMM:   2    -0.413164358700E+03   -0.53168E-02   -0.99319E-02  4338   0.870E-02    0.601E-01
RMM:   3    -0.413162060506E+03    0.22982E-02   -0.14321E-02  5096   0.524E-02    0.153E-01
RMM:   4    -0.413194216265E+03   -0.32156E-01   -0.37895E-02  5126   0.163E-01    0.753E-01
RMM:   5    -0.413160928638E+03    0.33288E-01   -0.15798E-02  4801   0.126E-01    0.592E-02
RMM:   6    -0.413160912316E+03    0.16322E-04   -0.26384E-03  5659   0.500E-02    0.292E-02
RMM:   7    -0.413160953502E+03   -0.41186E-04   -0.40985E-04  6040   0.173E-02    0.176E-02
RMM:   8    -0.413160965202E+03   -0.11700E-04   -0.75911E-05  5309   0.919E-03    0.913E-03
RMM:   9    -0.413160969788E+03   -0.45865E-05   -0.10312E-05  3466   0.385E-03    0.415E-03
RMM:  10    -0.413160977160E+03   -0.73722E-05   -0.28230E-06  2644   0.233E-03    0.277E-03
RMM:  11    -0.413160986747E+03   -0.95865E-05   -0.21099E-06  2572   0.203E-03    0.152E-03
RMM:  12    -0.413160992694E+03   -0.59468E-05   -0.12896E-06  2513   0.156E-03    0.588E-04
RMM:  13    -0.413160995228E+03   -0.25344E-05   -0.60392E-07  2133   0.108E-03    0.393E-04
RMM:  14    -0.413160997289E+03   -0.20607E-05   -0.45070E-07  1793   0.913E-04    0.263E-04
RMM:  15    -0.413160999255E+03   -0.19665E-05   -0.56028E-07  1804   0.915E-04    0.174E-04
RMM:  16    -0.413160999877E+03   -0.62215E-06   -0.34010E-07  1558   0.767E-04
  143 T=    60. E= -.41286614E+03 F= -.41316100E+03 E0= -.41314034E+03  EK= 0.29486E+00 SP= 0.00E+00 SK= 0.00E+00
       N       E                     dE             d eps       ncg     rms          rms(c)
RMM:   1    -0.413160461426E+03    0.53783E-03   -0.78909E+00  4264   0.767E-01    0.827E-01
RMM:   2    -0.413165049440E+03   -0.45880E-02   -0.96672E-02  4329   0.860E-02    0.609E-01
RMM:   3    -0.413161228087E+03    0.38214E-02   -0.16536E-02  4875   0.420E-02    0.712E-02
RMM:   4    -0.413170102312E+03   -0.88742E-02   -0.93112E-03  5149   0.819E-02    0.399E-01
RMM:   5    -0.413161092665E+03    0.90096E-02   -0.45460E-03  4829   0.665E-02    0.423E-02
RMM:   6    -0.413161096922E+03   -0.42575E-05   -0.89914E-04  5613   0.301E-02    0.295E-02
RMM:   7    -0.413161106482E+03   -0.95599E-05   -0.22850E-04  5499   0.135E-02    0.151E-02
RMM:   8    -0.413161110871E+03   -0.43887E-05   -0.32743E-05  4909   0.647E-03    0.745E-03
RMM:   9    -0.413161114459E+03   -0.35877E-05   -0.40709E-06  2795   0.243E-03    0.389E-03
RMM:  10    -0.413161124251E+03   -0.97920E-05   -0.16692E-06  2537   0.190E-03    0.213E-03
RMM:  11    -0.413161131888E+03   -0.76375E-05   -0.10584E-06  2478   0.145E-03    0.101E-03
RMM:  12    -0.413161138242E+03   -0.63539E-05   -0.86297E-07  2294   0.122E-03    0.480E-04
RMM:  13    -0.413161142415E+03   -0.41729E-05   -0.57190E-07  2039   0.986E-04    0.291E-04
RMM:  14    -0.413161144519E+03   -0.21042E-05   -0.29522E-07  1446   0.784E-04    0.213E-04
RMM:  15    -0.413161146864E+03   -0.23453E-05   -0.35409E-07  1514   0.795E-04    0.139E-04
RMM:  16    -0.413161148203E+03   -0.13392E-05   -0.24135E-07  1440   0.720E-04    0.109E-04
RMM:  17    -0.413161148332E+03   -0.12823E-06   -0.80133E-08   980   0.568E-04
  144 T=    60. E= -.41286580E+03 F= -.41316115E+03 E0= -.41314050E+03  EK= 0.29535E+00 SP= 0.00E+00 SK= 0.00E+00
       N       E                     dE             d eps       ncg     rms          rms(c)
RMM:   1    -0.413161929511E+03   -0.78131E-03   -0.75864E+00  4264   0.764E-01    0.841E-01
RMM:   2    -0.413164967818E+03   -0.30383E-02   -0.93508E-02  4330   0.851E-02    0.607E-01
RMM:   3    -0.413161004881E+03    0.39629E-02   -0.17764E-02  4755   0.404E-02    0.606E-02
RMM:   4    -0.413162980465E+03   -0.19756E-02   -0.23211E-03  5164   0.426E-02    0.193E-01
RMM:   5    -0.413160962041E+03    0.20184E-02   -0.11085E-03  4854   0.333E-02    0.415E-02
RMM:   6    -0.413160968294E+03   -0.62531E-05   -0.44019E-04  5384   0.217E-02    0.308E-02
RMM:   7    -0.413160957484E+03    0.10810E-04   -0.17847E-04  4994   0.125E-02    0.157E-02
RMM:   8    -0.413160955486E+03    0.19978E-05   -0.20677E-05  4570   0.533E-03    0.724E-03
RMM:   9    -0.413160957876E+03   -0.23894E-05   -0.50500E-06  2650   0.231E-03    0.286E-03
RMM:  10    -0.413160962815E+03   -0.49393E-05   -0.15446E-06  2508   0.179E-03    0.146E-03
RMM:  11    -0.413160966913E+03   -0.40979E-05   -0.12138E-06  2478   0.146E-03    0.636E-04
RMM:  12    -0.413160968883E+03   -0.19699E-05   -0.63902E-07  2135   0.110E-03    0.389E-04
RMM:  13    -0.413160969963E+03   -0.10798E-05   -0.39227E-07  1821   0.882E-04    0.294E-04
RMM:  14    -0.413160970758E+03   -0.79556E-06   -0.38395E-07  1576   0.810E-04
  145 T=    60. E= -.41286591E+03 F= -.41316097E+03 E0= -.41314033E+03  EK= 0.29506E+00 SP= 0.00E+00 SK= 0.00E+00
       N       E                     dE             d eps       ncg     rms          rms(c)
RMM:   1    -0.413162529896E+03   -0.15599E-02   -0.72771E+00  4264   0.748E-01    0.825E-01
RMM:   2    -0.413165213928E+03   -0.26840E-02   -0.89863E-02  4328   0.830E-02    0.604E-01
RMM:   3    -0.413161132875E+03    0.40811E-02   -0.20466E-02  4729   0.410E-02    0.740E-02
RMM:   4    -0.413161768720E+03   -0.63585E-03   -0.10709E-03  5150   0.310E-02    0.122E-01
RMM:   5    -0.413161021612E+03    0.74711E-03   -0.47091E-04  4892   0.221E-02    0.420E-02
RMM:   6    -0.413161026518E+03   -0.49055E-05   -0.34183E-04  5283   0.190E-02    0.297E-02
RMM:   7    -0.413161026438E+03    0.79475E-07   -0.16230E-04  4856   0.111E-02    0.162E-02
RMM:   8    -0.413161024823E+03    0.16155E-05   -0.14945E-05  4121   0.465E-03    0.740E-03
RMM:   9    -0.413161029149E+03   -0.43259E-05   -0.67435E-06  2598   0.247E-03    0.222E-03
RMM:  10    -0.413161038426E+03   -0.92776E-05   -0.20366E-06  2517   0.199E-03    0.116E-03
RMM:  11    -0.413161046746E+03   -0.83199E-05   -0.14666E-06  2490   0.159E-03    0.609E-04
RMM:  12    -0.413161050068E+03   -0.33218E-05   -0.55097E-07  2117   0.107E-03    0.505E-04
RMM:  13    -0.413161052729E+03   -0.26616E-05   -0.34772E-07  1658   0.840E-04    0.383E-04
RMM:  14    -0.413161056376E+03   -0.36462E-05   -0.57471E-07  1768   0.887E-04    0.193E-04
RMM:  15    -0.413161057057E+03   -0.68148E-06   -0.13605E-07  1138   0.612E-04
  146 T=    60. E= -.41286598E+03 F= -.41316106E+03 E0= -.41314042E+03  EK= 0.29508E+00 SP= 0.00E+00 SK= 0.00E+00
       N       E                     dE             d eps       ncg     rms          rms(c)
RMM:   1    -0.413163737161E+03   -0.26808E-02   -0.71151E+00  4264   0.740E-01    0.829E-01
RMM:   2    -0.413165974063E+03   -0.22369E-02   -0.87903E-02  4329   0.820E-02    0.612E-01
RMM:   3    -0.413161623429E+03    0.43506E-02   -0.24531E-02  4685   0.436E-02    0.107E-01
RMM:   4    -0.413161383511E+03    0.23992E-03   -0.49938E-04  4964   0.222E-02    0.427E-02
RMM:   5    -0.413161399633E+03   -0.16122E-04   -0.23817E-04  4952   0.158E-02    0.369E-02
RMM:   6    -0.413161531662E+03   -0.13203E-03   -0.24997E-04  5355   0.145E-02    0.566E-02
RMM:   7    -0.413161392422E+03    0.13924E-03   -0.19609E-04  4864   0.135E-02    0.172E-02
RMM:   8    -0.413161391525E+03    0.89770E-06   -0.29101E-05  4722   0.580E-03    0.727E-03
RMM:   9    -0.413161398860E+03   -0.73358E-05   -0.10299E-05  2670   0.259E-03    0.232E-03
RMM:  10    -0.413161413204E+03   -0.14343E-04   -0.17593E-06  2524   0.172E-03    0.127E-03
RMM:  11    -0.413161423502E+03   -0.10299E-04   -0.11420E-06  2426   0.127E-03    0.423E-04
RMM:  12    -0.413161430325E+03   -0.68229E-05   -0.60898E-07  1957   0.985E-04    0.305E-04
RMM:  13    -0.413161437006E+03   -0.66804E-05   -0.64526E-07  1874   0.934E-04    0.320E-04
RMM:  14    -0.413161439787E+03   -0.27808E-05   -0.29142E-07  1442   0.742E-04    0.150E-04
RMM:  15    -0.413161442143E+03   -0.23563E-05   -0.23248E-07  1333   0.704E-04    0.746E-05
RMM:  16    -0.413161443165E+03   -0.10224E-05   -0.11676E-07  1114   0.610E-04    0.566E-05
RMM:  17    -0.413161443701E+03   -0.53563E-06   -0.73157E-08   941   0.564E-04
  147 T=    60. E= -.41286578E+03 F= -.41316144E+03 E0= -.41314081E+03  EK= 0.29567E+00 SP= 0.00E+00 SK= 0.00E+00
       N       E                     dE             d eps       ncg     rms          rms(c)
RMM:   1    -0.413164957369E+03   -0.35142E-02   -0.68980E+00  4264   0.732E-01    0.844E-01
RMM:   2    -0.413166061796E+03   -0.11044E-02   -0.85455E-02  4327   0.812E-02    0.611E-01
RMM:   3    -0.413161667631E+03    0.43942E-02   -0.24705E-02  4727   0.433E-02    0.950E-02
RMM:   4    -0.413162361043E+03   -0.69341E-03   -0.13694E-03  5174   0.343E-02    0.135E-01
RMM:   5    -0.413161430409E+03    0.93063E-03   -0.54943E-04  4861   0.241E-02    0.412E-02
RMM:   6    -0.413161440239E+03   -0.98299E-05   -0.37902E-04  5292   0.200E-02    0.306E-02
RMM:   7    -0.413161433793E+03    0.64455E-05   -0.15451E-04  4824   0.114E-02    0.163E-02
RMM:   8    -0.413161432243E+03    0.15506E-05   -0.17265E-05  4266   0.466E-03    0.694E-03
RMM:   9    -0.413161436578E+03   -0.43352E-05   -0.73496E-06  2641   0.263E-03    0.229E-03
RMM:  10    -0.413161442609E+03   -0.60307E-05   -0.17996E-06  2507   0.195E-03    0.118E-03
RMM:  11    -0.413161448754E+03   -0.61454E-05   -0.12737E-06  2468   0.152E-03    0.726E-04
RMM:  12    -0.413161452155E+03   -0.34011E-05   -0.55259E-07  2114   0.105E-03    0.365E-04
RMM:  13    -0.413161454893E+03   -0.27376E-05   -0.41109E-07  1739   0.865E-04    0.377E-04
RMM:  14    -0.413161457524E+03   -0.26312E-05   -0.44366E-07  1607   0.820E-04    0.163E-04
RMM:  15    -0.413161458992E+03   -0.14678E-05   -0.24380E-07  1365   0.705E-04    0.757E-05
RMM:  16    -0.413161460171E+03   -0.11797E-05   -0.18675E-07  1238   0.658E-04    0.590E-05
RMM:  17    -0.413161460711E+03   -0.53997E-06   -0.83411E-08   960   0.564E-04
  148 T=    60. E= -.41286594E+03 F= -.41316146E+03 E0= -.41314083E+03  EK= 0.29552E+00 SP= 0.00E+00 SK= 0.00E+00
       N       E                     dE             d eps       ncg     rms          rms(c)
RMM:   1    -0.413165016689E+03   -0.35565E-02   -0.67096E+00  4264   0.726E-01    0.834E-01
RMM:   2    -0.413165825789E+03   -0.80910E-03   -0.83355E-02  4331   0.803E-02    0.607E-01
RMM:   3    -0.413161507939E+03    0.43179E-02   -0.26320E-02  4839   0.463E-02    0.114E-01
RMM:   4    -0.413166840887E+03   -0.53329E-02   -0.62708E-03  5152   0.686E-02    0.320E-01
RMM:   5    -0.413161119811E+03    0.57211E-02   -0.28824E-03  4837   0.532E-02    0.419E-02
RMM:   6    -0.413161126385E+03   -0.65736E-05   -0.70679E-04  5538   0.267E-02    0.305E-02
RMM:   7    -0.413161131761E+03   -0.53758E-05   -0.19644E-04  5281   0.132E-02    0.160E-02
RMM:   8    -0.413161133348E+03   -0.15871E-05   -0.26877E-05  4818   0.564E-03    0.665E-03
RMM:   9    -0.413161137149E+03   -0.38013E-05   -0.46009E-06  2759   0.254E-03    0.328E-03
RMM:  10    -0.413161144621E+03   -0.74716E-05   -0.16020E-06  2515   0.185E-03    0.176E-03
RMM:  11    -0.413161151142E+03   -0.65211E-05   -0.10743E-06  2484   0.147E-03    0.971E-04
RMM:  12    -0.413161156411E+03   -0.52691E-05   -0.76981E-07  2291   0.118E-03    0.438E-04
RMM:  13    -0.413161159742E+03   -0.33309E-05   -0.46451E-07  1961   0.940E-04    0.302E-04
RMM:  14    -0.413161162528E+03   -0.27860E-05   -0.35056E-07  1529   0.812E-04    0.234E-04
RMM:  15    -0.413161165135E+03   -0.26076E-05   -0.33634E-07  1544   0.788E-04    0.120E-04
RMM:  16    -0.413161166861E+03   -0.17255E-05   -0.23407E-07  1427   0.713E-04    0.691E-05
RMM:  17    -0.413161167518E+03   -0.65659E-06   -0.98129E-08  1051   0.587E-04
  149 T=    60. E= -.41286577E+03 F= -.41316117E+03 E0= -.41314054E+03  EK= 0.29540E+00 SP= 0.00E+00 SK= 0.00E+00
       N       E                     dE             d eps       ncg     rms          rms(c)
RMM:   1    -0.413166093155E+03   -0.49263E-02   -0.66816E+00  4264   0.727E-01    0.830E-01
RMM:   2    -0.413167030386E+03   -0.93723E-03   -0.82487E-02  4325   0.815E-02    0.612E-01
RMM:   3    -0.413162633559E+03    0.43968E-02   -0.29897E-02  4873   0.524E-02    0.156E-01
RMM:   4    -0.413172587718E+03   -0.99542E-02   -0.11745E-02  5140   0.928E-02    0.434E-01
RMM:   5    -0.413161922373E+03    0.10665E-01   -0.52261E-03  4828   0.719E-02    0.439E-02
RMM:   6    -0.413161936327E+03   -0.13954E-04   -0.10461E-03  5608   0.316E-02    0.296E-02
RMM:   7    -0.413161958829E+03   -0.22502E-04   -0.23068E-04  5549   0.138E-02    0.159E-02
RMM:   8    -0.413161966402E+03   -0.75730E-05   -0.30915E-05  4897   0.601E-03    0.655E-03
RMM:   9    -0.413161972771E+03   -0.63691E-05   -0.47475E-06  2883   0.269E-03    0.368E-03
RMM:  10    -0.413161984953E+03   -0.12182E-04   -0.17109E-06  2523   0.192E-03    0.205E-03
RMM:  11    -0.413161995008E+03   -0.10055E-04   -0.10840E-06  2490   0.148E-03    0.112E-03
RMM:  12    -0.413162004547E+03   -0.95391E-05   -0.88453E-07  2394   0.126E-03    0.568E-04
RMM:  13    -0.413162009645E+03   -0.50983E-05   -0.44609E-07  1970   0.946E-04    0.325E-04
RMM:  14    -0.413162013620E+03   -0.39754E-05   -0.29756E-07  1549   0.808E-04    0.241E-04
RMM:  15    -0.413162018795E+03   -0.51744E-05   -0.40135E-07  1720   0.839E-04    0.175E-04
RMM:  16    -0.413162022033E+03   -0.32386E-05   -0.25961E-07  1569   0.739E-04    0.112E-04
RMM:  17    -0.413162022832E+03   -0.79888E-06   -0.93924E-08  1021   0.564E-04
  150 T=    60. E= -.41286583E+03 F= -.41316202E+03 E0= -.41314139E+03  EK= 0.29619E+00 SP= 0.00E+00 SK= 0.00E+00
