       N       E                     dE             d eps       ncg     rms          rms(c)
RMM:   1     0.220134495408E+04    0.22013E+04   -0.52444E+04  2132   0.654E+02
RMM:   2     0.705751860374E+03   -0.14956E+04   -0.16263E+04  2132   0.177E+02
RMM:   3     0.137558722919E+03   -0.56819E+03   -0.65732E+03  2132   0.117E+02
RMM:   4    -0.159485264543E+03   -0.29704E+03   -0.27871E+03  2132   0.937E+01
RMM:   5    -0.287496468668E+03   -0.12801E+03   -0.11446E+03  2132   0.595E+01
RMM:   6    -0.349878486358E+03   -0.62382E+02   -0.55148E+02  2132   0.423E+01
RMM:   7    -0.382677021902E+03   -0.32799E+02   -0.30379E+02  2132   0.293E+01
RMM:   8    -0.404127219935E+03   -0.21450E+02   -0.18417E+02  2132   0.233E+01
RMM:   9    -0.435988062938E+03   -0.31861E+02   -0.30671E+02  6105   0.173E+01
RMM:  10    -0.441310590371E+03   -0.53225E+01   -0.63049E+01  6401   0.540E+00
RMM:  11    -0.442515691675E+03   -0.12051E+01   -0.11300E+01  6204   0.173E+00
RMM:  12    -0.442867140268E+03   -0.35145E+00   -0.25357E+00  6367   0.597E-01    0.134E+02
RMM:  13    -0.425546408258E+03    0.17321E+02   -0.80720E+01  4671   0.119E+01    0.712E+01
RMM:  14    -0.498603728173E+03   -0.73057E+02   -0.53792E+02  5415   0.232E+01    0.305E+01
RMM:  15    -0.411442534048E+03    0.87161E+02   -0.18673E+02  5049   0.160E+01    0.375E+00
RMM:  16    -0.414443324653E+03   -0.30008E+01   -0.38193E+01  6086   0.586E+00    0.464E+00
RMM:  17    -0.413475675889E+03    0.96765E+00   -0.22583E+00  5402   0.162E+00    0.314E+00
RMM:  18    -0.413163873791E+03    0.31180E+00   -0.11935E+00  5705   0.117E+00    0.182E+00
RMM:  19    -0.413168613639E+03   -0.47398E-02   -0.49710E-01  5882   0.706E-01    0.108E+00
RMM:  20    -0.413214444727E+03   -0.45831E-01   -0.39734E-01  5734   0.666E-01    0.102E+00
RMM:  21    -0.413193076727E+03    0.21368E-01   -0.60562E-02  4967   0.319E-01    0.735E-01
RMM:  22    -0.413171920245E+03    0.21156E-01   -0.39630E-02  5478   0.228E-01    0.392E-01
RMM:  23    -0.413165897513E+03    0.60227E-02   -0.28075E-02  6052   0.164E-01    0.150E-01
RMM:  24    -0.413163807523E+03    0.20900E-02   -0.10790E-02  6084   0.100E-01    0.551E-02
RMM:  25    -0.413163423441E+03    0.38408E-03   -0.12450E-03  5764   0.348E-02    0.360E-02
RMM:  26    -0.413163139314E+03    0.28413E-03   -0.58128E-04  5520   0.255E-02    0.238E-02
RMM:  27    -0.413163594913E+03   -0.45560E-03   -0.47683E-04  5406   0.278E-02    0.356E-02
RMM:  28    -0.413163867515E+03   -0.27260E-03   -0.15230E-04  4765   0.150E-02    0.233E-02
RMM:  29    -0.413164361421E+03   -0.49391E-03   -0.36424E-04  5123   0.269E-02    0.110E-02
RMM:  30    -0.413164601722E+03   -0.24030E-03   -0.98753E-05  4665   0.124E-02    0.850E-03
RMM:  31    -0.413164685863E+03   -0.84141E-04   -0.41075E-05  3817   0.630E-03    0.338E-03
RMM:  32    -0.413164729564E+03   -0.43701E-04   -0.20690E-05  3307   0.422E-03    0.113E-03
RMM:  33    -0.413164747511E+03   -0.17948E-04   -0.10826E-05  2825   0.275E-03    0.892E-04
RMM:  34    -0.413164750805E+03   -0.32936E-05   -0.57868E-06  2691   0.191E-03    0.815E-04
RMM:  35    -0.413164750861E+03   -0.56207E-07   -0.28060E-06  2443   0.133E-03
    1 T=    61. E= -.41286692E+03 F= -.41316475E+03 E0= -.41314225E+03  EK= 0.29783E+00 SP= 0.00E+00 SK= 0.00E+00
       N       E                     dE             d eps       ncg     rms          rms(c)
RMM:   1    -0.413177180427E+03   -0.12430E-01   -0.55330E+00  3970   0.454E-01    0.926E-01
RMM:   2    -0.413172251236E+03    0.49292E-02   -0.73855E-02  3896   0.681E-02    0.667E-01
RMM:   3    -0.413170050575E+03    0.22007E-02   -0.64814E-02  5132   0.884E-02    0.390E-01
RMM:   4    -0.413179437552E+03   -0.93870E-02   -0.23885E-02  5134   0.134E-01    0.537E-01
RMM:   5    -0.413164383875E+03    0.15054E-01   -0.94154E-03  4685   0.902E-02    0.395E-02
RMM:   6    -0.413164457058E+03   -0.73183E-04   -0.11966E-03  5591   0.331E-02    0.245E-02
RMM:   7    -0.413164462694E+03   -0.56362E-05   -0.19881E-04  5598   0.132E-02    0.167E-02
RMM:   8    -0.413164467009E+03   -0.43150E-05   -0.29932E-05  4497   0.648E-03    0.486E-03
RMM:   9    -0.413164471690E+03   -0.46805E-05   -0.56180E-06  2887   0.263E-03    0.344E-03
RMM:  10    -0.413164477098E+03   -0.54081E-05   -0.13282E-06  2523   0.160E-03    0.218E-03
RMM:  11    -0.413164481436E+03   -0.43384E-05   -0.91876E-07  2259   0.120E-03    0.912E-04
RMM:  12    -0.413164486740E+03   -0.53042E-05   -0.79981E-07  2292   0.111E-03    0.478E-04
RMM:  13    -0.413164489178E+03   -0.24372E-05   -0.41771E-07  1650   0.839E-04    0.314E-04
RMM:  14    -0.413164490590E+03   -0.14128E-05   -0.31867E-07  1377   0.748E-04    0.132E-04
RMM:  15    -0.413164492521E+03   -0.19307E-05   -0.38433E-07  1598   0.782E-04    0.239E-04
RMM:  16    -0.413164493861E+03   -0.13402E-05   -0.38039E-07  1584   0.743E-04    0.163E-04
RMM:  17    -0.413164493828E+03    0.33062E-07   -0.14083E-07  1014   0.556E-04
    2 T=    61. E= -.41286663E+03 F= -.41316449E+03 E0= -.41314199E+03  EK= 0.29786E+00 SP= 0.00E+00 SK= 0.00E+00
       N       E                     dE             d eps       ncg     rms          rms(c)
RMM:   1    -0.413178301398E+03   -0.13808E-01   -0.54705E+00  4186   0.447E-01    0.944E-01
RMM:   2    -0.413172394628E+03    0.59068E-02   -0.74421E-02  3995   0.679E-02    0.667E-01
RMM:   3    -0.413171230648E+03    0.11640E-02   -0.61314E-02  5159   0.904E-02    0.381E-01
RMM:   4    -0.413178981990E+03   -0.77513E-02   -0.23973E-02  5100   0.135E-01    0.515E-01
RMM:   5    -0.413164926954E+03    0.14055E-01   -0.80244E-03  4646   0.852E-02    0.387E-02
RMM:   6    -0.413164974268E+03   -0.47313E-04   -0.10693E-03  5530   0.313E-02    0.257E-02
RMM:   7    -0.413164989406E+03   -0.15138E-04   -0.18640E-04  5430   0.137E-02    0.180E-02
RMM:   8    -0.413164991264E+03   -0.18576E-05   -0.30455E-05  4507   0.701E-03    0.532E-03
RMM:   9    -0.413164991039E+03    0.22508E-06   -0.61444E-06  2917   0.273E-03
    3 T=    61. E= -.41286684E+03 F= -.41316499E+03 E0= -.41314250E+03  EK= 0.29815E+00 SP= 0.00E+00 SK= 0.00E+00
       N       E                     dE             d eps       ncg     rms          rms(c)
RMM:   1    -0.413177496102E+03   -0.12505E-01   -0.54400E+00  4216   0.457E-01    0.928E-01
RMM:   2    -0.413172161092E+03    0.53350E-02   -0.73790E-02  4130   0.666E-02    0.660E-01
RMM:   3    -0.413175668896E+03   -0.35078E-02   -0.64432E-02  5192   0.110E-01    0.480E-01
RMM:   4    -0.413174164071E+03    0.15048E-02   -0.23790E-02  5042   0.137E-01    0.440E-01
RMM:   5    -0.413164746150E+03    0.94179E-02   -0.65422E-03  4495   0.723E-02    0.374E-02
RMM:   6    -0.413164761417E+03   -0.15267E-04   -0.67755E-04  5292   0.243E-02    0.247E-02
RMM:   7    -0.413164778437E+03   -0.17020E-04   -0.12944E-04  5136   0.114E-02    0.159E-02
RMM:   8    -0.413164771544E+03    0.68929E-05   -0.22655E-05  4131   0.600E-03    0.388E-03
RMM:   9    -0.413164772595E+03   -0.10506E-05   -0.30797E-06  2652   0.221E-03    0.283E-03
RMM:  10    -0.413164773952E+03   -0.13579E-05   -0.99312E-07  2487   0.138E-03    0.157E-03
RMM:  11    -0.413164774950E+03   -0.99765E-06   -0.65198E-07  1935   0.103E-03
    4 T=    61. E= -.41286657E+03 F= -.41316477E+03 E0= -.41314229E+03  EK= 0.29821E+00 SP= 0.00E+00 SK= 0.00E+00
       N       E                     dE             d eps       ncg     rms          rms(c)
RMM:   1    -0.413177480661E+03   -0.12707E-01   -0.55331E+00  4237   0.465E-01    0.925E-01
RMM:   2    -0.413172646513E+03    0.48341E-02   -0.73746E-02  3971   0.646E-02    0.666E-01
RMM:   3    -0.413171715233E+03    0.93128E-03   -0.65537E-02  5153   0.905E-02    0.418E-01
RMM:   4    -0.413178299373E+03   -0.65841E-02   -0.23302E-02  5087   0.133E-01    0.515E-01
RMM:   5    -0.413164821638E+03    0.13478E-01   -0.87991E-03  4624   0.846E-02    0.377E-02
RMM:   6    -0.413164893546E+03   -0.71909E-04   -0.10652E-03  5538   0.305E-02    0.247E-02
RMM:   7    -0.413164929557E+03   -0.36011E-04   -0.17971E-04  5407   0.131E-02    0.170E-02
RMM:   8    -0.413164935695E+03   -0.61380E-05   -0.28110E-05  4452   0.663E-03    0.491E-03
RMM:   9    -0.413164939389E+03   -0.36940E-05   -0.49478E-06  2846   0.270E-03    0.342E-03
RMM:  10    -0.413164944148E+03   -0.47582E-05   -0.10677E-06  2520   0.155E-03    0.214E-03
RMM:  11    -0.413164948022E+03   -0.38741E-05   -0.74207E-07  2203   0.114E-03    0.922E-04
RMM:  12    -0.413164952867E+03   -0.48458E-05   -0.80658E-07  2315   0.113E-03    0.555E-04
RMM:  13    -0.413164954729E+03   -0.18618E-05   -0.36754E-07  1601   0.832E-04    0.332E-04
RMM:  14    -0.413164955292E+03   -0.56267E-06   -0.22865E-07  1324   0.731E-04
    5 T=    61. E= -.41286665E+03 F= -.41316496E+03 E0= -.41314248E+03  EK= 0.29830E+00 SP= 0.00E+00 SK= 0.00E+00
       N       E                     dE             d eps       ncg     rms          rms(c)
RMM:   1    -0.413178589421E+03   -0.13635E-01   -0.54851E+00  4247   0.461E-01    0.941E-01
RMM:   2    -0.413172817219E+03    0.57722E-02   -0.74151E-02  4063   0.655E-02    0.667E-01
RMM:   3    -0.413172224482E+03    0.59274E-03   -0.62345E-02  5168   0.909E-02    0.400E-01
RMM:   4    -0.413178590511E+03   -0.63660E-02   -0.23831E-02  5079   0.134E-01    0.505E-01
RMM:   5    -0.413165360760E+03    0.13230E-01   -0.78923E-03  4626   0.825E-02    0.383E-02
RMM:   6    -0.413165413923E+03   -0.53163E-04   -0.10187E-03  5498   0.301E-02    0.253E-02
RMM:   7    -0.413165430667E+03   -0.16744E-04   -0.17431E-04  5452   0.128E-02    0.177E-02
RMM:   8    -0.413165426690E+03    0.39774E-05   -0.28175E-05  4475   0.653E-03    0.512E-03
RMM:   9    -0.413165427024E+03   -0.33387E-06   -0.47325E-06  2801   0.261E-03
    6 T=    61. E= -.41286705E+03 F= -.41316543E+03 E0= -.41314296E+03  EK= 0.29837E+00 SP= 0.00E+00 SK= 0.00E+00
       N       E                     dE             d eps       ncg     rms          rms(c)
RMM:   1    -0.413178196096E+03   -0.12769E-01   -0.54400E+00  4260   0.466E-01    0.935E-01
RMM:   2    -0.413172483180E+03    0.57129E-02   -0.73826E-02  4192   0.661E-02    0.662E-01
RMM:   3    -0.413176235314E+03   -0.37521E-02   -0.63838E-02  5176   0.109E-01    0.476E-01
RMM:   4    -0.413174645371E+03    0.15899E-02   -0.23928E-02  5039   0.137E-01    0.438E-01
RMM:   5    -0.413165235369E+03    0.94100E-02   -0.62726E-03  4490   0.721E-02    0.375E-02
RMM:   6    -0.413165246072E+03   -0.10704E-04   -0.68378E-04  5308   0.243E-02    0.249E-02
RMM:   7    -0.413165252587E+03   -0.65150E-05   -0.13149E-04  5125   0.116E-02    0.162E-02
RMM:   8    -0.413165253716E+03   -0.11289E-05   -0.22852E-05  4131   0.596E-03    0.393E-03
RMM:   9    -0.413165253504E+03    0.21269E-06   -0.31185E-06  2626   0.215E-03
    7 T=    61. E= -.41286700E+03 F= -.41316525E+03 E0= -.41314281E+03  EK= 0.29825E+00 SP= 0.00E+00 SK= 0.00E+00
       N       E                     dE             d eps       ncg     rms          rms(c)
RMM:   1    -0.413178296072E+03   -0.13042E-01   -0.55093E+00  4275   0.477E-01    0.921E-01
RMM:   2    -0.413173415741E+03    0.48803E-02   -0.73762E-02  4144   0.687E-02    0.664E-01
RMM:   3    -0.413175220172E+03   -0.18044E-02   -0.66343E-02  5131   0.105E-01    0.464E-01
RMM:   4    -0.413176567515E+03   -0.13473E-02   -0.23317E-02  5044   0.135E-01    0.475E-01
RMM:   5    -0.413165733085E+03    0.10834E-01   -0.78064E-03  4551   0.766E-02    0.370E-02
RMM:   6    -0.413165768489E+03   -0.35404E-04   -0.81999E-04  5380   0.265E-02    0.241E-02
RMM:   7    -0.413165779827E+03   -0.11338E-04   -0.14468E-04  5269   0.117E-02    0.158E-02
RMM:   8    -0.413165786368E+03   -0.65414E-05   -0.22249E-05  4173   0.560E-03    0.409E-03
RMM:   9    -0.413165789126E+03   -0.27583E-05   -0.30448E-06  2649   0.219E-03    0.307E-03
RMM:  10    -0.413165792510E+03   -0.33834E-05   -0.95161E-07  2462   0.140E-03    0.178E-03
RMM:  11    -0.413165794632E+03   -0.21218E-05   -0.63983E-07  1951   0.103E-03    0.740E-04
RMM:  12    -0.413165797011E+03   -0.23795E-05   -0.71359E-07  2273   0.107E-03    0.472E-04
RMM:  13    -0.413165797899E+03   -0.88763E-06   -0.51188E-07  1595   0.867E-04
    8 T=    61. E= -.41286724E+03 F= -.41316580E+03 E0= -.41314337E+03  EK= 0.29855E+00 SP= 0.00E+00 SK= 0.00E+00
       N       E                     dE             d eps       ncg     rms          rms(c)
RMM:   1    -0.413179034003E+03   -0.13237E-01   -0.55030E+00  4285   0.478E-01    0.936E-01
RMM:   2    -0.413173615890E+03    0.54181E-02   -0.74091E-02  4153   0.700E-02    0.668E-01
RMM:   3    -0.413173208896E+03    0.40699E-03   -0.63694E-02  5102   0.970E-02    0.414E-01
RMM:   4    -0.413178775366E+03   -0.55665E-02   -0.23427E-02  5058   0.134E-01    0.501E-01
RMM:   5    -0.413165949751E+03    0.12826E-01   -0.80189E-03  4602   0.821E-02    0.375E-02
RMM:   6    -0.413166005830E+03   -0.56080E-04   -0.10251E-03  5517   0.295E-02    0.252E-02
RMM:   7    -0.413165998615E+03    0.72158E-05   -0.17234E-04  5344   0.130E-02    0.175E-02
RMM:   8    -0.413165997965E+03    0.65011E-06   -0.27049E-05  4377   0.661E-03    0.495E-03
RMM:   9    -0.413165999337E+03   -0.13722E-05   -0.48591E-06  2811   0.261E-03    0.321E-03
RMM:  10    -0.413166000843E+03   -0.15064E-05   -0.99273E-07  2501   0.151E-03    0.202E-03
RMM:  11    -0.413166001692E+03   -0.84853E-06   -0.64744E-07  2143   0.110E-03
    9 T=    61. E= -.41286712E+03 F= -.41316600E+03 E0= -.41314359E+03  EK= 0.29888E+00 SP= 0.00E+00 SK= 0.00E+00
       N       E                     dE             d eps       ncg     rms          rms(c)
RMM:   1    -0.413179305570E+03   -0.13305E-01   -0.54582E+00  4289   0.479E-01    0.943E-01
RMM:   2    -0.413173380591E+03    0.59250E-02   -0.74301E-02  4206   0.694E-02    0.665E-01
RMM:   3    -0.413172047684E+03    0.13329E-02   -0.60965E-02  5106   0.903E-02    0.375E-01
RMM:   4    -0.413180395018E+03   -0.83473E-02   -0.24033E-02  5069   0.135E-01    0.520E-01
RMM:   5    -0.413165956461E+03    0.14439E-01   -0.81100E-03  4648   0.850E-02    0.382E-02
RMM:   6    -0.413166013409E+03   -0.56948E-04   -0.11171E-03  5588   0.316E-02    0.260E-02
RMM:   7    -0.413166025189E+03   -0.11779E-04   -0.19233E-04  5462   0.134E-02    0.186E-02
RMM:   8    -0.413166025399E+03   -0.21063E-06   -0.30612E-05  4516   0.683E-03    0.566E-03
RMM:   9    -0.413166023653E+03    0.17464E-05   -0.58688E-06  2868   0.287E-03    0.333E-03
RMM:  10    -0.413166022055E+03    0.15976E-05   -0.11347E-06  2521   0.161E-03    0.216E-03
RMM:  11    -0.413166020300E+03    0.17552E-05   -0.73463E-07  2257   0.118E-03    0.981E-04
RMM:  12    -0.413166016898E+03    0.34025E-05   -0.82202E-07  2362   0.118E-03    0.636E-04
RMM:  13    -0.413166014666E+03    0.22314E-05   -0.30441E-07  1622   0.831E-04    0.369E-04
RMM:  14    -0.413166013034E+03    0.16322E-05   -0.17846E-07  1285   0.715E-04    0.165E-04
RMM:  15    -0.413166008364E+03    0.46705E-05   -0.37473E-07  1904   0.859E-04    0.360E-04
RMM:  16    -0.413166005219E+03    0.31448E-05   -0.19994E-07  1277   0.651E-04    0.239E-04
RMM:  17    -0.413166003900E+03    0.13183E-05   -0.89046E-08   960   0.554E-04    0.133E-04
RMM:  18    -0.413166002248E+03    0.16525E-05   -0.81270E-08   979   0.571E-04    0.459E-05
RMM:  19    -0.413166002209E+03    0.38446E-07   -0.27449E-08   716   0.516E-04
   10 T=    61. E= -.41286682E+03 F= -.41316600E+03 E0= -.41314362E+03  EK= 0.29918E+00 SP= 0.00E+00 SK= 0.00E+00
       N       E                     dE             d eps       ncg     rms          rms(c)
RMM:   1    -0.413179329266E+03   -0.13327E-01   -0.54965E+00  4289   0.489E-01    0.922E-01
RMM:   2    -0.413174499452E+03    0.48298E-02   -0.73661E-02  4223   0.690E-02    0.663E-01
RMM:   3    -0.413173567376E+03    0.93208E-03   -0.64401E-02  5110   0.937E-02    0.414E-01
RMM:   4    -0.413179997548E+03   -0.64302E-02   -0.23412E-02  5055   0.133E-01    0.511E-01
RMM:   5    -0.413166741132E+03    0.13256E-01   -0.85504E-03  4614   0.833E-02    0.374E-02
RMM:   6    -0.413166816193E+03   -0.75060E-04   -0.10546E-03  5511   0.301E-02    0.250E-02
RMM:   7    -0.413166805084E+03    0.11108E-04   -0.17595E-04  5352   0.133E-02    0.173E-02
RMM:   8    -0.413166801398E+03    0.36864E-05   -0.27566E-05  4389   0.676E-03    0.490E-03
RMM:   9    -0.413166803743E+03   -0.23454E-05   -0.50897E-06  2829   0.269E-03    0.325E-03
RMM:  10    -0.413166806646E+03   -0.29022E-05   -0.10045E-06  2501   0.153E-03    0.206E-03
RMM:  11    -0.413166808511E+03   -0.18657E-05   -0.63946E-07  2142   0.110E-03    0.901E-04
RMM:  12    -0.413166810347E+03   -0.18352E-05   -0.61361E-07  2222   0.107E-03    0.525E-04
RMM:  13    -0.413166810503E+03   -0.15651E-06   -0.23090E-07  1474   0.776E-04
   11 T=    61. E= -.41286706E+03 F= -.41316681E+03 E0= -.41314445E+03  EK= 0.29975E+00 SP= 0.00E+00 SK= 0.00E+00
       N       E                     dE             d eps       ncg     rms          rms(c)
RMM:   1    -0.413179628595E+03   -0.12818E-01   -0.55378E+00  4292   0.491E-01    0.934E-01
RMM:   2    -0.413174475304E+03    0.51533E-02   -0.74057E-02  4228   0.697E-02    0.669E-01
RMM:   3    -0.413173936581E+03    0.53872E-03   -0.64864E-02  5132   0.946E-02    0.419E-01
RMM:   4    -0.413179739922E+03   -0.58033E-02   -0.23513E-02  5055   0.134E-01    0.506E-01
RMM:   5    -0.413166686114E+03    0.13054E-01   -0.83004E-03  4600   0.823E-02    0.375E-02
RMM:   6    -0.413166764060E+03   -0.77946E-04   -0.10372E-03  5523   0.295E-02    0.250E-02
RMM:   7    -0.413166792834E+03   -0.28774E-04   -0.17430E-04  5349   0.130E-02    0.175E-02
RMM:   8    -0.413166792162E+03    0.67163E-06   -0.27595E-05  4392   0.683E-03    0.491E-03
RMM:   9    -0.413166793681E+03   -0.15189E-05   -0.48717E-06  2819   0.272E-03    0.331E-03
RMM:  10    -0.413166795815E+03   -0.21341E-05   -0.99185E-07  2503   0.153E-03    0.207E-03
RMM:  11    -0.413166797130E+03   -0.13148E-05   -0.65117E-07  2146   0.110E-03    0.889E-04
RMM:  12    -0.413166798089E+03   -0.95883E-06   -0.62540E-07  2213   0.107E-03
   12 T=    61. E= -.41286682E+03 F= -.41316680E+03 E0= -.41314447E+03  EK= 0.29998E+00 SP= 0.00E+00 SK= 0.00E+00
       N       E                     dE             d eps       ncg     rms          rms(c)
RMM:   1    -0.413180794040E+03   -0.13997E-01   -0.54824E+00  4293   0.491E-01    0.947E-01
RMM:   2    -0.413174614129E+03    0.61799E-02   -0.74626E-02  4250   0.667E-02    0.667E-01
RMM:   3    -0.413173788500E+03    0.82563E-03   -0.61147E-02  5150   0.895E-02    0.384E-01
RMM:   4    -0.413181124638E+03   -0.73361E-02   -0.24291E-02  5070   0.135E-01    0.511E-01
RMM:   5    -0.413167285049E+03    0.13840E-01   -0.77910E-03  4630   0.835E-02    0.380E-02
RMM:   6    -0.413167350537E+03   -0.65488E-04   -0.10917E-03  5559   0.307E-02    0.259E-02
RMM:   7    -0.413167360569E+03   -0.10032E-04   -0.18396E-04  5404   0.133E-02    0.186E-02
RMM:   8    -0.413167359404E+03    0.11650E-05   -0.29180E-05  4512   0.646E-03    0.566E-03
RMM:   9    -0.413167357557E+03    0.18471E-05   -0.52861E-06  2838   0.274E-03    0.326E-03
RMM:  10    -0.413167355581E+03    0.19759E-05   -0.10589E-06  2509   0.158E-03    0.211E-03
RMM:  11    -0.413167353286E+03    0.22953E-05   -0.70831E-07  2231   0.116E-03    0.974E-04
RMM:  12    -0.413167348964E+03    0.43214E-05   -0.80039E-07  2356   0.117E-03    0.640E-04
RMM:  13    -0.413167346605E+03    0.23594E-05   -0.25294E-07  1564   0.801E-04    0.425E-04
RMM:  14    -0.413167344295E+03    0.23103E-05   -0.15923E-07  1207   0.701E-04    0.162E-04
RMM:  15    -0.413167339294E+03    0.50009E-05   -0.23294E-07  1658   0.780E-04    0.316E-04
RMM:  16    -0.413167335730E+03    0.35632E-05   -0.13728E-07  1277   0.641E-04    0.230E-04
RMM:  17    -0.413167333114E+03    0.26164E-05   -0.92360E-08  1040   0.577E-04    0.150E-04
RMM:  18    -0.413167331527E+03    0.15873E-05   -0.60624E-08   889   0.554E-04    0.323E-05
RMM:  19    -0.413167330922E+03    0.60506E-06   -0.30539E-08   750   0.527E-04
   13 T=    61. E= -.41286703E+03 F= -.41316733E+03 E0= -.41314503E+03  EK= 0.30030E+00 SP= 0.00E+00 SK= 0.00E+00
       N       E                     dE             d eps       ncg     rms          rms(c)
RMM:   1    -0.413180887218E+03   -0.13556E-01   -0.54824E+00  4295   0.503E-01    0.925E-01
RMM:   2    -0.413175545075E+03    0.53421E-02   -0.73749E-02  4245   0.679E-02    0.662E-01
RMM:   3    -0.413175266705E+03    0.27837E-03   -0.63714E-02  5142   0.926E-02    0.414E-01
RMM:   4    -0.413181132318E+03   -0.58656E-02   -0.23864E-02  5060   0.134E-01    0.506E-01
RMM:   5    -0.413168025437E+03    0.13107E-01   -0.82012E-03  4599   0.824E-02    0.376E-02
RMM:   6    -0.413168084862E+03   -0.59425E-04   -0.10477E-03  5506   0.295E-02    0.251E-02
RMM:   7    -0.413168090254E+03   -0.53913E-05   -0.17397E-04  5327   0.130E-02    0.176E-02
RMM:   8    -0.413168093006E+03   -0.27524E-05   -0.27481E-05  4403   0.671E-03    0.497E-03
RMM:   9    -0.413168094240E+03   -0.12340E-05   -0.49598E-06  2807   0.266E-03    0.326E-03
RMM:  10    -0.413168095754E+03   -0.15140E-05   -0.99348E-07  2501   0.153E-03    0.207E-03
RMM:  11    -0.413168096431E+03   -0.67730E-06   -0.65520E-07  2144   0.110E-03
   14 T=    61. E= -.41286737E+03 F= -.41316810E+03 E0= -.41314583E+03  EK= 0.30073E+00 SP= 0.00E+00 SK= 0.00E+00
       N       E                     dE             d eps       ncg     rms          rms(c)
RMM:   1    -0.413184075064E+03   -0.15979E-01   -0.55958E+00  4295   0.554E-01    0.929E-01
RMM:   2    -0.413175961455E+03    0.81136E-02   -0.78074E-02  4251   0.724E-02    0.671E-01
RMM:   3    -0.413174331936E+03    0.16295E-02   -0.64492E-02  5103   0.898E-02    0.400E-01
RMM:   4    -0.413183606753E+03   -0.92748E-02   -0.25190E-02  5064   0.137E-01    0.546E-01
RMM:   5    -0.413168016741E+03    0.15590E-01   -0.94162E-03  4650   0.890E-02    0.381E-02
RMM:   6    -0.413168103545E+03   -0.86804E-04   -0.12216E-03  5618   0.326E-02    0.253E-02
RMM:   7    -0.413168111833E+03   -0.82885E-05   -0.19708E-04  5483   0.137E-02    0.180E-02
RMM:   8    -0.413168118969E+03   -0.71353E-05   -0.30629E-05  4544   0.674E-03    0.551E-03
RMM:   9    -0.413168120623E+03   -0.16544E-05   -0.59978E-06  2929   0.292E-03    0.358E-03
RMM:  10    -0.413168122894E+03   -0.22714E-05   -0.10479E-06  2506   0.164E-03    0.233E-03
RMM:  11    -0.413168124292E+03   -0.13974E-05   -0.76473E-07  2298   0.119E-03    0.101E-03
RMM:  12    -0.413168125023E+03   -0.73121E-06   -0.70927E-07  2281   0.114E-03
   15 T=    61. E= -.41286705E+03 F= -.41316813E+03 E0= -.41314589E+03  EK= 0.30108E+00 SP= 0.00E+00 SK= 0.00E+00
       N       E                     dE             d eps       ncg     rms          rms(c)
RMM:   1    -0.413182650615E+03   -0.14526E-01   -0.55075E+00  4299   0.502E-01    0.949E-01
RMM:   2    -0.413176665098E+03    0.59855E-02   -0.74883E-02  4265   0.712E-02    0.669E-01
RMM:   3    -0.413175942107E+03    0.72299E-03   -0.61882E-02  5103   0.948E-02    0.392E-01
RMM:   4    -0.413182662272E+03   -0.67202E-02   -0.24108E-02  5048   0.135E-01    0.506E-01
RMM:   5    -0.413169163461E+03    0.13499E-01   -0.77244E-03  4626   0.832E-02    0.376E-02
RMM:   6    -0.413169220182E+03   -0.56721E-04   -0.10684E-03  5592   0.301E-02    0.260E-02
RMM:   7    -0.413169204734E+03    0.15448E-04   -0.18094E-04  5351   0.137E-02    0.185E-02
RMM:   8    -0.413169197117E+03    0.76172E-05   -0.28477E-05  4443   0.674E-03    0.543E-03
RMM:   9    -0.413169196080E+03    0.10369E-05   -0.56657E-06  2858   0.282E-03    0.322E-03
RMM:  10    -0.413169194047E+03    0.20323E-05   -0.11101E-06  2519   0.162E-03    0.208E-03
RMM:  11    -0.413169191567E+03    0.24805E-05   -0.71957E-07  2215   0.116E-03    0.960E-04
RMM:  12    -0.413169186625E+03    0.49417E-05   -0.82312E-07  2347   0.120E-03    0.623E-04
RMM:  13    -0.413169183305E+03    0.33204E-05   -0.27408E-07  1542   0.810E-04    0.387E-04
RMM:  14    -0.413169180784E+03    0.25213E-05   -0.14967E-07  1164   0.689E-04    0.154E-04
RMM:  15    -0.413169175105E+03    0.56782E-05   -0.19547E-07  1457   0.756E-04    0.269E-04
RMM:  16    -0.413169170230E+03    0.48752E-05   -0.14078E-07  1348   0.672E-04    0.227E-04
RMM:  17    -0.413169169057E+03    0.11736E-05   -0.59251E-08   929   0.542E-04    0.157E-04
RMM:  18    -0.413169166456E+03    0.26006E-05   -0.58424E-08   969   0.560E-04    0.511E-05
RMM:  19    -0.413169165941E+03    0.51490E-06   -0.30220E-08   776   0.523E-04
   16 T=    61. E= -.41286726E+03 F= -.41316917E+03 E0= -.41314697E+03  EK= 0.30191E+00 SP= 0.00E+00 SK= 0.00E+00
       N       E                     dE             d eps       ncg     rms          rms(c)
RMM:   1    -0.413182553742E+03   -0.13387E-01   -0.54902E+00  4296   0.512E-01    0.931E-01
RMM:   2    -0.413177237416E+03    0.53163E-02   -0.74273E-02  4260   0.732E-02    0.664E-01
RMM:   3    -0.413176743557E+03    0.49386E-03   -0.63130E-02  5090   0.970E-02    0.408E-01
RMM:   4    -0.413182811757E+03   -0.60682E-02   -0.23953E-02  5043   0.135E-01    0.506E-01
RMM:   5    -0.413169487812E+03    0.13324E-01   -0.80523E-03  4606   0.831E-02    0.376E-02
RMM:   6    -0.413169549342E+03   -0.61530E-04   -0.10587E-03  5580   0.297E-02    0.255E-02
RMM:   7    -0.413169567942E+03   -0.18600E-04   -0.17780E-04  5301   0.136E-02    0.179E-02
RMM:   8    -0.413169573693E+03   -0.57509E-05   -0.28643E-05  4397   0.691E-03    0.512E-03
RMM:   9    -0.413169573765E+03   -0.71937E-07   -0.55209E-06  2855   0.283E-03
   17 T=    62. E= -.41286704E+03 F= -.41316957E+03 E0= -.41314742E+03  EK= 0.30253E+00 SP= 0.00E+00 SK= 0.00E+00
       N       E                     dE             d eps       ncg     rms          rms(c)
RMM:   1    -0.413183157557E+03   -0.13584E-01   -0.56000E+00  4295   0.530E-01    0.929E-01
RMM:   2    -0.413178124784E+03    0.50328E-02   -0.74786E-02  4300   0.714E-02    0.670E-01
RMM:   3    -0.413183029784E+03   -0.49050E-02   -0.69491E-02  5128   0.120E-01    0.528E-01
RMM:   4    -0.413178747256E+03    0.42825E-02   -0.24187E-02  5000   0.138E-01    0.440E-01
RMM:   5    -0.413170075857E+03    0.86714E-02   -0.72632E-03  4448   0.720E-02    0.358E-02
RMM:   6    -0.413170103780E+03   -0.27923E-04   -0.63575E-04  5272   0.229E-02    0.239E-02
RMM:   7    -0.413170107943E+03   -0.41626E-05   -0.12459E-04  5000   0.113E-02    0.151E-02
RMM:   8    -0.413170106416E+03    0.15265E-05   -0.21019E-05  3859   0.615E-03    0.352E-03
RMM:   9    -0.413170107969E+03   -0.15524E-05   -0.25761E-06  2562   0.209E-03    0.288E-03
RMM:  10    -0.413170109653E+03   -0.16841E-05   -0.96846E-07  2372   0.133E-03    0.146E-03
RMM:  11    -0.413170109989E+03   -0.33651E-06   -0.48213E-07  1615   0.919E-04
   18 T=    62. E= -.41286696E+03 F= -.41317011E+03 E0= -.41314799E+03  EK= 0.30315E+00 SP= 0.00E+00 SK= 0.00E+00
       N       E                     dE             d eps       ncg     rms          rms(c)
RMM:   1    -0.413184808594E+03   -0.14699E-01   -0.55465E+00  4298   0.515E-01    0.950E-01
RMM:   2    -0.413179013418E+03    0.57952E-02   -0.75101E-02  4270   0.715E-02    0.672E-01
RMM:   3    -0.413178322395E+03    0.69102E-03   -0.62672E-02  5111   0.939E-02    0.400E-01
RMM:   4    -0.413184855218E+03   -0.65328E-02   -0.24291E-02  5051   0.135E-01    0.507E-01
RMM:   5    -0.413171288852E+03    0.13566E-01   -0.78195E-03  4614   0.833E-02    0.379E-02
RMM:   6    -0.413171360399E+03   -0.71547E-04   -0.10885E-03  5564   0.300E-02    0.259E-02
RMM:   7    -0.413171367614E+03   -0.72148E-05   -0.18179E-04  5349   0.137E-02    0.186E-02
RMM:   8    -0.413171369452E+03   -0.18383E-05   -0.29851E-05  4426   0.747E-03    0.541E-03
RMM:   9    -0.413171368140E+03    0.13115E-05   -0.63392E-06  2898   0.308E-03    0.331E-03
RMM:  10    -0.413171365994E+03    0.21469E-05   -0.11497E-06  2525   0.163E-03    0.212E-03
RMM:  11    -0.413171363322E+03    0.26718E-05   -0.75950E-07  2218   0.117E-03    0.968E-04
RMM:  12    -0.413171357969E+03    0.53526E-05   -0.84138E-07  2318   0.119E-03    0.646E-04
RMM:  13    -0.413171354244E+03    0.37254E-05   -0.28196E-07  1520   0.804E-04    0.370E-04
RMM:  14    -0.413171351587E+03    0.26564E-05   -0.15063E-07  1137   0.678E-04    0.155E-04
RMM:  15    -0.413171344387E+03    0.72005E-05   -0.20913E-07  1372   0.748E-04    0.271E-04
RMM:  16    -0.413171339484E+03    0.49027E-05   -0.13078E-07  1261   0.661E-04    0.232E-04
RMM:  17    -0.413171338519E+03    0.96508E-06   -0.55822E-08   861   0.548E-04
   19 T=    62. E= -.41286732E+03 F= -.41317134E+03 E0= -.41314926E+03  EK= 0.30402E+00 SP= 0.00E+00 SK= 0.00E+00
       N       E                     dE             d eps       ncg     rms          rms(c)
RMM:   1    -0.413184968311E+03   -0.13629E-01   -0.55170E+00  4295   0.520E-01    0.939E-01
RMM:   2    -0.413179153980E+03    0.58143E-02   -0.74857E-02  4282   0.711E-02    0.666E-01
RMM:   3    -0.413178751168E+03    0.40281E-03   -0.62438E-02  5130   0.929E-02    0.401E-01
RMM:   4    -0.413185230613E+03   -0.64794E-02   -0.24457E-02  5052   0.136E-01    0.508E-01
RMM:   5    -0.413171661691E+03    0.13569E-01   -0.78690E-03  4612   0.832E-02    0.380E-02
RMM:   6    -0.413171727537E+03   -0.65846E-04   -0.10926E-03  5567   0.301E-02    0.256E-02
RMM:   7    -0.413171753755E+03   -0.26218E-04   -0.17974E-04  5343   0.134E-02    0.185E-02
RMM:   8    -0.413171753708E+03    0.46744E-07   -0.29047E-05  4443   0.690E-03    0.541E-03
RMM:   9    -0.413171752818E+03    0.88976E-06   -0.58078E-06  2871   0.281E-03
   20 T=    62. E= -.41286716E+03 F= -.41317175E+03 E0= -.41314972E+03  EK= 0.30460E+00 SP= 0.00E+00 SK= 0.00E+00
       N       E                     dE             d eps       ncg     rms          rms(c)
RMM:   1    -0.413185665006E+03   -0.13911E-01   -0.56119E+00  4298   0.529E-01    0.930E-01
RMM:   2    -0.413180592123E+03    0.50729E-02   -0.74938E-02  4322   0.710E-02    0.670E-01
RMM:   3    -0.413185800120E+03   -0.52080E-02   -0.69331E-02  5159   0.116E-01    0.523E-01
RMM:   4    -0.413181981347E+03    0.38188E-02   -0.24472E-02  5008   0.139E-01    0.445E-01
RMM:   5    -0.413172899078E+03    0.90823E-02   -0.72648E-03  4458   0.722E-02    0.361E-02
RMM:   6    -0.413172928661E+03   -0.29583E-04   -0.66673E-04  5299   0.234E-02    0.240E-02
RMM:   7    -0.413172932172E+03   -0.35107E-05   -0.12788E-04  5006   0.117E-02    0.154E-02
RMM:   8    -0.413172936208E+03   -0.40366E-05   -0.21801E-05  3951   0.627E-03    0.359E-03
RMM:   9    -0.413172937115E+03   -0.90612E-06   -0.26986E-06  2583   0.213E-03
   21 T=    62. E= -.41286749E+03 F= -.41317294E+03 E0= -.41315095E+03  EK= 0.30545E+00 SP= 0.00E+00 SK= 0.00E+00
       N       E                     dE             d eps       ncg     rms          rms(c)
RMM:   1    -0.413187346102E+03   -0.14410E-01   -0.55937E+00  4295   0.527E-01    0.947E-01
RMM:   2    -0.413181553588E+03    0.57925E-02   -0.75715E-02  4292   0.731E-02    0.674E-01
RMM:   3    -0.413182838510E+03   -0.12849E-02   -0.64668E-02  5117   0.103E-01    0.441E-01
RMM:   4    -0.413185784424E+03   -0.29459E-02   -0.24342E-02  5044   0.137E-01    0.483E-01
RMM:   5    -0.413173933642E+03    0.11851E-01   -0.73945E-03  4567   0.795E-02    0.375E-02
RMM:   6    -0.413173982798E+03   -0.49156E-04   -0.91962E-04  5496   0.276E-02    0.251E-02
RMM:   7    -0.413174006503E+03   -0.23704E-04   -0.16084E-04  5260   0.129E-02    0.175E-02
RMM:   8    -0.413174010822E+03   -0.43192E-05   -0.26427E-05  4242   0.702E-03    0.464E-03
RMM:   9    -0.413174009560E+03    0.12625E-05   -0.48243E-06  2778   0.264E-03    0.304E-03
RMM:  10    -0.413174007420E+03    0.21394E-05   -0.10111E-06  2502   0.151E-03    0.190E-03
RMM:  11    -0.413174004802E+03    0.26180E-05   -0.68183E-07  2035   0.109E-03    0.828E-04
RMM:  12    -0.413173999624E+03    0.51782E-05   -0.73006E-07  2223   0.110E-03    0.547E-04
RMM:  13    -0.413173994787E+03    0.48368E-05   -0.29837E-07  1358   0.783E-04    0.368E-04
RMM:  14    -0.413173990105E+03    0.46818E-05   -0.18342E-07  1146   0.698E-04    0.190E-04
RMM:  15    -0.413173984323E+03    0.57827E-05   -0.15722E-07  1189   0.683E-04    0.235E-04
RMM:  16    -0.413173976429E+03    0.78932E-05   -0.17709E-07  1319   0.696E-04    0.171E-04
RMM:  17    -0.413173976087E+03    0.34206E-06   -0.53014E-08   767   0.542E-04
   22 T=    62. E= -.41286755E+03 F= -.41317398E+03 E0= -.41315203E+03  EK= 0.30643E+00 SP= 0.00E+00 SK= 0.00E+00
       N       E                     dE             d eps       ncg     rms          rms(c)
RMM:   1    -0.413188225838E+03   -0.14249E-01   -0.55628E+00  4294   0.531E-01    0.948E-01
RMM:   2    -0.413182267730E+03    0.59581E-02   -0.75756E-02  4278   0.740E-02    0.670E-01
RMM:   3    -0.413180881743E+03    0.13860E-02   -0.61807E-02  5072   0.928E-02    0.378E-01
RMM:   4    -0.413189724963E+03   -0.88432E-02   -0.24728E-02  5049   0.137E-01    0.529E-01
RMM:   5    -0.413174694162E+03    0.15031E-01   -0.83294E-03  4648   0.872E-02    0.381E-02
RMM:   6    -0.413174757782E+03   -0.63620E-04   -0.11794E-03  5668   0.318E-02    0.261E-02
RMM:   7    -0.413174762463E+03   -0.46815E-05   -0.19702E-04  5371   0.142E-02    0.191E-02
RMM:   8    -0.413174760735E+03    0.17281E-05   -0.32150E-05  4549   0.713E-03    0.598E-03
RMM:   9    -0.413174759637E+03    0.10977E-05   -0.68773E-06  2968   0.306E-03    0.342E-03
RMM:  10    -0.413174758104E+03    0.15332E-05   -0.11836E-06  2528   0.170E-03    0.225E-03
RMM:  11    -0.413174755857E+03    0.22471E-05   -0.80162E-07  2342   0.122E-03    0.105E-03
RMM:  12    -0.413174751482E+03    0.43748E-05   -0.88710E-07  2386   0.123E-03    0.677E-04
RMM:  13    -0.413174748974E+03    0.25087E-05   -0.27358E-07  1585   0.801E-04    0.393E-04
RMM:  14    -0.413174746810E+03    0.21636E-05   -0.14678E-07  1146   0.668E-04    0.160E-04
RMM:  15    -0.413174741318E+03    0.54916E-05   -0.15712E-07  1208   0.697E-04    0.204E-04
RMM:  16    -0.413174736547E+03    0.47710E-05   -0.11027E-07  1103   0.643E-04    0.169E-04
RMM:  17    -0.413174734229E+03    0.23180E-05   -0.57978E-08   905   0.587E-04    0.112E-04
RMM:  18    -0.413174731099E+03    0.31305E-05   -0.53552E-08  1014   0.592E-04    0.603E-05
RMM:  19    -0.413174730406E+03    0.69282E-06   -0.24488E-08   751   0.541E-04
   23 T=    63. E= -.41286723E+03 F= -.41317473E+03 E0= -.41315284E+03  EK= 0.30750E+00 SP= 0.00E+00 SK= 0.00E+00
       N       E                     dE             d eps       ncg     rms          rms(c)
RMM:   1    -0.413189219772E+03   -0.14489E-01   -0.56342E+00  4289   0.541E-01    0.933E-01
RMM:   2    -0.413184240839E+03    0.49789E-02   -0.75630E-02  4294   0.786E-02    0.671E-01
RMM:   3    -0.413182664906E+03    0.15759E-02   -0.64965E-02  5056   0.957E-02    0.398E-01
RMM:   4    -0.413191486981E+03   -0.88221E-02   -0.24077E-02  5043   0.135E-01    0.539E-01
RMM:   5    -0.413176210406E+03    0.15277E-01   -0.92241E-03  4653   0.899E-02    0.378E-02
RMM:   6    -0.413176285384E+03   -0.74978E-04   -0.12302E-03  5687   0.321E-02    0.251E-02
RMM:   7    -0.413176317035E+03   -0.31650E-04   -0.20023E-04  5371   0.148E-02    0.181E-02
RMM:   8    -0.413176324979E+03   -0.79445E-05   -0.35116E-05  4482   0.812E-03    0.557E-03
RMM:   9    -0.413176326917E+03   -0.19375E-05   -0.82974E-06  3013   0.330E-03    0.359E-03
RMM:  10    -0.413176328680E+03   -0.17629E-05   -0.12587E-06  2532   0.173E-03    0.237E-03
RMM:  11    -0.413176329468E+03   -0.78809E-06   -0.78989E-07  2339   0.123E-03
   24 T=    63. E= -.41286746E+03 F= -.41317633E+03 E0= -.41315448E+03  EK= 0.30887E+00 SP= 0.00E+00 SK= 0.00E+00
       N       E                     dE             d eps       ncg     rms          rms(c)
RMM:   1    -0.413190710655E+03   -0.14382E-01   -0.56712E+00  4288   0.543E-01    0.947E-01
RMM:   2    -0.413185441519E+03    0.52691E-02   -0.76526E-02  4289   0.790E-02    0.678E-01
RMM:   3    -0.413182242003E+03    0.31995E-02   -0.63945E-02  5026   0.891E-02    0.364E-01
RMM:   4    -0.413194628247E+03   -0.12386E-01   -0.24276E-02  5072   0.135E-01    0.566E-01
RMM:   5    -0.413177297306E+03    0.17331E-01   -0.97511E-03  4695   0.942E-02    0.379E-02
RMM:   6    -0.413177391687E+03   -0.94381E-04   -0.14042E-03  5771   0.347E-02    0.255E-02
RMM:   7    -0.413177401585E+03   -0.98979E-05   -0.21260E-04  5493   0.149E-02    0.191E-02
RMM:   8    -0.413177393959E+03    0.76259E-05   -0.39963E-05  4654   0.808E-03    0.700E-03
RMM:   9    -0.413177392700E+03    0.12584E-05   -0.93102E-06  3205   0.375E-03    0.409E-03
RMM:  10    -0.413177392375E+03    0.32523E-06   -0.14670E-06  2547   0.193E-03
   25 T=    63. E= -.41286733E+03 F= -.41317739E+03 E0= -.41315560E+03  EK= 0.31006E+00 SP= 0.00E+00 SK= 0.00E+00
       N       E                     dE             d eps       ncg     rms          rms(c)
RMM:   1    -0.413192542720E+03   -0.15150E-01   -0.56327E+00  4293   0.543E-01    0.959E-01
RMM:   2    -0.413186469160E+03    0.60736E-02   -0.77014E-02  4312   0.773E-02    0.676E-01
RMM:   3    -0.413187887067E+03   -0.14179E-02   -0.63783E-02  5102   0.110E-01    0.437E-01
RMM:   4    -0.413190628128E+03   -0.27411E-02   -0.24598E-02  5027   0.138E-01    0.478E-01
RMM:   5    -0.413178771808E+03    0.11856E-01   -0.68301E-03  4557   0.785E-02    0.377E-02
RMM:   6    -0.413178817029E+03   -0.45221E-04   -0.92106E-04  5525   0.278E-02    0.257E-02
RMM:   7    -0.413178822354E+03   -0.53251E-05   -0.16605E-04  5156   0.140E-02    0.184E-02
RMM:   8    -0.413178819336E+03    0.30179E-05   -0.27016E-05  4286   0.728E-03    0.493E-03
RMM:   9    -0.413178815820E+03    0.35158E-05   -0.58269E-06  2841   0.268E-03    0.299E-03
RMM:  10    -0.413178811829E+03    0.39911E-05   -0.10587E-06  2521   0.156E-03    0.190E-03
RMM:  11    -0.413178807852E+03    0.39772E-05   -0.68822E-07  2085   0.111E-03    0.891E-04
RMM:  12    -0.413178800109E+03    0.77429E-05   -0.85319E-07  2304   0.116E-03    0.565E-04
RMM:  13    -0.413178795082E+03    0.50268E-05   -0.32413E-07  1455   0.794E-04    0.450E-04
RMM:  14    -0.413178789306E+03    0.57764E-05   -0.19176E-07  1159   0.695E-04    0.168E-04
RMM:  15    -0.413178782524E+03    0.67814E-05   -0.15368E-07  1171   0.674E-04    0.230E-04
RMM:  16    -0.413178772559E+03    0.99653E-05   -0.17644E-07  1414   0.708E-04    0.202E-04
RMM:  17    -0.413178772030E+03    0.52921E-06   -0.55189E-08   864   0.553E-04
   26 T=    63. E= -.41286735E+03 F= -.41317877E+03 E0= -.41315702E+03  EK= 0.31143E+00 SP= 0.00E+00 SK= 0.00E+00
       N       E                     dE             d eps       ncg     rms          rms(c)
RMM:   1    -0.413193713404E+03   -0.14941E-01   -0.56705E+00  4288   0.554E-01    0.938E-01
RMM:   2    -0.413188507931E+03    0.52055E-02   -0.76890E-02  4285   0.773E-02    0.674E-01
RMM:   3    -0.413186183946E+03    0.23240E-02   -0.64316E-02  5049   0.935E-02    0.380E-01
RMM:   4    -0.413197246012E+03   -0.11062E-01   -0.24748E-02  5063   0.137E-01    0.559E-01
RMM:   5    -0.413180463219E+03    0.16783E-01   -0.95790E-03  4669   0.927E-02    0.384E-02
RMM:   6    -0.413180575788E+03   -0.11257E-03   -0.13617E-03  5720   0.340E-02    0.255E-02
RMM:   7    -0.413180597454E+03   -0.21666E-04   -0.21103E-04  5444   0.147E-02    0.192E-02
RMM:   8    -0.413180604722E+03   -0.72682E-05   -0.35628E-05  4580   0.763E-03    0.647E-03
RMM:   9    -0.413180605098E+03   -0.37566E-06   -0.84528E-06  3095   0.338E-03
   27 T=    64. E= -.41286769E+03 F= -.41318061E+03 E0= -.41315891E+03  EK= 0.31291E+00 SP= 0.00E+00 SK= 0.00E+00
       N       E                     dE             d eps       ncg     rms          rms(c)
RMM:   1    -0.413195008117E+03   -0.14403E-01   -0.57547E+00  4293   0.560E-01    0.948E-01
RMM:   2    -0.413189763541E+03    0.52446E-02   -0.77604E-02  4322   0.799E-02    0.682E-01
RMM:   3    -0.413194183987E+03   -0.44204E-02   -0.69519E-02  5148   0.118E-01    0.512E-01
RMM:   4    -0.413191656342E+03    0.25276E-02   -0.24969E-02  5005   0.140E-01    0.458E-01
RMM:   5    -0.413181794726E+03    0.98616E-02   -0.72874E-03  4461   0.752E-02    0.368E-02
RMM:   6    -0.413181817696E+03   -0.22970E-04   -0.74930E-04  5415   0.248E-02    0.243E-02
RMM:   7    -0.413181814189E+03    0.35070E-05   -0.14149E-04  5027   0.126E-02    0.165E-02
RMM:   8    -0.413181822080E+03   -0.78906E-05   -0.23845E-05  4138   0.655E-03    0.397E-03
RMM:   9    -0.413181822289E+03   -0.20909E-06   -0.36493E-06  2665   0.234E-03
   28 T=    64. E= -.41286758E+03 F= -.41318182E+03 E0= -.41316018E+03  EK= 0.31425E+00 SP= 0.00E+00 SK= 0.00E+00
       N       E                     dE             d eps       ncg     rms          rms(c)
RMM:   1    -0.413197918496E+03   -0.16096E-01   -0.57128E+00  4293   0.561E-01    0.966E-01
RMM:   2    -0.413191641293E+03    0.62772E-02   -0.78663E-02  4297   0.802E-02    0.682E-01
RMM:   3    -0.413191993635E+03   -0.35234E-03   -0.63437E-02  5115   0.102E-01    0.416E-01
RMM:   4    -0.413197286982E+03   -0.52933E-02   -0.25348E-02  5033   0.139E-01    0.504E-01
RMM:   5    -0.413183848604E+03    0.13438E-01   -0.74060E-03  4596   0.824E-02    0.384E-02
RMM:   6    -0.413183903650E+03   -0.55046E-04   -0.10784E-03  5637   0.297E-02    0.259E-02
RMM:   7    -0.413183924101E+03   -0.20451E-04   -0.18206E-04  5325   0.133E-02    0.191E-02
RMM:   8    -0.413183930107E+03   -0.60068E-05   -0.29467E-05  4483   0.703E-03    0.571E-03
RMM:   9    -0.413183926644E+03    0.34631E-05   -0.56332E-06  2849   0.294E-03    0.315E-03
RMM:  10    -0.413183922301E+03    0.43435E-05   -0.10781E-06  2518   0.161E-03    0.207E-03
RMM:  11    -0.413183917220E+03    0.50810E-05   -0.78193E-07  2253   0.118E-03    0.952E-04
RMM:  12    -0.413183908254E+03    0.89657E-05   -0.89146E-07  2298   0.118E-03    0.640E-04
RMM:  13    -0.413183903757E+03    0.44975E-05   -0.28274E-07  1488   0.795E-04    0.454E-04
RMM:  14    -0.413183898638E+03    0.51184E-05   -0.16599E-07  1144   0.687E-04    0.174E-04
RMM:  15    -0.413183888105E+03    0.10533E-04   -0.21130E-07  1388   0.739E-04    0.308E-04
RMM:  16    -0.413183880162E+03    0.79425E-05   -0.12952E-07  1323   0.669E-04    0.226E-04
RMM:  17    -0.413183877664E+03    0.24988E-05   -0.59179E-08   954   0.559E-04    0.149E-04
RMM:  18    -0.413183874325E+03    0.33388E-05   -0.46382E-08   980   0.564E-04    0.428E-05
RMM:  19    -0.413183873941E+03    0.38373E-06   -0.19640E-08   713   0.511E-04
   29 T=    64. E= -.41286786E+03 F= -.41318387E+03 E0= -.41316228E+03  EK= 0.31601E+00 SP= 0.00E+00 SK= 0.00E+00
       N       E                     dE             d eps       ncg     rms          rms(c)
RMM:   1    -0.413199175489E+03   -0.15301E-01   -0.57236E+00  4296   0.572E-01    0.947E-01
RMM:   2    -0.413193777265E+03    0.53982E-02   -0.77924E-02  4278   0.799E-02    0.677E-01
RMM:   3    -0.413190995507E+03    0.27818E-02   -0.63850E-02  5051   0.918E-02    0.368E-01
RMM:   4    -0.413203231053E+03   -0.12236E-01   -0.25611E-02  5070   0.139E-01    0.569E-01
RMM:   5    -0.413185623426E+03    0.17608E-01   -0.98065E-03  4679   0.950E-02    0.386E-02
RMM:   6    -0.413185718420E+03   -0.94994E-04   -0.14569E-03  5760   0.349E-02    0.259E-02
RMM:   7    -0.413185730529E+03   -0.12109E-04   -0.21620E-04  5466   0.149E-02    0.197E-02
RMM:   8    -0.413185733973E+03   -0.34433E-05   -0.39124E-05  4671   0.784E-03    0.730E-03
RMM:   9    -0.413185733824E+03    0.14817E-06   -0.90840E-06  3181   0.356E-03
   30 T=    65. E= -.41286783E+03 F= -.41318573E+03 E0= -.41316419E+03  EK= 0.31790E+00 SP= 0.00E+00 SK= 0.00E+00
       N       E                     dE             d eps       ncg     rms          rms(c)
RMM:   1    -0.413200732705E+03   -0.14999E-01   -0.58509E+00  4304   0.586E-01    0.951E-01
RMM:   2    -0.413195968500E+03    0.47642E-02   -0.79371E-02  4301   0.892E-02    0.686E-01
RMM:   3    -0.413200135673E+03   -0.41672E-02   -0.71133E-02  5096   0.125E-01    0.521E-01
RMM:   4    -0.413197465934E+03    0.26697E-02   -0.25536E-02  4990   0.142E-01    0.466E-01
RMM:   5    -0.413187250803E+03    0.10215E-01   -0.75705E-03  4462   0.761E-02    0.369E-02
RMM:   6    -0.413187297527E+03   -0.46724E-04   -0.77648E-04  5440   0.251E-02    0.243E-02
RMM:   7    -0.413187328176E+03   -0.30649E-04   -0.14608E-04  5043   0.125E-02    0.166E-02
RMM:   8    -0.413187339988E+03   -0.11812E-04   -0.25735E-05  4204   0.672E-03    0.406E-03
RMM:   9    -0.413187340476E+03   -0.48780E-06   -0.38005E-06  2698   0.243E-03
   31 T=    65. E= -.41286752E+03 F= -.41318734E+03 E0= -.41316584E+03  EK= 0.31982E+00 SP= 0.00E+00 SK= 0.00E+00
       N       E                     dE             d eps       ncg     rms          rms(c)
RMM:   1    -0.413204926577E+03   -0.17587E-01   -0.58249E+00  4302   0.594E-01    0.972E-01
RMM:   2    -0.413198173929E+03    0.67526E-02   -0.80994E-02  4284   0.930E-02    0.688E-01
RMM:   3    -0.413197560902E+03    0.61303E-03   -0.64274E-02  5054   0.110E-01    0.410E-01
RMM:   4    -0.413204433098E+03   -0.68722E-02   -0.25956E-02  5032   0.141E-01    0.523E-01
RMM:   5    -0.413189788214E+03    0.14645E-01   -0.80863E-03  4611   0.869E-02    0.385E-02
RMM:   6    -0.413189873701E+03   -0.85487E-04   -0.11705E-03  5672   0.312E-02    0.264E-02
RMM:   7    -0.413189891724E+03   -0.18023E-04   -0.19457E-04  5306   0.144E-02    0.195E-02
RMM:   8    -0.413189889236E+03    0.24874E-05   -0.31977E-05  4505   0.742E-03    0.607E-03
RMM:   9    -0.413189885493E+03    0.37436E-05   -0.70149E-06  2929   0.315E-03    0.333E-03
RMM:  10    -0.413189881074E+03    0.44191E-05   -0.11731E-06  2522   0.172E-03    0.218E-03
RMM:  11    -0.413189876078E+03    0.49956E-05   -0.77177E-07  2280   0.122E-03    0.101E-03
RMM:  12    -0.413189867407E+03    0.86717E-05   -0.81652E-07  2356   0.119E-03    0.637E-04
RMM:  13    -0.413189862846E+03    0.45605E-05   -0.27330E-07  1558   0.809E-04    0.464E-04
RMM:  14    -0.413189857521E+03    0.53247E-05   -0.16447E-07  1152   0.691E-04    0.181E-04
RMM:  15    -0.413189847016E+03    0.10506E-04   -0.19729E-07  1406   0.736E-04    0.303E-04
RMM:  16    -0.413189838058E+03    0.89578E-05   -0.13607E-07  1391   0.687E-04    0.244E-04
RMM:  17    -0.413189835584E+03    0.24741E-05   -0.62042E-08   985   0.563E-04    0.170E-04
RMM:  18    -0.413189831867E+03    0.37172E-05   -0.51645E-08  1068   0.577E-04    0.544E-05
RMM:  19    -0.413189831572E+03    0.29509E-06   -0.21436E-08   695   0.510E-04
   32 T=    66. E= -.41286778E+03 F= -.41318983E+03 E0= -.41316838E+03  EK= 0.32206E+00 SP= 0.00E+00 SK= 0.00E+00
       N       E                     dE             d eps       ncg     rms          rms(c)
RMM:   1    -0.413206696335E+03   -0.16864E-01   -0.58256E+00  4301   0.611E-01    0.960E-01
RMM:   2    -0.413200008639E+03    0.66877E-02   -0.81592E-02  4268   0.956E-02    0.684E-01
RMM:   3    -0.413195825052E+03    0.41836E-02   -0.62902E-02  4962   0.972E-02    0.334E-01
RMM:   4    -0.413211939965E+03   -0.16115E-01   -0.26785E-02  5089   0.142E-01    0.605E-01
RMM:   5    -0.413191379656E+03    0.20560E-01   -0.10878E-02  4713   0.103E-01    0.397E-02
RMM:   6    -0.413191521537E+03   -0.14188E-03   -0.17131E-03  5800   0.381E-02    0.268E-02
RMM:   7    -0.413191571803E+03   -0.50266E-04   -0.23572E-04  5470   0.162E-02    0.198E-02
RMM:   8    -0.413191592316E+03   -0.20513E-04   -0.51221E-05  4743   0.909E-03    0.855E-03
RMM:   9    -0.413191591556E+03    0.75981E-06   -0.12922E-05  3535   0.448E-03    0.471E-03
RMM:  10    -0.413191590592E+03    0.96418E-06   -0.20657E-06  2608   0.229E-03
   33 T=    66. E= -.41286754E+03 F= -.41319159E+03 E0= -.41317019E+03  EK= 0.32405E+00 SP= 0.00E+00 SK= 0.00E+00
       N       E                     dE             d eps       ncg     rms          rms(c)
RMM:   1    -0.413208055259E+03   -0.16464E-01   -0.59524E+00  4306   0.636E-01    0.957E-01
RMM:   2    -0.413202507277E+03    0.55480E-02   -0.81290E-02  4275   0.988E-02    0.691E-01
RMM:   3    -0.413201131536E+03    0.13757E-02   -0.68720E-02  5020   0.111E-01    0.422E-01
RMM:   4    -0.413209796111E+03   -0.86646E-02   -0.25675E-02  5042   0.140E-01    0.553E-01
RMM:   5    -0.413193809496E+03    0.15987E-01   -0.97451E-03  4634   0.926E-02    0.383E-02
RMM:   6    -0.413193922596E+03   -0.11310E-03   -0.13250E-03  5706   0.328E-02    0.257E-02
RMM:   7    -0.413193958735E+03   -0.36140E-04   -0.20674E-04  5335   0.151E-02    0.190E-02
RMM:   8    -0.413193970008E+03   -0.11272E-04   -0.37899E-05  4556   0.824E-03    0.621E-03
RMM:   9    -0.413193970239E+03   -0.23116E-06   -0.87898E-06  3087   0.367E-03
   34 T=    66. E= -.41286779E+03 F= -.41319397E+03 E0= -.41317262E+03  EK= 0.32619E+00 SP= 0.00E+00 SK= 0.00E+00
       N       E                     dE             d eps       ncg     rms          rms(c)
RMM:   1    -0.413211211245E+03   -0.17241E-01   -0.59365E+00  4305   0.632E-01    0.976E-01
RMM:   2    -0.413204678038E+03    0.65332E-02   -0.83766E-02  4276   0.110E-01    0.694E-01
RMM:   3    -0.413203795856E+03    0.88218E-03   -0.65130E-02  5000   0.119E-01    0.401E-01
RMM:   4    -0.413212698398E+03   -0.89025E-02   -0.26578E-02  5030   0.143E-01    0.548E-01
RMM:   5    -0.413196528934E+03    0.16169E-01   -0.88547E-03  4634   0.924E-02    0.397E-02
RMM:   6    -0.413196609538E+03   -0.80604E-04   -0.12788E-03  5678   0.328E-02    0.265E-02
RMM:   7    -0.413196628594E+03   -0.19056E-04   -0.20946E-04  5335   0.148E-02    0.196E-02
RMM:   8    -0.413196637218E+03   -0.86240E-05   -0.36474E-05  4543   0.828E-03    0.624E-03
RMM:   9    -0.413196635115E+03    0.21035E-05   -0.86869E-06  3039   0.362E-03    0.348E-03
RMM:  10    -0.413196631501E+03    0.36135E-05   -0.15522E-06  2564   0.188E-03    0.233E-03
RMM:  11    -0.413196626913E+03    0.45883E-05   -0.84982E-07  2352   0.132E-03    0.108E-03
RMM:  12    -0.413196619019E+03    0.78938E-05   -0.79784E-07  2346   0.124E-03    0.655E-04
RMM:  13    -0.413196614968E+03    0.40513E-05   -0.26627E-07  1644   0.831E-04    0.498E-04
RMM:  14    -0.413196609615E+03    0.53534E-05   -0.16937E-07  1196   0.701E-04    0.190E-04
RMM:  15    -0.413196597390E+03    0.12225E-04   -0.22720E-07  1530   0.767E-04    0.384E-04
RMM:  16    -0.413196589744E+03    0.76460E-05   -0.12219E-07  1287   0.662E-04    0.239E-04
RMM:  17    -0.413196585191E+03    0.45535E-05   -0.76749E-08  1143   0.606E-04    0.141E-04
RMM:  18    -0.413196582407E+03    0.27837E-05   -0.50924E-08  1072   0.578E-04    0.428E-05
RMM:  19    -0.413196581738E+03    0.66942E-06   -0.26934E-08   811   0.524E-04
   35 T=    67. E= -.41286818E+03 F= -.41319658E+03 E0= -.41317527E+03  EK= 0.32841E+00 SP= 0.00E+00 SK= 0.00E+00
       N       E                     dE             d eps       ncg     rms          rms(c)
RMM:   1    -0.413213257274E+03   -0.16675E-01   -0.59236E+00  4306   0.653E-01    0.976E-01
RMM:   2    -0.413206534235E+03    0.67230E-02   -0.83879E-02  4262   0.113E-01    0.692E-01
RMM:   3    -0.413200725502E+03    0.58087E-02   -0.62602E-02  4617   0.978E-02    0.268E-01
RMM:   4    -0.413211433025E+03   -0.10708E-01   -0.14736E-02  5117   0.105E-01    0.474E-01
RMM:   5    -0.413198599145E+03    0.12834E-01   -0.64895E-03  4783   0.792E-02    0.354E-02
RMM:   6    -0.413198674311E+03   -0.75166E-04   -0.10641E-03  5797   0.307E-02    0.253E-02
RMM:   7    -0.413198709462E+03   -0.35152E-04   -0.19203E-04  5387   0.149E-02    0.185E-02
RMM:   8    -0.413198700114E+03    0.93485E-05   -0.34575E-05  4672   0.712E-03    0.703E-03
RMM:   9    -0.413198699996E+03    0.11767E-06   -0.86411E-06  3236   0.358E-03
   36 T=    67. E= -.41286821E+03 F= -.41319870E+03 E0= -.41317744E+03  EK= 0.33049E+00 SP= 0.00E+00 SK= 0.00E+00
       N       E                     dE             d eps       ncg     rms          rms(c)
RMM:   1    -0.413217597954E+03   -0.18898E-01   -0.60506E+00  4315   0.696E-01    0.959E-01
RMM:   2    -0.413210003104E+03    0.75948E-02   -0.89834E-02  4271   0.119E-01    0.696E-01
RMM:   3    -0.413206064847E+03    0.39383E-02   -0.65598E-02  4853   0.115E-01    0.344E-01
RMM:   4    -0.413224682023E+03   -0.18617E-01   -0.27988E-02  5080   0.146E-01    0.638E-01
RMM:   5    -0.413201741683E+03    0.22940E-01   -0.12262E-02  4751   0.107E-01    0.405E-02
RMM:   6    -0.413201861988E+03   -0.12030E-03   -0.18525E-03  5811   0.396E-02    0.260E-02
RMM:   7    -0.413201881965E+03   -0.19977E-04   -0.17859E-04  5506   0.136E-02    0.148E-02
RMM:   8    -0.413201883587E+03   -0.16220E-05   -0.31953E-05  4487   0.620E-03    0.581E-03
RMM:   9    -0.413201884787E+03   -0.12000E-05   -0.78136E-06  3140   0.326E-03    0.437E-03
RMM:  10    -0.413201882855E+03    0.19315E-05   -0.14594E-06  2559   0.183E-03    0.302E-03
RMM:  11    -0.413201879943E+03    0.29123E-05   -0.14140E-06  2502   0.168E-03    0.145E-03
RMM:  12    -0.413201874864E+03    0.50789E-05   -0.10956E-06  2432   0.143E-03    0.124E-03
RMM:  13    -0.413201872659E+03    0.22049E-05   -0.26501E-07  1883   0.891E-04    0.606E-04
RMM:  14    -0.413201870487E+03    0.21721E-05   -0.15025E-07  1311   0.695E-04    0.282E-04
RMM:  15    -0.413201860243E+03    0.10244E-04   -0.30003E-07  2118   0.862E-04    0.664E-04
RMM:  16    -0.413201857097E+03    0.31465E-05   -0.75349E-08  1007   0.572E-04    0.473E-04
RMM:  17    -0.413201850282E+03    0.68148E-05   -0.82037E-08  1043   0.600E-04    0.300E-04
RMM:  18    -0.413201846627E+03    0.36545E-05   -0.52887E-08  1094   0.598E-04    0.597E-05
RMM:  19    -0.413201844681E+03    0.19459E-05   -0.33533E-08  1058   0.570E-04    0.120E-04
RMM:  20    -0.413201844160E+03    0.52132E-06   -0.15231E-08   788   0.508E-04
   37 T=    68. E= -.41286871E+03 F= -.41320184E+03 E0= -.41318062E+03  EK= 0.33313E+00 SP= 0.00E+00 SK= 0.00E+00
       N       E                     dE             d eps       ncg     rms          rms(c)
RMM:   1    -0.413219377074E+03   -0.17532E-01   -0.60784E+00  4312   0.692E-01    0.980E-01
RMM:   2    -0.413212877696E+03    0.64994E-02   -0.89428E-02  4258   0.112E-01    0.704E-01
RMM:   3    -0.413206285421E+03    0.65923E-02   -0.64723E-02  4381   0.915E-02    0.273E-01
RMM:   4    -0.413204416608E+03    0.18688E-02   -0.37251E-03  4542   0.333E-02    0.366E-02
RMM:   5    -0.413204479139E+03   -0.62531E-04   -0.26797E-04  4939   0.122E-02    0.437E-02
RMM:   6    -0.413204436417E+03    0.42722E-04   -0.14413E-04  5062   0.111E-02    0.281E-02
RMM:   7    -0.413204485063E+03   -0.48645E-04   -0.12794E-04  4734   0.128E-02    0.217E-02
RMM:   8    -0.413204473852E+03    0.11210E-04   -0.28026E-05  3766   0.484E-03    0.498E-03
RMM:   9    -0.413204474775E+03   -0.92289E-06   -0.82673E-06  2397   0.212E-03
   38 T=    68. E= -.41286870E+03 F= -.41320447E+03 E0= -.41318330E+03  EK= 0.33577E+00 SP= 0.00E+00 SK= 0.00E+00
       N       E                     dE             d eps       ncg     rms          rms(c)
RMM:   1    -0.413222630550E+03   -0.18157E-01   -0.60708E+00  4308   0.729E-01    0.991E-01
RMM:   2    -0.413215347866E+03    0.72827E-02   -0.88774E-02  4261   0.112E-01    0.701E-01
RMM:   3    -0.413208895774E+03    0.64521E-02   -0.62157E-02  4522   0.886E-02    0.245E-01
RMM:   4    -0.413209945094E+03   -0.10493E-02   -0.54700E-03  5117   0.585E-02    0.223E-01
RMM:   5    -0.413207237574E+03    0.27075E-02   -0.14064E-03  4793   0.383E-02    0.356E-02
RMM:   6    -0.413207221598E+03    0.15976E-04   -0.35707E-04  5409   0.194E-02    0.264E-02
RMM:   7    -0.413207247429E+03   -0.25831E-04   -0.14328E-04  5039   0.128E-02    0.189E-02
RMM:   8    -0.413207239311E+03    0.81179E-05   -0.26165E-05  4563   0.608E-03    0.692E-03
RMM:   9    -0.413207237776E+03    0.15346E-05   -0.84049E-06  2647   0.241E-03    0.344E-03
RMM:  10    -0.413207232693E+03    0.50833E-05   -0.13617E-06  2461   0.151E-03    0.155E-03
RMM:  11    -0.413207227467E+03    0.52260E-05   -0.71734E-07  1972   0.104E-03    0.556E-04
RMM:  12    -0.413207221829E+03    0.56381E-05   -0.29836E-07  1460   0.826E-04    0.298E-04
RMM:  13    -0.413207214716E+03    0.71124E-05   -0.19773E-07  1256   0.742E-04    0.233E-04
RMM:  14    -0.413207204509E+03    0.10207E-04   -0.18512E-07  1350   0.723E-04    0.166E-04
RMM:  15    -0.413207193966E+03    0.10543E-04   -0.14565E-07  1373   0.695E-04    0.139E-04
RMM:  16    -0.413207189429E+03    0.45377E-05   -0.69996E-08  1027   0.591E-04    0.962E-05
RMM:  17    -0.413207186720E+03    0.27090E-05   -0.46434E-08   918   0.561E-04    0.424E-05
RMM:  18    -0.413207185855E+03    0.86466E-06   -0.27244E-08   712   0.515E-04
   39 T=    69. E= -.41286851E+03 F= -.41320719E+03 E0= -.41318605E+03  EK= 0.33868E+00 SP= 0.00E+00 SK= 0.00E+00
       N       E                     dE             d eps       ncg     rms          rms(c)
RMM:   1    -0.413225628438E+03   -0.18442E-01   -0.61506E+00  4306   0.752E-01    0.972E-01
RMM:   2    -0.413219169285E+03    0.64592E-02   -0.91859E-02  4259   0.109E-01    0.703E-01
RMM:   3    -0.413212777143E+03    0.63921E-02   -0.64947E-02  4658   0.900E-02    0.284E-01
RMM:   4    -0.413222375164E+03   -0.95980E-02   -0.14863E-02  5117   0.103E-01    0.459E-01
RMM:   5    -0.413210515917E+03    0.11859E-01   -0.59365E-03  4790   0.771E-02    0.370E-02
RMM:   6    -0.413210522398E+03   -0.64819E-05   -0.99767E-04  5702   0.310E-02    0.262E-02
RMM:   7    -0.413210573330E+03   -0.50932E-04   -0.19864E-04  5495   0.138E-02    0.185E-02
RMM:   8    -0.413210571865E+03    0.14650E-05   -0.39579E-05  4957   0.715E-03    0.743E-03
RMM:   9    -0.413210573483E+03   -0.16173E-05   -0.78271E-06  3065   0.333E-03    0.377E-03
RMM:  10    -0.413210573860E+03   -0.37793E-06   -0.14935E-06  2530   0.183E-03
   40 T=    70. E= -.41286871E+03 F= -.41321057E+03 E0= -.41318947E+03  EK= 0.34186E+00 SP= 0.00E+00 SK= 0.00E+00
       N       E                     dE             d eps       ncg     rms          rms(c)
RMM:   1    -0.413228930546E+03   -0.18357E-01   -0.62618E+00  4315   0.810E-01    0.988E-01
RMM:   2    -0.413221634959E+03    0.72956E-02   -0.91767E-02  4282   0.112E-01    0.712E-01
RMM:   3    -0.413215508880E+03    0.61261E-02   -0.66967E-02  4752   0.961E-02    0.304E-01
RMM:   4    -0.413231744845E+03   -0.16236E-01   -0.22219E-02  5104   0.128E-01    0.579E-01
RMM:   5    -0.413212766752E+03    0.18978E-01   -0.95136E-03  4784   0.975E-02    0.399E-02
RMM:   6    -0.413212788124E+03   -0.21372E-04   -0.15133E-03  5746   0.373E-02    0.258E-02
RMM:   7    -0.413212818384E+03   -0.30260E-04   -0.24893E-04  5646   0.149E-02    0.191E-02
RMM:   8    -0.413212813303E+03    0.50810E-05   -0.52652E-05  5019   0.794E-03    0.887E-03
RMM:   9    -0.413212815372E+03   -0.20687E-05   -0.11200E-05  3524   0.410E-03    0.438E-03
RMM:  10    -0.413212814104E+03    0.12675E-05   -0.19271E-06  2575   0.211E-03    0.278E-03
RMM:  11    -0.413212811349E+03    0.27556E-05   -0.13580E-06  2502   0.154E-03    0.121E-03
RMM:  12    -0.413212806187E+03    0.51621E-05   -0.10029E-06  2381   0.134E-03    0.864E-04
RMM:  13    -0.413212803060E+03    0.31266E-05   -0.30225E-07  1809   0.903E-04    0.495E-04
RMM:  14    -0.413212800421E+03    0.26387E-05   -0.17084E-07  1263   0.716E-04    0.211E-04
RMM:  15    -0.413212790093E+03    0.10328E-04   -0.26118E-07  1772   0.819E-04    0.388E-04
RMM:  16    -0.413212786676E+03    0.34173E-05   -0.99413E-08  1150   0.621E-04    0.300E-04
RMM:  17    -0.413212780549E+03    0.61270E-05   -0.92991E-08  1282   0.642E-04    0.164E-04
RMM:  18    -0.413212777806E+03    0.27425E-05   -0.53613E-08  1033   0.576E-04    0.608E-05
RMM:  19    -0.413212776930E+03    0.87589E-06   -0.32020E-08   866   0.542E-04
   41 T=    70. E= -.41286819E+03 F= -.41321278E+03 E0= -.41319171E+03  EK= 0.34459E+00 SP= 0.00E+00 SK= 0.00E+00
       N       E                     dE             d eps       ncg     rms          rms(c)
RMM:   1    -0.413233200569E+03   -0.20423E-01   -0.62410E+00  4316   0.830E-01    0.101E+00
RMM:   2    -0.413224185898E+03    0.90147E-02   -0.93664E-02  4304   0.116E-01    0.712E-01
RMM:   3    -0.413217858181E+03    0.63277E-02   -0.62377E-02  4781   0.891E-02    0.256E-01
RMM:   4    -0.413234906780E+03   -0.17049E-01   -0.21849E-02  5117   0.126E-01    0.581E-01
RMM:   5    -0.413215628893E+03    0.19278E-01   -0.95471E-03  4785   0.975E-02    0.410E-02
RMM:   6    -0.413215649756E+03   -0.20863E-04   -0.15436E-03  5743   0.376E-02    0.266E-02
RMM:   7    -0.413215700163E+03   -0.50407E-04   -0.26281E-04  5680   0.153E-02    0.201E-02
RMM:   8    -0.413215699788E+03    0.37454E-06   -0.53960E-05  5061   0.811E-03    0.947E-03
RMM:   9    -0.413215699721E+03    0.67550E-07   -0.11078E-05  3444   0.404E-03    0.417E-03
RMM:  10    -0.413215697444E+03    0.22767E-05   -0.19334E-06  2578   0.207E-03    0.263E-03
RMM:  11    -0.413215694109E+03    0.33351E-05   -0.11791E-06  2478   0.150E-03    0.120E-03
RMM:  12    -0.413215688741E+03    0.53674E-05   -0.74188E-07  2333   0.128E-03    0.773E-04
RMM:  13    -0.413215685517E+03    0.32245E-05   -0.27218E-07  1827   0.892E-04    0.463E-04
RMM:  14    -0.413215683179E+03    0.23384E-05   -0.15256E-07  1253   0.709E-04    0.189E-04
RMM:  15    -0.413215674351E+03    0.88278E-05   -0.15635E-07  1377   0.735E-04    0.280E-04
RMM:  16    -0.413215670868E+03    0.34824E-05   -0.84501E-08  1127   0.642E-04    0.211E-04
RMM:  17    -0.413215666651E+03    0.42171E-05   -0.70353E-08  1198   0.627E-04    0.148E-04
RMM:  18    -0.413215662572E+03    0.40788E-05   -0.56612E-08  1170   0.607E-04    0.660E-05
RMM:  19    -0.413215661743E+03    0.82909E-06   -0.30582E-08   852   0.545E-04
   42 T=    71. E= -.41286825E+03 F= -.41321566E+03 E0= -.41319462E+03  EK= 0.34741E+00 SP= 0.00E+00 SK= 0.00E+00
       N       E                     dE             d eps       ncg     rms          rms(c)
RMM:   1    -0.413234539290E+03   -0.18877E-01   -0.62677E+00  4316   0.873E-01    0.985E-01
RMM:   2    -0.413226867594E+03    0.76717E-02   -0.95588E-02  4382   0.115E-01    0.709E-01
RMM:   3    -0.413220490715E+03    0.63769E-02   -0.63701E-02  4842   0.925E-02    0.286E-01
RMM:   4    -0.413241024463E+03   -0.20534E-01   -0.26847E-02  5112   0.140E-01    0.638E-01
RMM:   5    -0.413217776712E+03    0.23248E-01   -0.11575E-02  4782   0.108E-01    0.425E-02
RMM:   6    -0.413217810100E+03   -0.33388E-04   -0.18257E-03  5752   0.406E-02    0.262E-02
RMM:   7    -0.413217850422E+03   -0.40322E-04   -0.27176E-04  5764   0.155E-02    0.192E-02
RMM:   8    -0.413217848135E+03    0.22872E-05   -0.59526E-05  5066   0.828E-03    0.981E-03
RMM:   9    -0.413217849481E+03   -0.13454E-05   -0.12190E-05  3666   0.436E-03    0.441E-03
RMM:  10    -0.413217848491E+03    0.98906E-06   -0.24375E-06  2633   0.225E-03
   43 T=    71. E= -.41286828E+03 F= -.41321785E+03 E0= -.41319684E+03  EK= 0.34957E+00 SP= 0.00E+00 SK= 0.00E+00
       N       E                     dE             d eps       ncg     rms          rms(c)
RMM:   1    -0.413236459161E+03   -0.18610E-01   -0.63979E+00  4316   0.957E-01    0.988E-01
RMM:   2    -0.413228313685E+03    0.81455E-02   -0.98889E-02  4429   0.125E-01    0.718E-01
RMM:   3    -0.413225515328E+03    0.27984E-02   -0.68938E-02  5001   0.114E-01    0.390E-01
RMM:   4    -0.413242389452E+03   -0.16874E-01   -0.33884E-02  5058   0.160E-01    0.651E-01
RMM:   5    -0.413218966975E+03    0.23422E-01   -0.11880E-02  4705   0.109E-01    0.435E-02
RMM:   6    -0.413218992814E+03   -0.25838E-04   -0.17723E-03  5715   0.395E-02    0.249E-02
RMM:   7    -0.413219022236E+03   -0.29423E-04   -0.20202E-04  5704   0.137E-02    0.169E-02
RMM:   8    -0.413219036613E+03   -0.14377E-04   -0.63045E-05  5069   0.820E-03    0.972E-03
RMM:   9    -0.413219031897E+03    0.47164E-05   -0.13939E-05  4004   0.468E-03    0.452E-03
RMM:  10    -0.413219029986E+03    0.19105E-05   -0.25375E-06  2627   0.237E-03    0.283E-03
RMM:  11    -0.413219027510E+03    0.24761E-05   -0.14008E-06  2510   0.169E-03    0.137E-03
RMM:  12    -0.413219022053E+03    0.54571E-05   -0.10658E-06  2452   0.145E-03    0.734E-04
RMM:  13    -0.413219017462E+03    0.45910E-05   -0.40237E-07  1954   0.972E-04    0.414E-04
RMM:  14    -0.413219014350E+03    0.31119E-05   -0.18254E-07  1321   0.735E-04    0.183E-04
RMM:  15    -0.413219004274E+03    0.10076E-04   -0.25577E-07  1721   0.814E-04    0.307E-04
RMM:  16    -0.413218999712E+03    0.45612E-05   -0.12176E-07  1334   0.651E-04    0.213E-04
RMM:  17    -0.413218995633E+03    0.40798E-05   -0.81902E-08  1180   0.607E-04    0.799E-05
RMM:  18    -0.413218991059E+03    0.45733E-05   -0.62730E-08  1225   0.605E-04    0.905E-05
RMM:  19    -0.413218990889E+03    0.17025E-06   -0.26797E-08   776   0.511E-04
   44 T=    71. E= -.41286808E+03 F= -.41321899E+03 E0= -.41319800E+03  EK= 0.35091E+00 SP= 0.00E+00 SK= 0.00E+00
       N       E                     dE             d eps       ncg     rms          rms(c)
RMM:   1    -0.413239542290E+03   -0.20551E-01   -0.63407E+00  4316   0.977E-01    0.101E+00
RMM:   2    -0.413229549598E+03    0.99927E-02   -0.99078E-02  4439   0.128E-01    0.718E-01
RMM:   3    -0.413223595993E+03    0.59536E-02   -0.61692E-02  4899   0.991E-02    0.286E-01
RMM:   4    -0.413248171067E+03   -0.24575E-01   -0.33270E-02  5104   0.157E-01    0.697E-01
RMM:   5    -0.413220255183E+03    0.27916E-01   -0.13544E-02  4775   0.117E-01    0.455E-02
RMM:   6    -0.413220296203E+03   -0.41020E-04   -0.21472E-03  5759   0.436E-02    0.262E-02
RMM:   7    -0.413220335535E+03   -0.39332E-04   -0.27226E-04  5851   0.153E-02    0.186E-02
RMM:   8    -0.413220334289E+03    0.12464E-05   -0.65762E-05  5091   0.850E-03    0.108E-02
RMM:   9    -0.413220332929E+03    0.13593E-05   -0.15209E-05  4080   0.489E-03    0.467E-03
RMM:  10    -0.413220330210E+03    0.27189E-05   -0.32478E-06  2696   0.259E-03    0.304E-03
RMM:  11    -0.413220327773E+03    0.24370E-05   -0.12888E-06  2499   0.176E-03    0.166E-03
RMM:  12    -0.413220322150E+03    0.56236E-05   -0.92821E-07  2463   0.151E-03    0.822E-04
RMM:  13    -0.413220317453E+03    0.46963E-05   -0.40002E-07  2104   0.104E-03    0.576E-04
RMM:  14    -0.413220315020E+03    0.24335E-05   -0.18490E-07  1478   0.758E-04    0.242E-04
RMM:  15    -0.413220307374E+03    0.76462E-05   -0.15388E-07  1387   0.737E-04    0.257E-04
RMM:  16    -0.413220302758E+03    0.46163E-05   -0.93597E-08  1238   0.662E-04    0.228E-04
RMM:  17    -0.413220300363E+03    0.23941E-05   -0.61615E-08  1060   0.607E-04    0.157E-04
RMM:  18    -0.413220295772E+03    0.45915E-05   -0.62237E-08  1289   0.627E-04    0.854E-05
RMM:  19    -0.413220293710E+03    0.20617E-05   -0.37112E-08   986   0.565E-04    0.385E-05
RMM:  20    -0.413220293501E+03    0.20917E-06   -0.19089E-08   755   0.526E-04
   45 T=    72. E= -.41286857E+03 F= -.41322029E+03 E0= -.41319933E+03  EK= 0.35173E+00 SP= 0.00E+00 SK= 0.00E+00
       N       E                     dE             d eps       ncg     rms          rms(c)
RMM:   1    -0.413238941366E+03   -0.18648E-01   -0.62995E+00  4316   0.106E+00    0.990E-01
RMM:   2    -0.413228814467E+03    0.10127E-01   -0.99706E-02  4461   0.135E-01    0.711E-01
RMM:   3    -0.413224431319E+03    0.43831E-02   -0.61893E-02  4951   0.110E-01    0.326E-01
RMM:   4    -0.413246979268E+03   -0.22548E-01   -0.35594E-02  5080   0.163E-01    0.692E-01
RMM:   5    -0.413219675459E+03    0.27304E-01   -0.13090E-02  4748   0.116E-01    0.457E-02
RMM:   6    -0.413219701395E+03   -0.25936E-04   -0.20354E-03  5742   0.425E-02    0.251E-02
RMM:   7    -0.413219729621E+03   -0.28226E-04   -0.22164E-04  5710   0.138E-02    0.158E-02
RMM:   8    -0.413219737198E+03   -0.75767E-05   -0.41801E-05  4933   0.696E-03    0.768E-03
RMM:   9    -0.413219738114E+03   -0.91597E-06   -0.14354E-05  4083   0.430E-03    0.473E-03
RMM:  10    -0.413219734651E+03    0.34634E-05   -0.26239E-06  2625   0.248E-03    0.295E-03
RMM:  11    -0.413219732257E+03    0.23941E-05   -0.12609E-06  2492   0.174E-03    0.155E-03
RMM:  12    -0.413219727063E+03    0.51939E-05   -0.85123E-07  2464   0.144E-03    0.780E-04
RMM:  13    -0.413219723009E+03    0.40536E-05   -0.34877E-07  2021   0.973E-04    0.493E-04
RMM:  14    -0.413219720413E+03    0.25957E-05   -0.15878E-07  1316   0.719E-04    0.214E-04
RMM:  15    -0.413219713017E+03    0.73965E-05   -0.15366E-07  1433   0.739E-04    0.224E-04
RMM:  16    -0.413219709222E+03    0.37945E-05   -0.88263E-08  1234   0.648E-04    0.185E-04
RMM:  17    -0.413219706374E+03    0.28485E-05   -0.61231E-08  1116   0.601E-04    0.116E-04
RMM:  18    -0.413219701072E+03    0.53023E-05   -0.60049E-08  1282   0.621E-04    0.664E-05
RMM:  19    -0.413219699670E+03    0.14018E-05   -0.27715E-08   880   0.536E-04    0.353E-05
RMM:  20    -0.413219699451E+03    0.21849E-06   -0.15801E-08   724   0.509E-04
   46 T=    71. E= -.41286853E+03 F= -.41321970E+03 E0= -.41319875E+03  EK= 0.35117E+00 SP= 0.00E+00 SK= 0.00E+00
       N       E                     dE             d eps       ncg     rms          rms(c)
RMM:   1    -0.413239382583E+03   -0.19683E-01   -0.63945E+00  4316   0.118E+00    0.974E-01
RMM:   2    -0.413228023652E+03    0.11359E-01   -0.10720E-01  4487   0.151E-01    0.717E-01
RMM:   3    -0.413226516792E+03    0.15069E-02   -0.65872E-02  4994   0.128E-01    0.413E-01
RMM:   4    -0.413243167716E+03   -0.16651E-01   -0.38224E-02  5051   0.172E-01    0.667E-01
RMM:   5    -0.413218338118E+03    0.24830E-01   -0.11884E-02  4688   0.113E-01    0.457E-02
RMM:   6    -0.413218345308E+03   -0.71898E-05   -0.18068E-03  5674   0.403E-02    0.235E-02
RMM:   7    -0.413218383659E+03   -0.38352E-04   -0.18906E-04  5686   0.132E-02    0.149E-02
RMM:   8    -0.413218398434E+03   -0.14775E-04   -0.60864E-05  5154   0.813E-03    0.967E-03
RMM:   9    -0.413218392747E+03    0.56872E-05   -0.15840E-05  4197   0.490E-03    0.444E-03
RMM:  10    -0.413218392047E+03    0.69970E-06   -0.29584E-06  2672   0.255E-03
   47 T=    71. E= -.41286894E+03 F= -.41321839E+03 E0= -.41319745E+03  EK= 0.34945E+00 SP= 0.00E+00 SK= 0.00E+00
       N       E                     dE             d eps       ncg     rms          rms(c)
RMM:   1    -0.413241556634E+03   -0.23164E-01   -0.63260E+00  4315   0.126E+00    0.992E-01
RMM:   2    -0.413224879852E+03    0.16677E-01   -0.10430E-01  4533   0.159E-01    0.715E-01
RMM:   3    -0.413229900958E+03   -0.50211E-02   -0.66844E-02  5063   0.148E-01    0.511E-01
RMM:   4    -0.413231250126E+03   -0.13492E-02   -0.35126E-02  4988   0.169E-01    0.535E-01
RMM:   5    -0.413215752117E+03    0.15498E-01   -0.71994E-03  4595   0.935E-02    0.434E-02
RMM:   6    -0.413215715245E+03    0.36872E-04   -0.99542E-04  5275   0.312E-02    0.228E-02
RMM:   7    -0.413215725581E+03   -0.10336E-04   -0.11612E-04  5372   0.113E-02    0.119E-02
RMM:   8    -0.413215731698E+03   -0.61166E-05   -0.33755E-05  4952   0.663E-03    0.697E-03
RMM:   9    -0.413215725285E+03    0.64126E-05   -0.88614E-06  3648   0.363E-03    0.368E-03
RMM:  10    -0.413215722038E+03    0.32474E-05   -0.17577E-06  2539   0.217E-03    0.229E-03
RMM:  11    -0.413215716401E+03    0.56368E-05   -0.11628E-06  2500   0.168E-03    0.112E-03
RMM:  12    -0.413215710918E+03    0.54828E-05   -0.49794E-07  2335   0.114E-03    0.600E-04
RMM:  13    -0.413215704946E+03    0.59727E-05   -0.25958E-07  1666   0.838E-04    0.285E-04
RMM:  14    -0.413215698481E+03    0.64647E-05   -0.17649E-07  1395   0.731E-04    0.185E-04
RMM:  15    -0.413215691171E+03    0.73100E-05   -0.14101E-07  1388   0.698E-04    0.137E-04
RMM:  16    -0.413215683713E+03    0.74575E-05   -0.11779E-07  1501   0.680E-04    0.984E-05
RMM:  17    -0.413215676778E+03    0.69352E-05   -0.85347E-08  1330   0.621E-04    0.819E-05
RMM:  18    -0.413215675814E+03    0.96388E-06   -0.33176E-08   834   0.500E-04
   48 T=    70. E= -.41286940E+03 F= -.41321568E+03 E0= -.41319475E+03  EK= 0.34628E+00 SP= 0.00E+00 SK= 0.00E+00
       N       E                     dE             d eps       ncg     rms          rms(c)
RMM:   1    -0.413238011379E+03   -0.22335E-01   -0.62030E+00  4312   0.137E+00    0.979E-01
RMM:   2    -0.413219461685E+03    0.18550E-01   -0.10314E-01  4584   0.168E-01    0.704E-01
RMM:   3    -0.413226923443E+03   -0.74618E-02   -0.65812E-02  5070   0.156E-01    0.542E-01
RMM:   4    -0.413224145111E+03    0.27783E-02   -0.34790E-02  4976   0.170E-01    0.500E-01
RMM:   5    -0.413210631723E+03    0.13513E-01   -0.63050E-03  4588   0.905E-02    0.449E-02
RMM:   6    -0.413210580198E+03    0.51525E-04   -0.81673E-04  5064   0.294E-02    0.227E-02
RMM:   7    -0.413210611794E+03   -0.31596E-04   -0.12440E-04  5608   0.124E-02    0.116E-02
RMM:   8    -0.413210613733E+03   -0.19391E-05   -0.27619E-05  4757   0.628E-03    0.637E-03
RMM:   9    -0.413210612179E+03    0.15536E-05   -0.74693E-06  3414   0.332E-03    0.331E-03
RMM:  10    -0.413210608601E+03    0.35782E-05   -0.15263E-06  2515   0.207E-03    0.227E-03
RMM:  11    -0.413210604156E+03    0.44454E-05   -0.95339E-07  2465   0.160E-03    0.129E-03
RMM:  12    -0.413210600541E+03    0.36145E-05   -0.40695E-07  2293   0.108E-03    0.691E-04
RMM:  13    -0.413210595959E+03    0.45824E-05   -0.23430E-07  1689   0.838E-04    0.307E-04
RMM:  14    -0.413210589629E+03    0.63303E-05   -0.18951E-07  1660   0.772E-04    0.360E-04
RMM:  15    -0.413210585545E+03    0.40831E-05   -0.89035E-08  1012   0.603E-04    0.181E-04
RMM:  16    -0.413210580865E+03    0.46807E-05   -0.75208E-08  1125   0.619E-04    0.951E-05
RMM:  17    -0.413210576512E+03    0.43531E-05   -0.58583E-08  1134   0.604E-04    0.927E-05
RMM:  18    -0.413210573999E+03    0.25130E-05   -0.35372E-08   922   0.551E-04    0.865E-05
RMM:  19    -0.413210571507E+03    0.24920E-05   -0.28895E-08   881   0.540E-04    0.431E-05
RMM:  20    -0.413210570401E+03    0.11058E-05   -0.16684E-08   724   0.507E-04    0.310E-05
RMM:  21    -0.413210570211E+03    0.19026E-06   -0.80335E-09   593   0.482E-04
   49 T=    69. E= -.41286930E+03 F= -.41321057E+03 E0= -.41318965E+03  EK= 0.34127E+00 SP= 0.00E+00 SK= 0.00E+00
       N       E                     dE             d eps       ncg     rms          rms(c)
RMM:   1    -0.413229945716E+03   -0.19375E-01   -0.61460E+00  4312   0.147E+00    0.940E-01
RMM:   2    -0.413213676075E+03    0.16270E-01   -0.11410E-01  4714   0.179E-01    0.701E-01
RMM:   3    -0.413232808260E+03   -0.19132E-01   -0.70340E-02  5102   0.186E-01    0.701E-01
RMM:   4    -0.413215015280E+03    0.17793E-01   -0.41761E-02  4946   0.189E-01    0.450E-01
RMM:   5    -0.413204468089E+03    0.10547E-01   -0.61237E-03  4588   0.926E-02    0.489E-02
RMM:   6    -0.413204369076E+03    0.99013E-04   -0.56196E-04  4813   0.281E-02    0.238E-02
RMM:   7    -0.413204391472E+03   -0.22397E-04   -0.16248E-04  5652   0.146E-02    0.150E-02
RMM:   8    -0.413204383600E+03    0.78721E-05   -0.41712E-05  5014   0.739E-03    0.835E-03
RMM:   9    -0.413204383540E+03    0.60241E-07   -0.99006E-06  3846   0.432E-03
   50 T=    68. E= -.41286969E+03 F= -.41320438E+03 E0= -.41318346E+03  EK= 0.33469E+00 SP= 0.00E+00 SK= 0.00E+00
       N       E                     dE             d eps       ncg     rms          rms(c)
RMM:   1    -0.413220542863E+03   -0.16159E-01   -0.59845E+00  4310   0.151E+00    0.941E-01
RMM:   2    -0.413204309136E+03    0.16234E-01   -0.11280E-01  4841   0.188E-01    0.695E-01
RMM:   3    -0.413234804758E+03   -0.30496E-01   -0.74793E-02  5120   0.207E-01    0.818E-01
RMM:   4    -0.413202482241E+03    0.32323E-01   -0.44422E-02  4915   0.199E-01    0.372E-01
RMM:   5    -0.413195489603E+03    0.69926E-02   -0.58677E-03  4872   0.939E-02    0.580E-02
RMM:   6    -0.413195325437E+03    0.16417E-03   -0.51036E-04  4626   0.292E-02    0.268E-02
RMM:   7    -0.413195350473E+03   -0.25036E-04   -0.19343E-04  5621   0.157E-02    0.198E-02
RMM:   8    -0.413195348668E+03    0.18046E-05   -0.48914E-05  4939   0.878E-03    0.921E-03
RMM:   9    -0.413195344065E+03    0.46030E-05   -0.12175E-05  3864   0.469E-03    0.380E-03
RMM:  10    -0.413195338706E+03    0.53586E-05   -0.25032E-06  2695   0.243E-03    0.247E-03
RMM:  11    -0.413195331310E+03    0.73966E-05   -0.10012E-06  2513   0.162E-03    0.124E-03
RMM:  12    -0.413195326627E+03    0.46829E-05   -0.51031E-07  2091   0.107E-03    0.576E-04
RMM:  13    -0.413195319619E+03    0.70079E-05   -0.50191E-07  2308   0.106E-03    0.440E-04
RMM:  14    -0.413195313727E+03    0.58920E-05   -0.27704E-07  1576   0.825E-04    0.311E-04
RMM:  15    -0.413195306536E+03    0.71910E-05   -0.23132E-07  1559   0.790E-04    0.140E-04
RMM:  16    -0.413195300702E+03    0.58341E-05   -0.17246E-07  1637   0.724E-04    0.140E-04
RMM:  17    -0.413195295835E+03    0.48666E-05   -0.12329E-07  1306   0.638E-04    0.102E-04
RMM:  18    -0.413195292935E+03    0.29006E-05   -0.84635E-08  1239   0.596E-04    0.434E-05
RMM:  19    -0.413195291434E+03    0.15012E-05   -0.50472E-08   981   0.535E-04    0.257E-05
RMM:  20    -0.413195290752E+03    0.68118E-06   -0.30106E-08   854   0.512E-04
   51 T=    66. E= -.41286945E+03 F= -.41319529E+03 E0= -.41317437E+03  EK= 0.32584E+00 SP= 0.00E+00 SK= 0.00E+00
       N       E                     dE             d eps       ncg     rms          rms(c)
RMM:   1    -0.413212188573E+03   -0.16897E-01   -0.57612E+00  4304   0.161E+00    0.935E-01
RMM:   2    -0.413192414275E+03    0.19774E-01   -0.10900E-01  4887   0.198E-01    0.679E-01
RMM:   3    -0.413230853122E+03   -0.38439E-01   -0.76048E-02  5138   0.220E-01    0.889E-01
RMM:   4    -0.413188937365E+03    0.41916E-01   -0.45387E-02  4901   0.204E-01    0.310E-01
RMM:   5    -0.413184136310E+03    0.48011E-02   -0.57872E-03  5112   0.949E-02    0.663E-02
RMM:   6    -0.413183922277E+03    0.21403E-03   -0.64262E-04  4718   0.319E-02    0.289E-02
RMM:   7    -0.413183936969E+03   -0.14692E-04   -0.20230E-04  5674   0.159E-02    0.202E-02
RMM:   8    -0.413183929682E+03    0.72866E-05   -0.51481E-05  5096   0.898E-03    0.102E-02
RMM:   9    -0.413183925911E+03    0.37715E-05   -0.12247E-05  3874   0.475E-03    0.411E-03
RMM:  10    -0.413183920876E+03    0.50348E-05   -0.27930E-06  2747   0.255E-03    0.251E-03
RMM:  11    -0.413183914589E+03    0.62874E-05   -0.90391E-07  2511   0.163E-03    0.113E-03
RMM:  12    -0.413183910454E+03    0.41351E-05   -0.46615E-07  2048   0.108E-03    0.524E-04
RMM:  13    -0.413183904764E+03    0.56897E-05   -0.39091E-07  2132   0.101E-03    0.396E-04
RMM:  14    -0.413183900373E+03    0.43907E-05   -0.21778E-07  1440   0.795E-04    0.267E-04
RMM:  15    -0.413183894845E+03    0.55277E-05   -0.16598E-07  1398   0.752E-04    0.114E-04
RMM:  16    -0.413183890587E+03    0.42584E-05   -0.12671E-07  1469   0.701E-04    0.870E-05
RMM:  17    -0.413183885898E+03    0.46894E-05   -0.10311E-07  1425   0.655E-04    0.103E-04
RMM:  18    -0.413183884665E+03    0.12330E-05   -0.57541E-08  1033   0.557E-04    0.660E-05
RMM:  19    -0.413183881981E+03    0.26839E-05   -0.57724E-08  1170   0.579E-04    0.272E-05
RMM:  20    -0.413183881626E+03    0.35427E-06   -0.26728E-08   828   0.512E-04
   52 T=    64. E= -.41286912E+03 F= -.41318388E+03 E0= -.41316296E+03  EK= 0.31476E+00 SP= 0.00E+00 SK= 0.00E+00
       N       E                     dE             d eps       ncg     rms          rms(c)
RMM:   1    -0.413190436243E+03   -0.65543E-02   -0.54755E+00  4308   0.163E+00    0.886E-01
RMM:   2    -0.413178917859E+03    0.11518E-01   -0.11329E-01  5019   0.201E-01    0.662E-01
RMM:   3    -0.413228580893E+03   -0.49663E-01   -0.79336E-02  5160   0.237E-01    0.987E-01
RMM:   4    -0.413174486966E+03    0.54094E-01   -0.51138E-02  4889   0.217E-01    0.286E-01
RMM:   5    -0.413170768746E+03    0.37182E-02   -0.79658E-03  5245   0.107E-01    0.802E-02
RMM:   6    -0.413170444553E+03    0.32419E-03   -0.99966E-04  4839   0.385E-02    0.323E-02
RMM:   7    -0.413170469425E+03   -0.24871E-04   -0.24160E-04  5667   0.171E-02    0.207E-02
[...]
       N       E                     dE             d eps       ncg     rms          rms(c)
RMM:   1    -0.413659758654E+03   -0.17387E-01   -0.16326E+01  4264   0.777E+00    0.120E+00
RMM:   2    -0.413602859323E+03    0.56899E-01   -0.45827E-01  5428   0.870E-01    0.121E+00
RMM:   3    -0.413623283072E+03   -0.20424E-01   -0.10430E-01  5829   0.330E-01    0.117E+00
RMM:   4    -0.413595992273E+03    0.27291E-01   -0.35875E-02  5223   0.214E-01    0.779E-01
RMM:   5    -0.413592948672E+03    0.30436E-02   -0.60801E-02  4318   0.342E-01    0.329E-01
RMM:   6    -0.413589255021E+03    0.36937E-02   -0.64774E-03  4527   0.121E-01    0.135E-01
RMM:   7    -0.413588883661E+03    0.37136E-03   -0.19890E-03  5519   0.565E-02    0.793E-02
RMM:   8    -0.413588800235E+03    0.83426E-04   -0.97781E-04  5131   0.370E-02    0.452E-02
RMM:   9    -0.413588738421E+03    0.61815E-04   -0.40964E-04  4809   0.268E-02    0.182E-02
RMM:  10    -0.413588746393E+03   -0.79728E-05   -0.10906E-04  5834   0.128E-02    0.127E-02
RMM:  11    -0.413588748413E+03   -0.20200E-05   -0.26251E-05  4839   0.610E-03    0.781E-03
RMM:  12    -0.413588752166E+03   -0.37522E-05   -0.73146E-06  3379   0.377E-03    0.401E-03
RMM:  13    -0.413588757606E+03   -0.54401E-05   -0.32176E-06  2789   0.280E-03    0.223E-03
RMM:  14    -0.413588762002E+03   -0.43959E-05   -0.12231E-06  2527   0.186E-03    0.931E-04
RMM:  15    -0.413588764707E+03   -0.27051E-05   -0.59034E-07  2380   0.124E-03    0.447E-04
RMM:  16    -0.413588767975E+03   -0.32687E-05   -0.44888E-07  1983   0.990E-04    0.277E-04
RMM:  17    -0.413588771506E+03   -0.35309E-05   -0.37603E-07  1730   0.871E-04    0.153E-04
RMM:  18    -0.413588774319E+03   -0.28123E-05   -0.27988E-07  1597   0.783E-04    0.104E-04
RMM:  19    -0.413588777697E+03   -0.33786E-05   -0.28973E-07  1641   0.759E-04    0.933E-05
RMM:  20    -0.413588779673E+03   -0.19762E-05   -0.14618E-07  1161   0.635E-04    0.543E-05
RMM:  21    -0.413588780797E+03   -0.11238E-05   -0.91037E-08  1055   0.599E-04    0.301E-05
RMM:  22    -0.413588781463E+03   -0.66559E-06   -0.57196E-08   971   0.573E-04
  140 T=   144. E= -.41287938E+03 F= -.41358878E+03 E0= -.41356980E+03  EK= 0.70940E+00 SP= 0.00E+00 SK= 0.00E+00
       N       E                     dE             d eps       ncg     rms          rms(c)
RMM:   1    -0.413464321730E+03    0.12446E+00   -0.13610E+01  4264   0.719E+00    0.137E+00
RMM:   2    -0.413442099611E+03    0.22222E-01   -0.38142E-01  5424   0.806E-01    0.138E+00
RMM:   3    -0.413450697929E+03   -0.85983E-02   -0.10472E-01  5773   0.332E-01    0.133E+00
RMM:   4    -0.413420604516E+03    0.30093E-01   -0.41563E-02  5013   0.255E-01    0.723E-01
RMM:   5    -0.413421398200E+03   -0.79368E-03   -0.52959E-02  4432   0.316E-01    0.349E-01
RMM:   6    -0.413417453364E+03    0.39448E-02   -0.74266E-03  4572   0.125E-01    0.150E-01
RMM:   7    -0.413416977447E+03    0.47592E-03   -0.17194E-03  5346   0.550E-02    0.910E-02
RMM:   8    -0.413416765090E+03    0.21236E-03   -0.83062E-04  4522   0.384E-02    0.375E-02
RMM:   9    -0.413416770506E+03   -0.54162E-05   -0.38149E-04  5151   0.244E-02    0.156E-02
RMM:  10    -0.413416774536E+03   -0.40299E-05   -0.84183E-05  5857   0.103E-02    0.105E-02
RMM:  11    -0.413416777101E+03   -0.25653E-05   -0.17596E-05  4320   0.534E-03    0.619E-03
RMM:  12    -0.413416783183E+03   -0.60815E-05   -0.49366E-06  3065   0.331E-03    0.324E-03
RMM:  13    -0.413416789732E+03   -0.65496E-05   -0.18769E-06  2643   0.219E-03    0.161E-03
RMM:  14    -0.413416794466E+03   -0.47336E-05   -0.10605E-06  2524   0.159E-03    0.612E-04
RMM:  15    -0.413416798073E+03   -0.36069E-05   -0.62487E-07  2240   0.117E-03    0.372E-04
RMM:  16    -0.413416802796E+03   -0.47234E-05   -0.61758E-07  2131   0.107E-03    0.253E-04
RMM:  17    -0.413416807402E+03   -0.46059E-05   -0.53587E-07  1944   0.959E-04    0.184E-04
RMM:  18    -0.413416811796E+03   -0.43940E-05   -0.49287E-07  1829   0.889E-04    0.122E-04
RMM:  19    -0.413416815073E+03   -0.32762E-05   -0.32697E-07  1509   0.765E-04    0.858E-05
RMM:  20    -0.413416817162E+03   -0.20899E-05   -0.18732E-07  1269   0.678E-04    0.580E-05
RMM:  21    -0.413416818081E+03   -0.91863E-06   -0.10536E-07  1080   0.616E-04
  141 T=   110. E= -.41287512E+03 F= -.41341682E+03 E0= -.41339807E+03  EK= 0.54170E+00 SP= 0.00E+00 SK= 0.00E+00
       N       E                     dE             d eps       ncg     rms          rms(c)
RMM:   1    -0.413225560307E+03    0.19126E+00   -0.77502E+00  4264   0.555E+00    0.102E+00
RMM:   2    -0.413228935880E+03   -0.33756E-02   -0.19733E-01  5439   0.570E-01    0.100E+00
RMM:   3    -0.413232537569E+03   -0.36017E-02   -0.59829E-02  5727   0.250E-01    0.973E-01
RMM:   4    -0.413215968825E+03    0.16569E-01   -0.28287E-02  5040   0.210E-01    0.467E-01
RMM:   5    -0.413216370623E+03   -0.40180E-03   -0.27441E-02  4600   0.224E-01    0.248E-01
RMM:   6    -0.413214160058E+03    0.22106E-02   -0.44021E-03  4666   0.933E-02    0.111E-01
RMM:   7    -0.413213901003E+03    0.25906E-03   -0.82689E-04  5108   0.397E-02    0.613E-02
RMM:   8    -0.413213826452E+03    0.74551E-04   -0.52394E-04  4495   0.307E-02    0.233E-02
RMM:   9    -0.413213839995E+03   -0.13542E-04   -0.17476E-04  5886   0.156E-02    0.127E-02
RMM:  10    -0.413213839007E+03    0.98808E-06   -0.31212E-05  4995   0.632E-03    0.706E-03
RMM:  11    -0.413213840897E+03   -0.18902E-05   -0.83676E-06  3552   0.392E-03    0.428E-03
RMM:  12    -0.413213844894E+03   -0.39967E-05   -0.19029E-06  2606   0.241E-03    0.210E-03
RMM:  13    -0.413213848251E+03   -0.33574E-05   -0.95525E-07  2512   0.162E-03    0.871E-04
RMM:  14    -0.413213850758E+03   -0.25065E-05   -0.61332E-07  2329   0.123E-03    0.438E-04
RMM:  15    -0.413213853078E+03   -0.23209E-05   -0.41375E-07  1933   0.983E-04    0.257E-04
RMM:  16    -0.413213855705E+03   -0.26264E-05   -0.33370E-07  1710   0.877E-04    0.136E-04
RMM:  17    -0.413213858147E+03   -0.24419E-05   -0.25732E-07  1527   0.791E-04    0.105E-04
RMM:  18    -0.413213860828E+03   -0.26809E-05   -0.24322E-07  1602   0.759E-04    0.729E-05
RMM:  19    -0.413213862772E+03   -0.19448E-05   -0.15894E-07  1238   0.663E-04    0.526E-05
RMM:  20    -0.413213864073E+03   -0.13003E-05   -0.10874E-07  1124   0.621E-04    0.286E-05
RMM:  21    -0.413213864727E+03   -0.65475E-06   -0.70353E-08  1019   0.588E-04
  142 T=    72. E= -.41285833E+03 F= -.41321386E+03 E0= -.41319518E+03  EK= 0.35553E+00 SP= 0.00E+00 SK= 0.00E+00
       N       E                     dE             d eps       ncg     rms          rms(c)
RMM:   1    -0.413202518540E+03    0.11346E-01   -0.42688E+00  4287   0.421E+00    0.555E-01
RMM:   2    -0.413202506613E+03    0.11926E-04   -0.85448E-02  5382   0.356E-01    0.439E-01
RMM:   3    -0.413219424435E+03   -0.16918E-01   -0.31838E-02  5685   0.177E-01    0.642E-01
RMM:   4    -0.413202232002E+03    0.17192E-01   -0.17401E-02  5068   0.150E-01    0.220E-01
RMM:   5    -0.413201402451E+03    0.82955E-03   -0.84381E-03  4949   0.120E-01    0.870E-02
RMM:   6    -0.413201219725E+03    0.18273E-03   -0.16337E-03  5492   0.489E-02    0.597E-02
RMM:   7    -0.413201137280E+03    0.82445E-04   -0.26895E-04  4853   0.204E-02    0.386E-02
RMM:   8    -0.413201135437E+03    0.18427E-05   -0.28479E-04  5183   0.209E-02    0.195E-02
RMM:   9    -0.413201137655E+03   -0.22178E-05   -0.74365E-05  5509   0.103E-02    0.145E-02
RMM:  10    -0.413201135561E+03    0.20944E-05   -0.33791E-05  5101   0.707E-03    0.559E-03
RMM:  11    -0.413201139249E+03   -0.36879E-05   -0.85635E-06  3537   0.358E-03    0.380E-03
RMM:  12    -0.413201142062E+03   -0.28134E-05   -0.20489E-06  2620   0.248E-03    0.149E-03
RMM:  13    -0.413201143674E+03   -0.16122E-05   -0.78724E-07  2470   0.152E-03    0.834E-04
RMM:  14    -0.413201145040E+03   -0.13653E-05   -0.57005E-07  2294   0.120E-03    0.471E-04
RMM:  15    -0.413201145835E+03   -0.79517E-06   -0.47437E-07  2023   0.998E-04
  143 T=    69. E= -.41286424E+03 F= -.41320115E+03 E0= -.41318239E+03  EK= 0.33690E+00 SP= 0.00E+00 SK= 0.00E+00
       N       E                     dE             d eps       ncg     rms          rms(c)
RMM:   1    -0.413321027935E+03   -0.11988E+00   -0.62721E+00  4303   0.514E+00    0.113E+00
RMM:   2    -0.413348765924E+03   -0.27738E-01   -0.19146E-01  5379   0.530E-01    0.113E+00
RMM:   3    -0.413329970403E+03    0.18796E-01   -0.71925E-02  5379   0.289E-01    0.991E-01
RMM:   4    -0.413313221897E+03    0.16749E-01   -0.50527E-02  5260   0.256E-01    0.455E-01
RMM:   5    -0.413312073220E+03    0.11487E-02   -0.44193E-02  5072   0.248E-01    0.260E-01
RMM:   6    -0.413308030945E+03    0.40423E-02   -0.11187E-02  4967   0.138E-01    0.101E-01
RMM:   7    -0.413307852840E+03    0.17810E-03   -0.98140E-04  5174   0.454E-02    0.503E-02
RMM:   8    -0.413307844663E+03    0.81774E-05   -0.29888E-04  5265   0.220E-02    0.301E-02
RMM:   9    -0.413307866251E+03   -0.21588E-04   -0.15055E-04  4947   0.156E-02    0.138E-02
RMM:  10    -0.413307877030E+03   -0.10780E-04   -0.42071E-05  5374   0.800E-03    0.774E-03
RMM:  11    -0.413307884169E+03   -0.71388E-05   -0.14964E-05  4373   0.473E-03    0.468E-03
RMM:  12    -0.413307893951E+03   -0.97820E-05   -0.73017E-06  3512   0.397E-03    0.319E-03
RMM:  13    -0.413307897805E+03   -0.38539E-05   -0.24050E-06  2700   0.242E-03    0.158E-03
RMM:  14    -0.413307899707E+03   -0.19017E-05   -0.17516E-06  2624   0.178E-03    0.859E-04
RMM:  15    -0.413307899987E+03   -0.28059E-06   -0.16745E-06  2512   0.161E-03
  144 T=    87. E= -.41287854E+03 F= -.41330790E+03 E0= -.41328895E+03  EK= 0.42936E+00 SP= 0.00E+00 SK= 0.00E+00
       N       E                     dE             d eps       ncg     rms          rms(c)
RMM:   1    -0.413348846684E+03   -0.40947E-01   -0.79883E+00  4303   0.579E+00    0.124E+00
RMM:   2    -0.413400776434E+03   -0.51930E-01   -0.28529E-01  5391   0.636E-01    0.137E+00
RMM:   3    -0.413352319865E+03    0.48457E-01   -0.92271E-02  5366   0.335E-01    0.108E+00
RMM:   4    -0.413335162277E+03    0.17158E-01   -0.55985E-02  5320   0.274E-01    0.553E-01
RMM:   5    -0.413336397261E+03   -0.12350E-02   -0.56213E-02  5112   0.278E-01    0.338E-01
RMM:   6    -0.413330116165E+03    0.62811E-02   -0.17902E-02  4952   0.170E-01    0.126E-01
RMM:   7    -0.413329822955E+03    0.29321E-03   -0.17986E-03  5314   0.598E-02    0.620E-02
RMM:   8    -0.413329809451E+03    0.13504E-04   -0.42831E-04  5335   0.263E-02    0.392E-02
RMM:   9    -0.413329839242E+03   -0.29791E-04   -0.20127E-04  4582   0.185E-02    0.152E-02
RMM:  10    -0.413329858646E+03   -0.19404E-04   -0.65537E-05  5533   0.999E-03    0.885E-03
RMM:  11    -0.413329866991E+03   -0.83449E-05   -0.18132E-05  4592   0.511E-03    0.548E-03
RMM:  12    -0.413329879686E+03   -0.12695E-04   -0.11037E-05  3820   0.471E-03    0.364E-03
RMM:  13    -0.413329885665E+03   -0.59795E-05   -0.38873E-06  2896   0.295E-03    0.196E-03
RMM:  14    -0.413329887937E+03   -0.22717E-05   -0.31723E-06  2799   0.232E-03    0.124E-03
RMM:  15    -0.413329887232E+03    0.70450E-06   -0.24637E-06  2643   0.191E-03
  145 T=    92. E= -.41287588E+03 F= -.41332989E+03 E0= -.41331067E+03  EK= 0.45401E+00 SP= 0.00E+00 SK= 0.00E+00
       N       E                     dE             d eps       ncg     rms          rms(c)
RMM:   1    -0.413289090510E+03    0.40797E-01   -0.69195E+00  4300   0.536E+00    0.902E-01
RMM:   2    -0.413328389905E+03   -0.39299E-01   -0.23009E-01  5405   0.570E-01    0.112E+00
RMM:   3    -0.413289876617E+03    0.38513E-01   -0.60332E-02  5443   0.274E-01    0.819E-01
RMM:   4    -0.413279585615E+03    0.10291E-01   -0.27435E-02  5375   0.198E-01    0.453E-01
RMM:   5    -0.413281629573E+03   -0.20440E-02   -0.30370E-02  5082   0.207E-01    0.282E-01
RMM:   6    -0.413277743893E+03    0.38857E-02   -0.13119E-02  4973   0.140E-01    0.108E-01
RMM:   7    -0.413277491863E+03    0.25203E-03   -0.14462E-03  5399   0.529E-02    0.562E-02
RMM:   8    -0.413277474182E+03    0.17680E-04   -0.31578E-04  5264   0.225E-02    0.356E-02
RMM:   9    -0.413277489982E+03   -0.15800E-04   -0.15863E-04  4460   0.165E-02    0.122E-02
RMM:  10    -0.413277500532E+03   -0.10550E-04   -0.51003E-05  5466   0.864E-03    0.777E-03
RMM:  11    -0.413277504610E+03   -0.40780E-05   -0.13196E-05  4219   0.446E-03    0.463E-03
RMM:  12    -0.413277511089E+03   -0.64785E-05   -0.69315E-06  3315   0.384E-03    0.291E-03
RMM:  13    -0.413277513945E+03   -0.28564E-05   -0.26385E-06  2745   0.243E-03    0.161E-03
RMM:  14    -0.413277513761E+03    0.18377E-06   -0.22367E-06  2672   0.194E-03
  146 T=    83. E= -.41286803E+03 F= -.41327751E+03 E0= -.41325802E+03  EK= 0.40948E+00 SP= 0.00E+00 SK= 0.00E+00
       N       E                     dE             d eps       ncg     rms          rms(c)
RMM:   1    -0.413265450051E+03    0.12064E-01   -0.54602E+00  4291   0.470E+00    0.620E-01
RMM:   2    -0.413282114904E+03   -0.16665E-01   -0.15060E-01  5409   0.471E-01    0.773E-01
RMM:   3    -0.413267263532E+03    0.14851E-01   -0.35645E-02  5548   0.206E-01    0.601E-01
RMM:   4    -0.413260522125E+03    0.67414E-02   -0.13223E-02  5345   0.141E-01    0.332E-01
RMM:   5    -0.413261363361E+03   -0.84124E-03   -0.13124E-02  4927   0.145E-01    0.182E-01
RMM:   6    -0.413259819364E+03    0.15440E-02   -0.66524E-03  4926   0.985E-02    0.739E-02
RMM:   7    -0.413259644622E+03    0.17474E-03   -0.78292E-04  5239   0.395E-02    0.400E-02
RMM:   8    -0.413259629861E+03    0.14761E-04   -0.15063E-04  4903   0.160E-02    0.241E-02
RMM:   9    -0.413259634555E+03   -0.46944E-05   -0.77202E-05  4478   0.120E-02    0.955E-03
RMM:  10    -0.413259634689E+03   -0.13338E-06   -0.23547E-05  4812   0.588E-03    0.608E-03
RMM:  11    -0.413259633265E+03    0.14237E-05   -0.76889E-06  3553   0.358E-03    0.310E-03
RMM:  12    -0.413259632313E+03    0.95211E-06   -0.23822E-06  2684   0.256E-03
  147 T=    81. E= -.41286391E+03 F= -.41325963E+03 E0= -.41323988E+03  EK= 0.39572E+00 SP= 0.00E+00 SK= 0.00E+00
       N       E                     dE             d eps       ncg     rms          rms(c)
RMM:   1    -0.413346374532E+03   -0.86741E-01   -0.59647E+00  4264   0.485E+00    0.547E-01
RMM:   2    -0.413347523133E+03   -0.11486E-02   -0.13816E-01  5359   0.464E-01    0.570E-01
RMM:   3    -0.413349988537E+03   -0.24654E-02   -0.31559E-02  5728   0.185E-01    0.579E-01
RMM:   4    -0.413341012484E+03    0.89761E-02   -0.11043E-02  5260   0.128E-01    0.299E-01
RMM:   5    -0.413340895375E+03    0.11711E-03   -0.81146E-03  4511   0.127E-01    0.115E-01
RMM:   6    -0.413340419876E+03    0.47550E-03   -0.35576E-03  4955   0.731E-02    0.610E-02
RMM:   7    -0.413340236607E+03    0.18327E-03   -0.70945E-04  5119   0.349E-02    0.329E-02
RMM:   8    -0.413340210551E+03    0.26057E-04   -0.12052E-04  4809   0.146E-02    0.188E-02
RMM:   9    -0.413340206373E+03    0.41775E-05   -0.55890E-05  4733   0.102E-02    0.828E-03
RMM:  10    -0.413340204686E+03    0.16876E-05   -0.17372E-05  4416   0.498E-03    0.518E-03
RMM:  11    -0.413340203902E+03    0.78376E-06   -0.43343E-06  2936   0.298E-03
  148 T=    97. E= -.41286503E+03 F= -.41334020E+03 E0= -.41332025E+03  EK= 0.47517E+00 SP= 0.00E+00 SK= 0.00E+00
       N       E                     dE             d eps       ncg     rms          rms(c)
RMM:   1    -0.413518198193E+03   -0.17799E+00   -0.91350E+00  4272   0.594E+00    0.685E-01
RMM:   2    -0.413504975352E+03    0.13223E-01   -0.21510E-01  5314   0.579E-01    0.612E-01
RMM:   3    -0.413516446564E+03   -0.11471E-01   -0.40491E-02  5632   0.220E-01    0.638E-01
RMM:   4    -0.413506743675E+03    0.97029E-02   -0.17910E-02  5351   0.145E-01    0.424E-01
RMM:   5    -0.413503331445E+03    0.34122E-02   -0.12019E-02  4366   0.155E-01    0.115E-01
RMM:   6    -0.413502776242E+03    0.55520E-03   -0.19822E-03  4745   0.631E-02    0.485E-02
RMM:   7    -0.413502738608E+03    0.37634E-04   -0.50660E-04  5417   0.279E-02    0.313E-02
RMM:   8    -0.413502701334E+03    0.37273E-04   -0.20385E-04  5241   0.165E-02    0.224E-02
RMM:   9    -0.413502687774E+03    0.13560E-04   -0.69873E-05  4637   0.114E-02    0.105E-02
RMM:  10    -0.413502688451E+03   -0.67669E-06   -0.21394E-05  4639   0.592E-03    0.670E-03
RMM:  11    -0.413502694975E+03   -0.65244E-05   -0.59990E-06  3233   0.340E-03    0.369E-03
RMM:  12    -0.413502706071E+03   -0.11096E-04   -0.29605E-06  2770   0.285E-03    0.191E-03
RMM:  13    -0.413502719999E+03   -0.13928E-04   -0.28765E-06  2756   0.253E-03    0.116E-03
RMM:  14    -0.413502730241E+03   -0.10242E-04   -0.16443E-06  2614   0.166E-03    0.765E-04
RMM:  15    -0.413502739181E+03   -0.89392E-05   -0.12486E-06  2470   0.141E-03    0.528E-04
RMM:  16    -0.413502751674E+03   -0.12493E-04   -0.24748E-06  2728   0.181E-03    0.445E-04
RMM:  17    -0.413502758454E+03   -0.67807E-05   -0.14301E-06  2115   0.126E-03    0.232E-04
RMM:  18    -0.413502762426E+03   -0.39711E-05   -0.57866E-07  1855   0.953E-04    0.159E-04
RMM:  19    -0.413502766666E+03   -0.42403E-05   -0.44175E-07  1788   0.858E-04    0.113E-04
RMM:  20    -0.413502768651E+03   -0.19853E-05   -0.17612E-07  1228   0.667E-04    0.630E-05
RMM:  21    -0.413502770139E+03   -0.14880E-05   -0.10538E-07  1172   0.620E-04    0.414E-05
RMM:  22    -0.413502771028E+03   -0.88903E-06   -0.61082E-08  1069   0.584E-04
  149 T=   128. E= -.41287236E+03 F= -.41350277E+03 E0= -.41348267E+03  EK= 0.63041E+00 SP= 0.00E+00 SK= 0.00E+00
       N       E                     dE             d eps       ncg     rms          rms(c)
RMM:   1    -0.413676033301E+03   -0.17326E+00   -0.13619E+01  4287   0.712E+00    0.109E+00
RMM:   2    -0.413641135426E+03    0.34898E-01   -0.34538E-01  5305   0.738E-01    0.934E-01
RMM:   3    -0.413657213138E+03   -0.16078E-01   -0.66250E-02  5582   0.296E-01    0.801E-01
RMM:   4    -0.413669413037E+03   -0.12200E-01   -0.61135E-02  5207   0.247E-01    0.828E-01
RMM:   5    -0.413640094643E+03    0.29318E-01   -0.33728E-02  4783   0.239E-01    0.179E-01
RMM:   6    -0.413638823591E+03    0.12711E-02   -0.63716E-03  5153   0.105E-01    0.813E-02
RMM:   7    -0.413638527816E+03    0.29577E-03   -0.14998E-03  5171   0.474E-02    0.469E-02
RMM:   8    -0.413638460793E+03    0.67023E-04   -0.44802E-04  5421   0.260E-02    0.295E-02
RMM:   9    -0.413638426379E+03    0.34414E-04   -0.15290E-04  4887   0.160E-02    0.177E-02
RMM:  10    -0.413638421995E+03    0.43842E-05   -0.49559E-05  5414   0.866E-03    0.925E-03
RMM:  11    -0.413638428025E+03   -0.60298E-05   -0.18454E-05  4597   0.511E-03    0.589E-03
RMM:  12    -0.413638439433E+03   -0.11408E-04   -0.54383E-06  3131   0.372E-03    0.329E-03
RMM:  13    -0.413638453046E+03   -0.13613E-04   -0.36533E-06  2835   0.295E-03    0.182E-03
RMM:  14    -0.413638466799E+03   -0.13753E-04   -0.20696E-06  2667   0.213E-03    0.105E-03
RMM:  15    -0.413638479452E+03   -0.12653E-04   -0.16149E-06  2620   0.168E-03    0.774E-04
RMM:  16    -0.413638497436E+03   -0.17984E-04   -0.32130E-06  2796   0.214E-03    0.466E-04
RMM:  17    -0.413638508023E+03   -0.10587E-04   -0.22445E-06  2481   0.156E-03    0.335E-04
RMM:  18    -0.413638514981E+03   -0.69577E-05   -0.10725E-06  2138   0.115E-03    0.256E-04
RMM:  19    -0.413638520827E+03   -0.58462E-05   -0.74609E-07  1951   0.984E-04    0.158E-04
RMM:  20    -0.413638523573E+03   -0.27460E-05   -0.27431E-07  1370   0.726E-04    0.991E-05
RMM:  21    -0.413638525862E+03   -0.22889E-05   -0.16904E-07  1302   0.665E-04    0.602E-05
RMM:  22    -0.413638527078E+03   -0.12165E-05   -0.90817E-08  1145   0.605E-04    0.535E-05
RMM:  23    -0.413638527784E+03   -0.70526E-06   -0.52081E-08  1065   0.568E-04
  150 T=   153. E= -.41288466E+03 F= -.41363853E+03 E0= -.41361834E+03  EK= 0.75386E+00 SP= 0.00E+00 SK= 0.00E+00
