       N       E                     dE             d eps       ncg     rms          rms(c)
RMM:   1     0.220125505056E+04    0.22013E+04   -0.52439E+04  2132   0.654E+02
RMM:   2     0.705345474110E+03   -0.14959E+04   -0.16259E+04  2132   0.177E+02
RMM:   3     0.137550292191E+03   -0.56780E+03   -0.65718E+03  2132   0.117E+02
RMM:   4    -0.159214883000E+03   -0.29677E+03   -0.27848E+03  2132   0.936E+01
RMM:   5    -0.287589920937E+03   -0.12838E+03   -0.11466E+03  2132   0.595E+01
RMM:   6    -0.349846913369E+03   -0.62257E+02   -0.55112E+02  2132   0.423E+01
RMM:   7    -0.382725652575E+03   -0.32879E+02   -0.30380E+02  2132   0.293E+01
RMM:   8    -0.404091012487E+03   -0.21365E+02   -0.18437E+02  2132   0.233E+01
RMM:   9    -0.436002680117E+03   -0.31912E+02   -0.30836E+02  6112   0.173E+01
RMM:  10    -0.441327856081E+03   -0.53252E+01   -0.63388E+01  6394   0.539E+00
RMM:  11    -0.442508780835E+03   -0.11809E+01   -0.10998E+01  6217   0.173E+00
RMM:  12    -0.442875767658E+03   -0.36699E+00   -0.25923E+00  6368   0.598E-01    0.134E+02
RMM:  13    -0.425634007025E+03    0.17242E+02   -0.81568E+01  4676   0.120E+01    0.712E+01
RMM:  14    -0.499511885431E+03   -0.73878E+02   -0.54333E+02  5418   0.233E+01    0.306E+01
RMM:  15    -0.414446248264E+03    0.85066E+02   -0.19680E+02  5061   0.163E+01    0.619E+00
RMM:  16    -0.414038820514E+03    0.40743E+00   -0.39408E+01  6080   0.605E+00    0.428E+00
RMM:  17    -0.413213051772E+03    0.82577E+00   -0.23497E+00  5338   0.182E+00    0.245E+00
RMM:  18    -0.413167701392E+03    0.45350E-01   -0.87065E-01  5964   0.954E-01    0.160E+00
RMM:  19    -0.413166780874E+03    0.92052E-03   -0.31187E-01  5704   0.588E-01    0.850E-01
RMM:  20    -0.413180005421E+03   -0.13225E-01   -0.19087E-01  5354   0.479E-01    0.507E-01
RMM:  21    -0.413166102656E+03    0.13903E-01   -0.34550E-02  5002   0.223E-01    0.231E-01
RMM:  22    -0.413165308723E+03    0.79393E-03   -0.13058E-02  6123   0.886E-02    0.152E-01
RMM:  23    -0.413163712414E+03    0.15963E-02   -0.64687E-03  5733   0.751E-02    0.832E-02
RMM:  24    -0.413162585065E+03    0.11273E-02   -0.17921E-03  5431   0.403E-02    0.341E-02
RMM:  25    -0.413162486378E+03    0.98688E-04   -0.84090E-04  5859   0.233E-02    0.282E-02
RMM:  26    -0.413162745920E+03   -0.25954E-03   -0.51023E-04  5778   0.231E-02    0.280E-02
RMM:  27    -0.413163212243E+03   -0.46632E-03   -0.19253E-04  4520   0.192E-02    0.148E-02
RMM:  28    -0.413163740738E+03   -0.52850E-03   -0.18939E-04  5133   0.199E-02    0.898E-03
RMM:  29    -0.413164067379E+03   -0.32664E-03   -0.92809E-05  4368   0.132E-02    0.381E-03
RMM:  30    -0.413164275466E+03   -0.20809E-03   -0.67260E-05  4082   0.945E-03    0.253E-03
RMM:  31    -0.413164377314E+03   -0.10185E-03   -0.43658E-05  3127   0.581E-03    0.214E-03
RMM:  32    -0.413164402003E+03   -0.24689E-04   -0.18836E-05  2918   0.279E-03    0.112E-03
RMM:  33    -0.413164411178E+03   -0.91746E-05   -0.80592E-06  2740   0.189E-03    0.481E-04
RMM:  34    -0.413164414036E+03   -0.28582E-05   -0.39210E-06  2608   0.147E-03    0.756E-04
RMM:  35    -0.413164413882E+03    0.15332E-06   -0.20033E-06  1820   0.981E-04
    1 T=    61. E= -.41286659E+03 F= -.41316441E+03 E0= -.41314192E+03  EK= 0.29783E+00 SP= 0.00E+00 SK= 0.00E+00
       N       E                     dE             d eps       ncg     rms          rms(c)
RMM:   1    -0.413155976022E+03    0.84380E-02   -0.10989E+01  3995   0.704E-01    0.886E-01
RMM:   2    -0.413165726809E+03   -0.97508E-02   -0.13568E-01  3998   0.100E-01    0.642E-01
RMM:   3    -0.413164175133E+03    0.15517E-02   -0.69180E-03  4783   0.371E-02    0.150E-01
RMM:   4    -0.413185766058E+03   -0.21591E-01   -0.22577E-02  5215   0.125E-01    0.614E-01
RMM:   5    -0.413163808175E+03    0.21958E-01   -0.10875E-02  4852   0.103E-01    0.332E-02
RMM:   6    -0.413163953066E+03   -0.14489E-03   -0.17502E-03  5842   0.405E-02    0.192E-02
RMM:   7    -0.413163968476E+03   -0.15410E-04   -0.23325E-04  5871   0.130E-02    0.135E-02
RMM:   8    -0.413163974877E+03   -0.64008E-05   -0.33781E-05  4598   0.561E-03    0.692E-03
RMM:   9    -0.413163980227E+03   -0.53495E-05   -0.72927E-06  3139   0.301E-03    0.479E-03
RMM:  10    -0.413163986225E+03   -0.59986E-05   -0.16830E-06  2563   0.181E-03    0.304E-03
RMM:  11    -0.413163994005E+03   -0.77795E-05   -0.14542E-06  2539   0.170E-03    0.140E-03
RMM:  12    -0.413163999786E+03   -0.57812E-05   -0.97444E-07  2438   0.136E-03    0.487E-04
RMM:  13    -0.413164000520E+03   -0.73455E-06   -0.39532E-07  1909   0.891E-04
    2 T=    61. E= -.41286625E+03 F= -.41316400E+03 E0= -.41314150E+03  EK= 0.29775E+00 SP= 0.00E+00 SK= 0.00E+00
       N       E                     dE             d eps       ncg     rms          rms(c)
RMM:   1    -0.413156482915E+03    0.75169E-02   -0.11015E+01  4191   0.699E-01    0.911E-01
RMM:   2    -0.413165775816E+03   -0.92929E-02   -0.13239E-01  3961   0.961E-02    0.634E-01
RMM:   3    -0.413164818376E+03    0.95744E-03   -0.73084E-03  4823   0.377E-02    0.160E-01
RMM:   4    -0.413190302732E+03   -0.25484E-01   -0.25880E-02  5188   0.135E-01    0.666E-01
RMM:   5    -0.413164487302E+03    0.25815E-01   -0.12550E-02  4835   0.111E-01    0.372E-02
RMM:   6    -0.413164655547E+03   -0.16824E-03   -0.20873E-03  5818   0.440E-02    0.214E-02
RMM:   7    -0.413164665101E+03   -0.95539E-05   -0.26439E-04  5906   0.139E-02    0.147E-02
RMM:   8    -0.413164665282E+03   -0.18129E-06   -0.38794E-05  4743   0.598E-03    0.775E-03
RMM:   9    -0.413164664561E+03    0.72069E-06   -0.78007E-06  3264   0.316E-03
    3 T=    61. E= -.41286671E+03 F= -.41316466E+03 E0= -.41314217E+03  EK= 0.29795E+00 SP= 0.00E+00 SK= 0.00E+00
       N       E                     dE             d eps       ncg     rms          rms(c)
RMM:   1    -0.413155903023E+03    0.87623E-02   -0.10924E+01  4227   0.698E-01    0.894E-01
RMM:   2    -0.413165809635E+03   -0.99066E-02   -0.13136E-01  4261   0.981E-02    0.628E-01
RMM:   3    -0.413170415049E+03   -0.46054E-02   -0.11826E-02  5192   0.789E-02    0.360E-01
RMM:   4    -0.413185523433E+03   -0.15108E-01   -0.35658E-02  5109   0.162E-01    0.608E-01
RMM:   5    -0.413164431732E+03    0.21092E-01   -0.80952E-03  4692   0.101E-01    0.536E-02
RMM:   6    -0.413164405016E+03    0.26716E-04   -0.14341E-03  5423   0.382E-02    0.203E-02
RMM:   7    -0.413164421785E+03   -0.16769E-04   -0.24271E-04  6011   0.146E-02    0.134E-02
RMM:   8    -0.413164423705E+03   -0.19208E-05   -0.37893E-05  5082   0.640E-03    0.677E-03
RMM:   9    -0.413164424461E+03   -0.75592E-06   -0.91520E-06  3517   0.385E-03
    4 T=    61. E= -.41286648E+03 F= -.41316442E+03 E0= -.41314194E+03  EK= 0.29795E+00 SP= 0.00E+00 SK= 0.00E+00
       N       E                     dE             d eps       ncg     rms          rms(c)
RMM:   1    -0.413155807402E+03    0.86163E-02   -0.10968E+01  4237   0.705E-01    0.883E-01
RMM:   2    -0.413166208550E+03   -0.10401E-01   -0.13522E-01  4074   0.954E-02    0.640E-01
RMM:   3    -0.413164607270E+03    0.16013E-02   -0.67593E-03  4490   0.330E-02    0.141E-01
RMM:   4    -0.413170702374E+03   -0.60951E-02   -0.65459E-03  5166   0.682E-02    0.331E-01
RMM:   5    -0.413164529787E+03    0.61726E-02   -0.30866E-03  4856   0.545E-02    0.230E-02
RMM:   6    -0.413164544143E+03   -0.14356E-04   -0.49143E-04  5851   0.215E-02    0.153E-02
RMM:   7    -0.413164561471E+03   -0.17328E-04   -0.92587E-05  5431   0.921E-03    0.936E-03
RMM:   8    -0.413164562385E+03   -0.91455E-06   -0.10997E-05  3453   0.384E-03    0.387E-03
RMM:   9    -0.413164568261E+03   -0.58756E-05   -0.22700E-06  2647   0.208E-03    0.281E-03
RMM:  10    -0.413164573544E+03   -0.52830E-05   -0.10299E-06  2501   0.157E-03    0.169E-03
RMM:  11    -0.413164579691E+03   -0.61472E-05   -0.89071E-07  2354   0.131E-03    0.571E-04
RMM:  12    -0.413164582165E+03   -0.24741E-05   -0.41334E-07  1821   0.924E-04    0.270E-04
RMM:  13    -0.413164583573E+03   -0.14075E-05   -0.24392E-07  1417   0.769E-04    0.162E-04
RMM:  14    -0.413164585509E+03   -0.19357E-05   -0.29604E-07  1495   0.778E-04    0.122E-04
RMM:  15    -0.413164585904E+03   -0.39532E-06   -0.14628E-07  1252   0.669E-04
    5 T=    61. E= -.41286649E+03 F= -.41316459E+03 E0= -.41314211E+03  EK= 0.29810E+00 SP= 0.00E+00 SK= 0.00E+00
       N       E                     dE             d eps       ncg     rms          rms(c)
RMM:   1    -0.413156707917E+03    0.78776E-02   -0.11015E+01  4249   0.713E-01    0.906E-01
RMM:   2    -0.413166392807E+03   -0.96849E-02   -0.13254E-01  4059   0.971E-02    0.636E-01
RMM:   3    -0.413165374399E+03    0.10184E-02   -0.71997E-03  4857   0.388E-02    0.162E-01
RMM:   4    -0.413194415216E+03   -0.29041E-01   -0.29595E-02  5161   0.143E-01    0.711E-01
RMM:   5    -0.413164900304E+03    0.29515E-01   -0.14404E-02  4820   0.119E-01    0.387E-02
RMM:   6    -0.413165081845E+03   -0.18154E-03   -0.23346E-03  5779   0.466E-02    0.215E-02
RMM:   7    -0.413165092104E+03   -0.10259E-04   -0.29180E-04  5889   0.144E-02    0.150E-02
RMM:   8    -0.413165091904E+03    0.20003E-06   -0.41664E-05  4771   0.611E-03    0.809E-03
RMM:   9    -0.413165090774E+03    0.11302E-05   -0.85828E-06  3340   0.326E-03    0.546E-03
RMM:  10    -0.413165091353E+03   -0.57905E-06   -0.17190E-06  2553   0.193E-03
    6 T=    61. E= -.41286670E+03 F= -.41316509E+03 E0= -.41314263E+03  EK= 0.29839E+00 SP= 0.00E+00 SK= 0.00E+00
       N       E                     dE             d eps       ncg     rms          rms(c)
RMM:   1    -0.413156441802E+03    0.86490E-02   -0.10959E+01  4254   0.718E-01    0.901E-01
RMM:   2    -0.413165798360E+03   -0.93566E-02   -0.13178E-01  4203   0.980E-02    0.629E-01
RMM:   3    -0.413167363822E+03   -0.15655E-02   -0.91360E-03  5123   0.603E-02    0.263E-01
RMM:   4    -0.413199017791E+03   -0.31654E-01   -0.43202E-02  5134   0.174E-01    0.768E-01
RMM:   5    -0.413164605921E+03    0.34412E-01   -0.15008E-02  4764   0.128E-01    0.517E-02
RMM:   6    -0.413164718285E+03   -0.11236E-03   -0.24810E-03  5641   0.494E-02    0.199E-02
RMM:   7    -0.413164740055E+03   -0.21770E-04   -0.33017E-04  6015   0.152E-02    0.140E-02
RMM:   8    -0.413164741518E+03   -0.14627E-05   -0.46444E-05  5061   0.663E-03    0.714E-03
RMM:   9    -0.413164739269E+03    0.22484E-05   -0.81436E-06  3121   0.326E-03    0.320E-03
RMM:  10    -0.413164739302E+03   -0.32662E-07   -0.20389E-06  2556   0.199E-03
    7 T=    61. E= -.41286624E+03 F= -.41316474E+03 E0= -.41314229E+03  EK= 0.29850E+00 SP= 0.00E+00 SK= 0.00E+00
       N       E                     dE             d eps       ncg     rms          rms(c)
RMM:   1    -0.413158051655E+03    0.66876E-02   -0.10975E+01  4268   0.732E-01    0.883E-01
RMM:   2    -0.413166969244E+03   -0.89176E-02   -0.13452E-01  4144   0.951E-02    0.638E-01
RMM:   3    -0.413166659645E+03    0.30960E-03   -0.77669E-03  5088   0.497E-02    0.208E-01
RMM:   4    -0.413210987991E+03   -0.44328E-01   -0.50677E-02  5144   0.187E-01    0.879E-01
RMM:   5    -0.413165167076E+03    0.45821E-01   -0.21368E-02  4799   0.147E-01    0.500E-02
RMM:   6    -0.413165369513E+03   -0.20244E-03   -0.33546E-03  5718   0.572E-02    0.198E-02
RMM:   7    -0.413165400195E+03   -0.30682E-04   -0.42645E-04  5988   0.169E-02    0.155E-02
RMM:   8    -0.413165405422E+03   -0.52278E-05   -0.57538E-05  5096   0.693E-03    0.852E-03
RMM:   9    -0.413165407938E+03   -0.25155E-05   -0.10201E-05  3357   0.343E-03    0.465E-03
RMM:  10    -0.413165412304E+03   -0.43663E-05   -0.26665E-06  2588   0.215E-03    0.278E-03
RMM:  11    -0.413165416288E+03   -0.39834E-05   -0.12339E-06  2528   0.164E-03    0.137E-03
RMM:  12    -0.413165419363E+03   -0.30757E-05   -0.83058E-07  2416   0.133E-03    0.354E-04
RMM:  13    -0.413165420728E+03   -0.13651E-05   -0.40149E-07  2004   0.976E-04    0.249E-04
RMM:  14    -0.413165421732E+03   -0.10037E-05   -0.27159E-07  1539   0.810E-04    0.139E-04
RMM:  15    -0.413165422496E+03   -0.76386E-06   -0.24424E-07  1488   0.762E-04
    8 T=    61. E= -.41286651E+03 F= -.41316542E+03 E0= -.41314299E+03  EK= 0.29891E+00 SP= 0.00E+00 SK= 0.00E+00
       N       E                     dE             d eps       ncg     rms          rms(c)
RMM:   1    -0.413156961251E+03    0.84605E-02   -0.11024E+01  4288   0.722E-01    0.900E-01
RMM:   2    -0.413166886269E+03   -0.99250E-02   -0.13379E-01  4169   0.100E-01    0.640E-01
RMM:   3    -0.413165881036E+03    0.10052E-02   -0.72044E-03  4891   0.401E-02    0.163E-01
RMM:   4    -0.413198081245E+03   -0.32200E-01   -0.33114E-02  5156   0.151E-01    0.748E-01
RMM:   5    -0.413165292140E+03    0.32789E-01   -0.16010E-02  4809   0.125E-01    0.398E-02
RMM:   6    -0.413165488203E+03   -0.19606E-03   -0.25663E-03  5787   0.490E-02    0.214E-02
RMM:   7    -0.413165500783E+03   -0.12580E-04   -0.31827E-04  5905   0.150E-02    0.152E-02
RMM:   8    -0.413165501673E+03   -0.89007E-06   -0.45166E-05  4835   0.632E-03    0.843E-03
RMM:   9    -0.413165500998E+03    0.67465E-06   -0.92539E-06  3389   0.337E-03
    9 T=    61. E= -.41286641E+03 F= -.41316550E+03 E0= -.41314309E+03  EK= 0.29909E+00 SP= 0.00E+00 SK= 0.00E+00
       N       E                     dE             d eps       ncg     rms          rms(c)
RMM:   1    -0.413157395733E+03    0.81059E-02   -0.11002E+01  4299   0.727E-01    0.909E-01
RMM:   2    -0.413166578963E+03   -0.91832E-02   -0.13192E-01  4323   0.971E-02    0.631E-01
RMM:   3    -0.413171518792E+03   -0.49398E-02   -0.12184E-02  5155   0.796E-02    0.361E-01
RMM:   4    -0.413186035979E+03   -0.14517E-01   -0.34898E-02  5083   0.160E-01    0.600E-01
RMM:   5    -0.413165630953E+03    0.20405E-01   -0.78528E-03  4679   0.997E-02    0.523E-02
RMM:   6    -0.413165612281E+03    0.18672E-04   -0.14076E-03  5447   0.373E-02    0.209E-02
RMM:   7    -0.413165624543E+03   -0.12262E-04   -0.23242E-04  5995   0.143E-02    0.136E-02
RMM:   8    -0.413165623051E+03    0.14920E-05   -0.37280E-05  5072   0.640E-03    0.672E-03
RMM:   9    -0.413165618744E+03    0.43071E-05   -0.82774E-06  3346   0.370E-03    0.352E-03
RMM:  10    -0.413165618010E+03    0.73333E-06   -0.12801E-06  2523   0.193E-03
   10 T=    61. E= -.41286640E+03 F= -.41316562E+03 E0= -.41314323E+03  EK= 0.29922E+00 SP= 0.00E+00 SK= 0.00E+00
       N       E                     dE             d eps       ncg     rms          rms(c)
RMM:   1    -0.413157590324E+03    0.80284E-02   -0.10947E+01  4299   0.727E-01    0.884E-01
RMM:   2    -0.413167927877E+03   -0.10338E-01   -0.13350E-01  4185   0.965E-02    0.635E-01
RMM:   3    -0.413166807685E+03    0.11202E-02   -0.69433E-03  4932   0.409E-02    0.164E-01
RMM:   4    -0.413200868484E+03   -0.34061E-01   -0.35200E-02  5152   0.156E-01    0.768E-01
RMM:   5    -0.413166147152E+03    0.34721E-01   -0.16921E-02  4811   0.129E-01    0.415E-02
RMM:   6    -0.413166351978E+03   -0.20483E-03   -0.27410E-03  5769   0.504E-02    0.210E-02
RMM:   7    -0.413166368059E+03   -0.16081E-04   -0.34451E-04  5930   0.153E-02    0.151E-02
RMM:   8    -0.413166369850E+03   -0.17902E-05   -0.43461E-05  4754   0.618E-03    0.791E-03
RMM:   9    -0.413166370388E+03   -0.53823E-06   -0.95190E-06  3354   0.331E-03
   11 T=    61. E= -.41286673E+03 F= -.41316637E+03 E0= -.41314401E+03  EK= 0.29964E+00 SP= 0.00E+00 SK= 0.00E+00
       N       E                     dE             d eps       ncg     rms          rms(c)
RMM:   1    -0.413157687072E+03    0.86828E-02   -0.11028E+01  4303   0.738E-01    0.895E-01
RMM:   2    -0.413167791501E+03   -0.10104E-01   -0.13504E-01  4306   0.986E-02    0.642E-01
RMM:   3    -0.413171997414E+03   -0.42059E-02   -0.11648E-02  5153   0.779E-02    0.352E-01
RMM:   4    -0.413191143147E+03   -0.19146E-01   -0.40011E-02  5093   0.170E-01    0.657E-01
RMM:   5    -0.413166233183E+03    0.24910E-01   -0.98241E-03  4691   0.109E-01    0.541E-02
RMM:   6    -0.413166237461E+03   -0.42781E-05   -0.17346E-03  5480   0.412E-02    0.194E-02
RMM:   7    -0.413166257580E+03   -0.20119E-04   -0.26887E-04  6007   0.149E-02    0.133E-02
RMM:   8    -0.413166260375E+03   -0.27946E-05   -0.41482E-05  5115   0.653E-03    0.691E-03
RMM:   9    -0.413166261697E+03   -0.13222E-05   -0.90924E-06  3397   0.380E-03    0.370E-03
RMM:  10    -0.413166263067E+03   -0.13700E-05   -0.15365E-06  2540   0.199E-03    0.220E-03
RMM:  11    -0.413166265027E+03   -0.19600E-05   -0.13720E-06  2546   0.177E-03    0.136E-03
RMM:  12    -0.413166265737E+03   -0.70978E-06   -0.58997E-07  2395   0.123E-03
   12 T=    61. E= -.41286638E+03 F= -.41316627E+03 E0= -.41314393E+03  EK= 0.29989E+00 SP= 0.00E+00 SK= 0.00E+00
       N       E                     dE             d eps       ncg     rms          rms(c)
RMM:   1    -0.413158712447E+03    0.75526E-02   -0.11044E+01  4294   0.744E-01    0.914E-01
RMM:   2    -0.413167897875E+03   -0.91854E-02   -0.13206E-01  4228   0.937E-02    0.633E-01
RMM:   3    -0.413167454953E+03    0.44292E-03   -0.75873E-03  5024   0.405E-02    0.179E-01
RMM:   4    -0.413206280750E+03   -0.38826E-01   -0.40873E-02  5148   0.168E-01    0.819E-01
RMM:   5    -0.413166691226E+03    0.39590E-01   -0.19204E-02  4798   0.137E-01    0.452E-02
RMM:   6    -0.413166902863E+03   -0.21164E-03   -0.30359E-03  5750   0.537E-02    0.233E-02
RMM:   7    -0.413166914646E+03   -0.11783E-04   -0.38411E-04  5934   0.164E-02    0.166E-02
RMM:   8    -0.413166911032E+03    0.36141E-05   -0.52912E-05  5020   0.681E-03    0.912E-03
RMM:   9    -0.413166905370E+03    0.56614E-05   -0.10489E-05  3471   0.350E-03    0.575E-03
RMM:  10    -0.413166901844E+03    0.35261E-05   -0.22128E-06  2568   0.210E-03    0.341E-03
RMM:  11    -0.413166898259E+03    0.35849E-05   -0.15435E-06  2537   0.187E-03    0.156E-03
RMM:  12    -0.413166895073E+03    0.31861E-05   -0.91907E-07  2475   0.150E-03    0.460E-04
RMM:  13    -0.413166894370E+03    0.70367E-06   -0.35429E-07  2106   0.100E-03
   13 T=    61. E= -.41286650E+03 F= -.41316689E+03 E0= -.41314459E+03  EK= 0.30039E+00 SP= 0.00E+00 SK= 0.00E+00
       N       E                     dE             d eps       ncg     rms          rms(c)
RMM:   1    -0.413158799803E+03    0.80953E-02   -0.10959E+01  4299   0.742E-01    0.888E-01
RMM:   2    -0.413168829138E+03   -0.10029E-01   -0.13364E-01  4239   0.958E-02    0.633E-01
RMM:   3    -0.413167821523E+03    0.10076E-02   -0.69859E-03  4886   0.384E-02    0.163E-01
RMM:   4    -0.413198597188E+03   -0.30776E-01   -0.31653E-02  5143   0.148E-01    0.731E-01
RMM:   5    -0.413167273153E+03    0.31324E-01   -0.15316E-02  4801   0.122E-01    0.387E-02
RMM:   6    -0.413167464278E+03   -0.19113E-03   -0.24771E-03  5793   0.477E-02    0.212E-02
RMM:   7    -0.413167474753E+03   -0.10475E-04   -0.30006E-04  5890   0.147E-02    0.150E-02
RMM:   8    -0.413167474026E+03    0.72653E-06   -0.45327E-05  4863   0.640E-03    0.853E-03
RMM:   9    -0.413167471380E+03    0.26461E-05   -0.92922E-06  3399   0.342E-03    0.574E-03
RMM:  10    -0.413167470911E+03    0.46844E-06   -0.18528E-06  2553   0.201E-03
   14 T=    61. E= -.41286649E+03 F= -.41316747E+03 E0= -.41314520E+03  EK= 0.30098E+00 SP= 0.00E+00 SK= 0.00E+00
       N       E                     dE             d eps       ncg     rms          rms(c)
RMM:   1    -0.413158835823E+03    0.86356E-02   -0.11053E+01  4306   0.752E-01    0.892E-01
RMM:   2    -0.413169412279E+03   -0.10576E-01   -0.13622E-01  4297   0.990E-02    0.645E-01
RMM:   3    -0.413170739355E+03   -0.13271E-02   -0.94514E-03  5122   0.635E-02    0.280E-01
RMM:   4    -0.413203919964E+03   -0.33181E-01   -0.47414E-02  5112   0.182E-01    0.788E-01
RMM:   5    -0.413167432149E+03    0.36488E-01   -0.15762E-02  4736   0.131E-01    0.521E-02
RMM:   6    -0.413167547612E+03   -0.11546E-03   -0.25810E-03  5637   0.503E-02    0.186E-02
RMM:   7    -0.413167572270E+03   -0.24659E-04   -0.34079E-04  6006   0.155E-02    0.138E-02
RMM:   8    -0.413167575670E+03   -0.33994E-05   -0.48606E-05  5096   0.672E-03    0.721E-03
RMM:   9    -0.413167576059E+03   -0.38902E-06   -0.89318E-06  3166   0.339E-03
   15 T=    61. E= -.41286613E+03 F= -.41316758E+03 E0= -.41314534E+03  EK= 0.30145E+00 SP= 0.00E+00 SK= 0.00E+00
       N       E                     dE             d eps       ncg     rms          rms(c)
RMM:   1    -0.413160451447E+03    0.71242E-02   -0.11090E+01  4301   0.755E-01    0.915E-01
RMM:   2    -0.413169674122E+03   -0.92227E-02   -0.13322E-01  4266   0.994E-02    0.637E-01
RMM:   3    -0.413168943332E+03    0.73079E-03   -0.74902E-03  4933   0.400E-02    0.170E-01
RMM:   4    -0.413202327606E+03   -0.33384E-01   -0.34428E-02  5148   0.154E-01    0.760E-01
RMM:   5    -0.413168349560E+03    0.33978E-01   -0.16628E-02  4810   0.127E-01    0.416E-02
RMM:   6    -0.413168541570E+03   -0.19201E-03   -0.26346E-03  5832   0.499E-02    0.229E-02
RMM:   7    -0.413168547327E+03   -0.57570E-05   -0.33606E-04  5940   0.156E-02    0.160E-02
RMM:   8    -0.413168542392E+03    0.49356E-05   -0.45812E-05  4864   0.644E-03    0.846E-03
RMM:   9    -0.413168536730E+03    0.56616E-05   -0.98484E-06  3431   0.342E-03    0.573E-03
RMM:  10    -0.413168532978E+03    0.37521E-05   -0.18807E-06  2547   0.202E-03    0.347E-03
RMM:  11    -0.413168528591E+03    0.43872E-05   -0.16978E-06  2560   0.195E-03    0.155E-03
RMM:  12    -0.413168524684E+03    0.39064E-05   -0.93951E-07  2484   0.151E-03    0.526E-04
RMM:  13    -0.413168524014E+03    0.67021E-06   -0.32131E-07  2074   0.959E-04
   16 T=    62. E= -.41286643E+03 F= -.41316852E+03 E0= -.41314633E+03  EK= 0.30209E+00 SP= 0.00E+00 SK= 0.00E+00
       N       E                     dE             d eps       ncg     rms          rms(c)
RMM:   1    -0.413160388458E+03    0.81362E-02   -0.11000E+01  4299   0.751E-01    0.895E-01
RMM:   2    -0.413170406567E+03   -0.10018E-01   -0.13388E-01  4266   0.982E-02    0.633E-01
RMM:   3    -0.413169306510E+03    0.11001E-02   -0.71111E-03  4898   0.416E-02    0.168E-01
RMM:   4    -0.413203097931E+03   -0.33791E-01   -0.34847E-02  5140   0.155E-01    0.764E-01
RMM:   5    -0.413168772059E+03    0.34326E-01   -0.16873E-02  4803   0.128E-01    0.406E-02
RMM:   6    -0.413168965597E+03   -0.19354E-03   -0.26457E-03  5777   0.502E-02    0.222E-02
RMM:   7    -0.413168974714E+03   -0.91167E-05   -0.32864E-04  5905   0.154E-02    0.156E-02
RMM:   8    -0.413168971993E+03    0.27207E-05   -0.48285E-05  4928   0.658E-03    0.879E-03
RMM:   9    -0.413168967268E+03    0.47254E-05   -0.10052E-05  3465   0.349E-03    0.585E-03
RMM:  10    -0.413168964659E+03    0.26086E-05   -0.19580E-06  2553   0.204E-03    0.353E-03
RMM:  11    -0.413168961544E+03    0.31152E-05   -0.17256E-06  2548   0.198E-03    0.161E-03
RMM:  12    -0.413168958909E+03    0.26351E-05   -0.89508E-07  2471   0.151E-03    0.523E-04
RMM:  13    -0.413168958426E+03    0.48266E-06   -0.32467E-07  2080   0.970E-04
   17 T=    62. E= -.41286640E+03 F= -.41316896E+03 E0= -.41314680E+03  EK= 0.30255E+00 SP= 0.00E+00 SK= 0.00E+00
       N       E                     dE             d eps       ncg     rms          rms(c)
RMM:   1    -0.413161266968E+03    0.76919E-02   -0.11079E+01  4299   0.774E-01    0.890E-01
RMM:   2    -0.413171402346E+03   -0.10135E-01   -0.13697E-01  4277   0.102E-01    0.645E-01
RMM:   3    -0.413169962615E+03    0.14397E-02   -0.70760E-03  4908   0.406E-02    0.165E-01
RMM:   4    -0.413205144607E+03   -0.35182E-01   -0.36598E-02  5145   0.159E-01    0.780E-01
RMM:   5    -0.413169292127E+03    0.35852E-01   -0.17619E-02  4800   0.131E-01    0.408E-02
RMM:   6    -0.413169496832E+03   -0.20470E-03   -0.27848E-03  5784   0.512E-02    0.216E-02
RMM:   7    -0.413169510722E+03   -0.13890E-04   -0.33767E-04  5915   0.156E-02    0.155E-02
RMM:   8    -0.413169511139E+03   -0.41761E-06   -0.49704E-05  4949   0.664E-03    0.880E-03
RMM:   9    -0.413169509215E+03    0.19247E-05   -0.10491E-05  3499   0.357E-03    0.579E-03
RMM:  10    -0.413169509663E+03   -0.44885E-06   -0.21382E-06  2564   0.210E-03
   18 T=    62. E= -.41286635E+03 F= -.41316951E+03 E0= -.41314739E+03  EK= 0.30316E+00 SP= 0.00E+00 SK= 0.00E+00
       N       E                     dE             d eps       ncg     rms          rms(c)
RMM:   1    -0.413162452008E+03    0.70572E-02   -0.11125E+01  4301   0.763E-01    0.914E-01
RMM:   2    -0.413171901171E+03   -0.94492E-02   -0.13482E-01  4308   0.983E-02    0.640E-01
RMM:   3    -0.413174387291E+03   -0.24861E-02   -0.10185E-02  5123   0.678E-02    0.299E-01
RMM:   4    -0.413201118829E+03   -0.26732E-01   -0.42193E-02  5095   0.173E-01    0.725E-01
RMM:   5    -0.413170580726E+03    0.30538E-01   -0.12850E-02  4716   0.120E-01    0.509E-02
RMM:   6    -0.413170657733E+03   -0.77007E-04   -0.21648E-03  5598   0.462E-02    0.204E-02
RMM:   7    -0.413170671270E+03   -0.13538E-04   -0.29190E-04  5990   0.147E-02    0.140E-02
RMM:   8    -0.413170667825E+03    0.34452E-05   -0.45245E-05  5104   0.667E-03    0.708E-03
RMM:   9    -0.413170660222E+03    0.76032E-05   -0.81072E-06  3101   0.335E-03    0.311E-03
RMM:  10    -0.413170657498E+03    0.27237E-05   -0.18701E-06  2541   0.195E-03    0.193E-03
RMM:  11    -0.413170653446E+03    0.40525E-05   -0.10463E-06  2514   0.156E-03    0.112E-03
RMM:  12    -0.413170650516E+03    0.29297E-05   -0.52048E-07  2223   0.115E-03    0.481E-04
RMM:  13    -0.413170648295E+03    0.22215E-05   -0.29226E-07  1817   0.886E-04    0.223E-04
RMM:  14    -0.413170646443E+03    0.18515E-05   -0.19251E-07  1486   0.752E-04    0.141E-04
RMM:  15    -0.413170643117E+03    0.33262E-05   -0.22482E-07  1650   0.765E-04    0.146E-04
RMM:  16    -0.413170641722E+03    0.13946E-05   -0.11067E-07  1206   0.624E-04    0.111E-04
RMM:  17    -0.413170639589E+03    0.21329E-05   -0.98917E-08  1211   0.617E-04    0.473E-05
RMM:  18    -0.413170638184E+03    0.14053E-05   -0.63701E-08  1018   0.567E-04    0.407E-05
RMM:  19    -0.413170637539E+03    0.64536E-06   -0.34705E-08   850   0.533E-04
   19 T=    62. E= -.41286663E+03 F= -.41317064E+03 E0= -.41314856E+03  EK= 0.30401E+00 SP= 0.00E+00 SK= 0.00E+00
       N       E                     dE             d eps       ncg     rms          rms(c)
RMM:   1    -0.413162688542E+03    0.79496E-02   -0.11065E+01  4297   0.769E-01    0.904E-01
RMM:   2    -0.413172386739E+03   -0.96982E-02   -0.13408E-01  4270   0.999E-02    0.634E-01
RMM:   3    -0.413171672600E+03    0.71414E-03   -0.73658E-03  4969   0.426E-02    0.180E-01
RMM:   4    -0.413211278543E+03   -0.39606E-01   -0.41898E-02  5143   0.169E-01    0.826E-01
RMM:   5    -0.413170889331E+03    0.40389E-01   -0.19725E-02  4796   0.139E-01    0.450E-02
RMM:   6    -0.413171099587E+03   -0.21026E-03   -0.31539E-03  5766   0.545E-02    0.234E-02
RMM:   7    -0.413171109832E+03   -0.10245E-04   -0.38956E-04  5892   0.165E-02    0.167E-02
RMM:   8    -0.413171105117E+03    0.47156E-05   -0.55433E-05  5064   0.700E-03    0.938E-03
RMM:   9    -0.413171098167E+03    0.69493E-05   -0.11430E-05  3592   0.366E-03    0.601E-03
RMM:  10    -0.413171093856E+03    0.43114E-05   -0.21993E-06  2553   0.214E-03    0.359E-03
RMM:  11    -0.413171089537E+03    0.43194E-05   -0.15691E-06  2529   0.192E-03    0.168E-03
RMM:  12    -0.413171085876E+03    0.36603E-05   -0.87853E-07  2473   0.153E-03    0.478E-04
RMM:  13    -0.413171085086E+03    0.79080E-06   -0.34736E-07  2135   0.102E-03
   20 T=    62. E= -.41286642E+03 F= -.41317109E+03 E0= -.41314905E+03  EK= 0.30467E+00 SP= 0.00E+00 SK= 0.00E+00
       N       E                     dE             d eps       ncg     rms          rms(c)
RMM:   1    -0.413163559190E+03    0.75267E-02   -0.11106E+01  4301   0.781E-01    0.890E-01
RMM:   2    -0.413173876372E+03   -0.10317E-01   -0.13763E-01  4281   0.101E-01    0.645E-01
RMM:   3    -0.413172539652E+03    0.13367E-02   -0.71604E-03  4925   0.417E-02    0.167E-01
RMM:   4    -0.413208864954E+03   -0.36325E-01   -0.37896E-02  5136   0.161E-01    0.792E-01
RMM:   5    -0.413171845089E+03    0.37020E-01   -0.18195E-02  4797   0.133E-01    0.414E-02
RMM:   6    -0.413172049874E+03   -0.20479E-03   -0.29038E-03  5785   0.522E-02    0.219E-02
RMM:   7    -0.413172064155E+03   -0.14281E-04   -0.34991E-04  5911   0.158E-02    0.157E-02
RMM:   8    -0.413172063274E+03    0.88091E-06   -0.52888E-05  4997   0.685E-03    0.917E-03
RMM:   9    -0.413172059798E+03    0.34767E-05   -0.11079E-05  3561   0.367E-03    0.601E-03
RMM:  10    -0.413172058861E+03    0.93686E-06   -0.22224E-06  2567   0.215E-03
   21 T=    62. E= -.41286643E+03 F= -.41317206E+03 E0= -.41315007E+03  EK= 0.30563E+00 SP= 0.00E+00 SK= 0.00E+00
       N       E                     dE             d eps       ncg     rms          rms(c)
RMM:   1    -0.413164739839E+03    0.73200E-02   -0.11180E+01  4304   0.776E-01    0.911E-01
RMM:   2    -0.413174652475E+03   -0.99126E-02   -0.13648E-01  4314   0.989E-02    0.645E-01
RMM:   3    -0.413177123925E+03   -0.24714E-02   -0.10340E-02  5110   0.690E-02    0.305E-01
RMM:   4    -0.413204369070E+03   -0.27245E-01   -0.43598E-02  5092   0.175E-01    0.732E-01
RMM:   5    -0.413173144248E+03    0.31225E-01   -0.13111E-02  4708   0.121E-01    0.510E-02
RMM:   6    -0.413173221612E+03   -0.77364E-04   -0.22505E-03  5600   0.468E-02    0.202E-02
RMM:   7    -0.413173235319E+03   -0.13707E-04   -0.29974E-04  5996   0.148E-02    0.141E-02
RMM:   8    -0.413173232019E+03    0.33000E-05   -0.46140E-05  5097   0.675E-03    0.713E-03
RMM:   9    -0.413173224491E+03    0.75283E-05   -0.84552E-06  3139   0.341E-03    0.314E-03
RMM:  10    -0.413173221800E+03    0.26908E-05   -0.19125E-06  2549   0.197E-03    0.196E-03
RMM:  11    -0.413173217772E+03    0.40284E-05   -0.10348E-06  2512   0.156E-03    0.113E-03
RMM:  12    -0.413173214806E+03    0.29656E-05   -0.51272E-07  2223   0.115E-03    0.467E-04
RMM:  13    -0.413173212597E+03    0.22092E-05   -0.28302E-07  1804   0.878E-04    0.218E-04
RMM:  14    -0.413173210428E+03    0.21692E-05   -0.19284E-07  1489   0.758E-04    0.128E-04
RMM:  15    -0.413173207357E+03    0.30709E-05   -0.18845E-07  1565   0.740E-04    0.133E-04
RMM:  16    -0.413173205922E+03    0.14348E-05   -0.10244E-07  1197   0.623E-04    0.101E-04
RMM:  17    -0.413173203751E+03    0.21710E-05   -0.90493E-08  1206   0.614E-04    0.464E-05
RMM:  18    -0.413173202174E+03    0.15771E-05   -0.60582E-08  1036   0.569E-04    0.360E-05
RMM:  19    -0.413173201680E+03    0.49404E-06   -0.30086E-08   823   0.529E-04
   22 T=    62. E= -.41286650E+03 F= -.41317320E+03 E0= -.41315126E+03  EK= 0.30670E+00 SP= 0.00E+00 SK= 0.00E+00
       N       E                     dE             d eps       ncg     rms          rms(c)
RMM:   1    -0.413165796747E+03    0.74054E-02   -0.11167E+01  4295   0.792E-01    0.914E-01
RMM:   2    -0.413175152486E+03   -0.93557E-02   -0.13520E-01  4276   0.105E-01    0.637E-01
RMM:   3    -0.413174392294E+03    0.76019E-03   -0.75572E-03  4906   0.446E-02    0.177E-01
RMM:   4    -0.413211738037E+03   -0.37346E-01   -0.39005E-02  5146   0.164E-01    0.803E-01
RMM:   5    -0.413173690795E+03    0.38047E-01   -0.18693E-02  4795   0.135E-01    0.437E-02
RMM:   6    -0.413173894388E+03   -0.20359E-03   -0.30527E-03  5779   0.531E-02    0.241E-02
RMM:   7    -0.413173901992E+03   -0.76034E-05   -0.36482E-04  5856   0.163E-02    0.168E-02
RMM:   8    -0.413173896159E+03    0.58332E-05   -0.55888E-05  5054   0.711E-03    0.967E-03
RMM:   9    -0.413173887711E+03    0.84472E-05   -0.11512E-05  3642   0.376E-03    0.633E-03
RMM:  10    -0.413173881947E+03    0.57641E-05   -0.22312E-06  2576   0.217E-03    0.384E-03
RMM:  11    -0.413173875398E+03    0.65497E-05   -0.17936E-06  2548   0.206E-03    0.175E-03
RMM:  12    -0.413173870215E+03    0.51831E-05   -0.90051E-07  2474   0.159E-03    0.544E-04
RMM:  13    -0.413173869270E+03    0.94518E-06   -0.34978E-07  2157   0.103E-03
   23 T=    63. E= -.41286623E+03 F= -.41317387E+03 E0= -.41315197E+03  EK= 0.30764E+00 SP= 0.00E+00 SK= 0.00E+00
       N       E                     dE             d eps       ncg     rms          rms(c)
RMM:   1    -0.413167296943E+03    0.65733E-02   -0.11164E+01  4294   0.793E-01    0.893E-01
RMM:   2    -0.413177328735E+03   -0.10032E-01   -0.13852E-01  4283   0.104E-01    0.645E-01
RMM:   3    -0.413175720501E+03    0.16082E-02   -0.70973E-03  4818   0.422E-02    0.163E-01
RMM:   4    -0.413205595580E+03   -0.29875E-01   -0.30683E-02  5152   0.145E-01    0.719E-01
RMM:   5    -0.413175257730E+03    0.30338E-01   -0.15088E-02  4807   0.120E-01    0.378E-02
RMM:   6    -0.413175421068E+03   -0.16334E-03   -0.23937E-03  5807   0.468E-02    0.212E-02
RMM:   7    -0.413175429868E+03   -0.88003E-05   -0.26603E-04  5845   0.143E-02    0.138E-02
RMM:   8    -0.413175428402E+03    0.14663E-05   -0.48557E-05  4943   0.658E-03    0.892E-03
RMM:   9    -0.413175422826E+03    0.55760E-05   -0.10943E-05  3717   0.374E-03    0.594E-03
RMM:  10    -0.413175420654E+03    0.21723E-05   -0.18858E-06  2548   0.211E-03    0.371E-03
RMM:  11    -0.413175417690E+03    0.29636E-05   -0.20470E-06  2579   0.216E-03    0.172E-03
RMM:  12    -0.413175415180E+03    0.25105E-05   -0.85488E-07  2476   0.155E-03    0.593E-04
RMM:  13    -0.413175414747E+03    0.43237E-06   -0.30935E-07  2077   0.967E-04
   24 T=    63. E= -.41286655E+03 F= -.41317541E+03 E0= -.41315357E+03  EK= 0.30886E+00 SP= 0.00E+00 SK= 0.00E+00
       N       E                     dE             d eps       ncg     rms          rms(c)
RMM:   1    -0.413167907023E+03    0.75082E-02   -0.11257E+01  4296   0.797E-01    0.909E-01
RMM:   2    -0.413178248802E+03   -0.10342E-01   -0.13827E-01  4280   0.106E-01    0.650E-01
RMM:   3    -0.413176716736E+03    0.15321E-02   -0.72563E-03  4770   0.432E-02    0.162E-01
RMM:   4    -0.413204556873E+03   -0.27840E-01   -0.28422E-02  5150   0.140E-01    0.695E-01
RMM:   5    -0.413176278405E+03    0.28278E-01   -0.14015E-02  4807   0.116E-01    0.373E-02
RMM:   6    -0.413176429572E+03   -0.15117E-03   -0.22584E-03  5814   0.449E-02    0.214E-02
RMM:   7    -0.413176435800E+03   -0.62280E-05   -0.24200E-04  5806   0.138E-02    0.133E-02
RMM:   8    -0.413176433389E+03    0.24111E-05   -0.46318E-05  4920   0.647E-03    0.883E-03
RMM:   9    -0.413176426912E+03    0.64770E-05   -0.11019E-05  3773   0.375E-03    0.594E-03
RMM:  10    -0.413176423838E+03    0.30738E-05   -0.17963E-06  2544   0.211E-03    0.374E-03
RMM:  11    -0.413176419453E+03    0.43846E-05   -0.20219E-06  2576   0.216E-03    0.172E-03
RMM:  12    -0.413176415843E+03    0.36106E-05   -0.82787E-07  2469   0.155E-03    0.583E-04
RMM:  13    -0.413176415280E+03    0.56307E-06   -0.30392E-07  2090   0.961E-04
   25 T=    63. E= -.41286643E+03 F= -.41317642E+03 E0= -.41315462E+03  EK= 0.30998E+00 SP= 0.00E+00 SK= 0.00E+00
       N       E                     dE             d eps       ncg     rms          rms(c)
RMM:   1    -0.413169692861E+03    0.67230E-02   -0.11282E+01  4294   0.808E-01    0.924E-01
RMM:   2    -0.413178831242E+03   -0.91384E-02   -0.13720E-01  4276   0.108E-01    0.642E-01
RMM:   3    -0.413177847698E+03    0.98354E-03   -0.75258E-03  4712   0.434E-02    0.165E-01
RMM:   4    -0.413202062712E+03   -0.24215E-01   -0.24540E-02  5156   0.131E-01    0.649E-01
RMM:   5    -0.413177542642E+03    0.24520E-01   -0.12226E-02  4811   0.108E-01    0.368E-02
RMM:   6    -0.413177664038E+03   -0.12140E-03   -0.19589E-03  5821   0.416E-02    0.215E-02
RMM:   7    -0.413177663082E+03    0.95657E-06   -0.19858E-04  5691   0.129E-02    0.118E-02
RMM:   8    -0.413177656395E+03    0.66868E-05   -0.36649E-05  4774   0.582E-03    0.806E-03
RMM:   9    -0.413177648861E+03    0.75339E-05   -0.97034E-06  3628   0.347E-03    0.579E-03
RMM:  10    -0.413177643855E+03    0.50061E-05   -0.16297E-06  2548   0.206E-03    0.373E-03
RMM:  11    -0.413177634977E+03    0.88775E-05   -0.19519E-06  2567   0.215E-03    0.169E-03
RMM:  12    -0.413177627570E+03    0.74077E-05   -0.81073E-07  2466   0.156E-03    0.646E-04
RMM:  13    -0.413177626833E+03    0.73614E-06   -0.26948E-07  2062   0.935E-04
   26 T=    63. E= -.41286634E+03 F= -.41317763E+03 E0= -.41315588E+03  EK= 0.31129E+00 SP= 0.00E+00 SK= 0.00E+00
       N       E                     dE             d eps       ncg     rms          rms(c)
RMM:   1    -0.413170680692E+03    0.69469E-02   -0.11237E+01  4297   0.803E-01    0.899E-01
RMM:   2    -0.413181046666E+03   -0.10366E-01   -0.13873E-01  4277   0.104E-01    0.645E-01
RMM:   3    -0.413179738826E+03    0.13078E-02   -0.71365E-03  4633   0.413E-02    0.158E-01
RMM:   4    -0.413197236062E+03   -0.17497E-01   -0.17835E-02  5149   0.111E-01    0.554E-01
RMM:   5    -0.413179492102E+03    0.17744E-01   -0.88912E-03  4819   0.915E-02    0.319E-02
RMM:   6    -0.413179572404E+03   -0.80302E-04   -0.14078E-03  5837   0.348E-02    0.189E-02
RMM:   7    -0.413179572489E+03   -0.85067E-07   -0.14050E-04  5540   0.110E-02    0.941E-03
RMM:   8    -0.413179566582E+03    0.59071E-05   -0.22268E-05  4197   0.467E-03    0.593E-03
RMM:   9    -0.413179562224E+03    0.43580E-05   -0.30135E-06  2642   0.216E-03    0.386E-03
RMM:  10    -0.413179560346E+03    0.18784E-05   -0.10783E-06  2511   0.152E-03    0.283E-03
RMM:  11    -0.413179554349E+03    0.59969E-05   -0.13447E-06  2520   0.188E-03    0.130E-03
RMM:  12    -0.413179551687E+03    0.26617E-05   -0.51569E-07  2310   0.125E-03    0.631E-04
RMM:  13    -0.413179551270E+03    0.41735E-06   -0.19879E-07  1638   0.800E-04
   27 T=    64. E= -.41286673E+03 F= -.41317955E+03 E0= -.41315785E+03  EK= 0.31282E+00 SP= 0.00E+00 SK= 0.00E+00
       N       E                     dE             d eps       ncg     rms          rms(c)
RMM:   1    -0.413171998970E+03    0.75527E-02   -0.11358E+01  4292   0.828E-01    0.908E-01
RMM:   2    -0.413182320629E+03   -0.10322E-01   -0.14177E-01  4274   0.108E-01    0.656E-01
RMM:   3    -0.413180761244E+03    0.15594E-02   -0.73211E-03  4565   0.429E-02    0.155E-01
RMM:   4    -0.413195168225E+03   -0.14407E-01   -0.14797E-02  5154   0.103E-01    0.504E-01
RMM:   5    -0.413180540065E+03    0.14628E-01   -0.73248E-03  4820   0.829E-02    0.300E-02
RMM:   6    -0.413180596368E+03   -0.56303E-04   -0.11263E-03  5852   0.313E-02    0.181E-02
RMM:   7    -0.413180597510E+03   -0.11420E-05   -0.12036E-04  5527   0.104E-02    0.909E-03
RMM:   8    -0.413180591469E+03    0.60407E-05   -0.22206E-05  4353   0.478E-03    0.584E-03
RMM:   9    -0.413180590126E+03    0.13428E-05   -0.62266E-06  3173   0.299E-03    0.475E-03
RMM:  10    -0.413180587257E+03    0.28689E-05   -0.94635E-07  2509   0.175E-03    0.299E-03
RMM:  11    -0.413180583024E+03    0.42338E-05   -0.12447E-06  2509   0.176E-03    0.142E-03
RMM:  12    -0.413180579893E+03    0.31307E-05   -0.59811E-07  2361   0.127E-03    0.572E-04
RMM:  13    -0.413180579201E+03    0.69235E-06   -0.18799E-07  1699   0.790E-04
   28 T=    64. E= -.41286637E+03 F= -.41318058E+03 E0= -.41315893E+03  EK= 0.31421E+00 SP= 0.00E+00 SK= 0.00E+00
       N       E                     dE             d eps       ncg     rms          rms(c)
RMM:   1    -0.413178105660E+03    0.24742E-02   -0.11454E+01  4292   0.861E-01    0.932E-01
RMM:   2    -0.413183881092E+03   -0.57754E-02   -0.14129E-01  4276   0.110E-01    0.649E-01
RMM:   3    -0.413182695404E+03    0.11857E-02   -0.76734E-03  4424   0.411E-02    0.161E-01
RMM:   4    -0.413188604320E+03   -0.59089E-02   -0.63863E-03  5174   0.671E-02    0.322E-01
RMM:   5    -0.413182735837E+03    0.58685E-02   -0.29336E-03  4835   0.528E-02    0.282E-02
RMM:   6    -0.413182747077E+03   -0.11240E-04   -0.52161E-04  5813   0.214E-02    0.192E-02
RMM:   7    -0.413182737303E+03    0.97737E-05   -0.11753E-04  5339   0.107E-02    0.102E-02
RMM:   8    -0.413182725924E+03    0.11379E-04   -0.11425E-05  3668   0.421E-03    0.438E-03
RMM:   9    -0.413182721415E+03    0.45091E-05   -0.21002E-06  2643   0.211E-03    0.319E-03
RMM:  10    -0.413182715329E+03    0.60853E-05   -0.86824E-07  2476   0.156E-03    0.181E-03
RMM:  11    -0.413182708166E+03    0.71636E-05   -0.58441E-07  2397   0.128E-03    0.762E-04
RMM:  12    -0.413182703100E+03    0.50652E-05   -0.29707E-07  1997   0.935E-04    0.303E-04
RMM:  13    -0.413182700723E+03    0.23771E-05   -0.14404E-07  1330   0.708E-04    0.172E-04
RMM:  14    -0.413182696644E+03    0.40789E-05   -0.11096E-07  1265   0.685E-04    0.101E-04
RMM:  15    -0.413182692459E+03    0.41857E-05   -0.96696E-08  1351   0.674E-04    0.101E-04
RMM:  16    -0.413182690178E+03    0.22812E-05   -0.61737E-08  1132   0.597E-04    0.589E-05
RMM:  17    -0.413182686416E+03    0.37617E-05   -0.71660E-08  1253   0.610E-04    0.439E-05
RMM:  18    -0.413182686021E+03    0.39488E-06   -0.24878E-08   769   0.512E-04
   29 T=    64. E= -.41286663E+03 F= -.41318269E+03 E0= -.41316109E+03  EK= 0.31606E+00 SP= 0.00E+00 SK= 0.00E+00
       N       E                     dE             d eps       ncg     rms          rms(c)
RMM:   1    -0.413175699687E+03    0.69867E-02   -0.11363E+01  4288   0.830E-01    0.909E-01
RMM:   2    -0.413186084363E+03   -0.10385E-01   -0.14143E-01  4271   0.110E-01    0.648E-01
RMM:   3    -0.413184594516E+03    0.14898E-02   -0.73798E-03  4444   0.454E-02    0.158E-01
RMM:   4    -0.413192847058E+03   -0.82525E-02   -0.87615E-03  5158   0.801E-02    0.383E-01
RMM:   5    -0.413184508113E+03    0.83389E-02   -0.41960E-03  4829   0.627E-02    0.281E-02
RMM:   6    -0.413184525651E+03   -0.17538E-04   -0.66600E-04  5838   0.243E-02    0.189E-02
RMM:   7    -0.413184522650E+03    0.30006E-05   -0.12386E-04  5442   0.108E-02    0.108E-02
RMM:   8    -0.413184512132E+03    0.10518E-04   -0.17052E-05  4096   0.484E-03    0.455E-03
RMM:   9    -0.413184509260E+03    0.28719E-05   -0.31377E-06  2770   0.240E-03    0.347E-03
RMM:  10    -0.413184505627E+03    0.36331E-05   -0.80142E-07  2480   0.154E-03    0.212E-03
RMM:  11    -0.413184500841E+03    0.47859E-05   -0.62495E-07  2433   0.130E-03    0.984E-04
RMM:  12    -0.413184497064E+03    0.37772E-05   -0.35352E-07  2098   0.983E-04    0.384E-04
RMM:  13    -0.413184495548E+03    0.15160E-05   -0.15016E-07  1367   0.716E-04    0.191E-04
RMM:  14    -0.413184493486E+03    0.20624E-05   -0.99847E-08  1147   0.661E-04    0.101E-04
RMM:  15    -0.413184490328E+03    0.31575E-05   -0.91833E-08  1239   0.665E-04    0.103E-04
RMM:  16    -0.413184489526E+03    0.80219E-06   -0.45077E-08   910   0.587E-04
   30 T=    65. E= -.41286652E+03 F= -.41318449E+03 E0= -.41316294E+03  EK= 0.31797E+00 SP= 0.00E+00 SK= 0.00E+00
       N       E                     dE             d eps       ncg     rms          rms(c)
RMM:   1    -0.413179004660E+03    0.54857E-02   -0.11514E+01  4291   0.882E-01    0.910E-01
RMM:   2    -0.413188611672E+03   -0.96070E-02   -0.14776E-01  4274   0.121E-01    0.662E-01
RMM:   3    -0.413186174604E+03    0.24371E-02   -0.73397E-03  4332   0.434E-02    0.155E-01
RMM:   4    -0.413189529780E+03   -0.33552E-02   -0.41274E-03  5138   0.545E-02    0.244E-01
RMM:   5    -0.413186178679E+03    0.33511E-02   -0.16662E-03  4819   0.401E-02    0.252E-02
RMM:   6    -0.413186178741E+03   -0.62108E-07   -0.30239E-04  5739   0.171E-02    0.185E-02
RMM:   7    -0.413186173884E+03    0.48575E-05   -0.91342E-05  5154   0.940E-03    0.790E-03
RMM:   8    -0.413186168820E+03    0.50634E-05   -0.83925E-06  3375   0.370E-03    0.394E-03
RMM:   9    -0.413186167679E+03    0.11414E-05   -0.11411E-06  2531   0.179E-03    0.260E-03
RMM:  10    -0.413186164597E+03    0.30819E-05   -0.80072E-07  2453   0.138E-03    0.127E-03
RMM:  11    -0.413186162279E+03    0.23186E-05   -0.40954E-07  2128   0.102E-03    0.547E-04
RMM:  12    -0.413186160180E+03    0.20982E-05   -0.22708E-07  1596   0.809E-04    0.224E-04
RMM:  13    -0.413186158825E+03    0.13551E-05   -0.12356E-07  1178   0.682E-04    0.142E-04
RMM:  14    -0.413186156998E+03    0.18273E-05   -0.97175E-08  1176   0.658E-04    0.917E-05
RMM:  15    -0.413186154751E+03    0.22475E-05   -0.89821E-08  1245   0.645E-04    0.625E-05
RMM:  16    -0.413186153778E+03    0.97277E-06   -0.46210E-08   929   0.568E-04
   31 T=    65. E= -.41286619E+03 F= -.41318615E+03 E0= -.41316466E+03  EK= 0.31996E+00 SP= 0.00E+00 SK= 0.00E+00
       N       E                     dE             d eps       ncg     rms          rms(c)
RMM:   1    -0.413182747376E+03    0.34074E-02   -0.11610E+01  4292   0.892E-01    0.937E-01
RMM:   2    -0.413190358227E+03   -0.76109E-02   -0.14722E-01  4277   0.123E-01    0.657E-01
RMM:   3    -0.413188871134E+03    0.14871E-02   -0.78099E-03  4266   0.496E-02    0.164E-01
RMM:   4    -0.413190889908E+03   -0.20188E-02   -0.28281E-03  5089   0.468E-02    0.187E-01
RMM:   5    -0.413188931176E+03    0.19587E-02   -0.96018E-04  4794   0.311E-02    0.273E-02
RMM:   6    -0.413188924181E+03    0.69952E-05   -0.22065E-04  5645   0.152E-02    0.202E-02
RMM:   7    -0.413188905951E+03    0.18230E-04   -0.90967E-05  4976   0.950E-03    0.766E-03
RMM:   8    -0.413188900445E+03    0.55061E-05   -0.67319E-06  3247   0.348E-03    0.391E-03
RMM:   9    -0.413188898071E+03    0.23741E-05   -0.91892E-07  2485   0.170E-03    0.239E-03
RMM:  10    -0.413188889365E+03    0.87057E-05   -0.78195E-07  2430   0.138E-03    0.108E-03
RMM:  11    -0.413188885575E+03    0.37895E-05   -0.28877E-07  1946   0.906E-04    0.469E-04
RMM:  12    -0.413188880828E+03    0.47474E-05   -0.18725E-07  1570   0.780E-04    0.207E-04
RMM:  13    -0.413188877573E+03    0.32555E-05   -0.98791E-08  1143   0.662E-04    0.119E-04
RMM:  14    -0.413188873129E+03    0.44436E-05   -0.92808E-08  1287   0.665E-04    0.944E-05
RMM:  15    -0.413188869102E+03    0.40269E-05   -0.73427E-08  1218   0.621E-04    0.696E-05
RMM:  16    -0.413188866457E+03    0.26449E-05   -0.49542E-08  1013   0.568E-04    0.496E-05
RMM:  17    -0.413188864979E+03    0.14779E-05   -0.31449E-08   841   0.529E-04    0.253E-05
RMM:  18    -0.413188863921E+03    0.10583E-05   -0.20328E-08   736   0.514E-04    0.149E-05
RMM:  19    -0.413188863658E+03    0.26261E-06   -0.11563E-08   624   0.495E-04
   32 T=    66. E= -.41286660E+03 F= -.41318886E+03 E0= -.41316741E+03  EK= 0.32226E+00 SP= 0.00E+00 SK= 0.00E+00
       N       E                     dE             d eps       ncg     rms          rms(c)
RMM:   1    -0.413190996180E+03   -0.21323E-02   -0.11641E+01  4289   0.937E-01    0.924E-01
RMM:   2    -0.413192589085E+03   -0.15929E-02   -0.15012E-01  4282   0.132E-01    0.654E-01
RMM:   3    -0.413190753244E+03    0.18358E-02   -0.74423E-03  4196   0.421E-02    0.166E-01
RMM:   4    -0.413191069021E+03   -0.31578E-03   -0.13596E-03  4970   0.290E-02    0.765E-02
RMM:   5    -0.413190777837E+03    0.29118E-03   -0.17939E-04  4702   0.139E-02    0.273E-02
RMM:   6    -0.413190765186E+03    0.12651E-04   -0.10601E-04  5303   0.108E-02    0.198E-02
RMM:   7    -0.413190745273E+03    0.19913E-04   -0.76621E-05  4602   0.819E-03    0.799E-03
RMM:   8    -0.413190742116E+03    0.31571E-05   -0.45546E-06  2925   0.311E-03    0.375E-03
RMM:   9    -0.413190740539E+03    0.15770E-05   -0.98597E-07  2322   0.157E-03    0.191E-03
RMM:  10    -0.413190732581E+03    0.79578E-05   -0.54690E-07  2038   0.112E-03    0.688E-04
RMM:  11    -0.413190728231E+03    0.43506E-05   -0.20620E-07  1585   0.768E-04    0.283E-04
RMM:  12    -0.413190724324E+03    0.39064E-05   -0.11186E-07  1225   0.669E-04    0.166E-04
RMM:  13    -0.413190720447E+03    0.38777E-05   -0.67117E-08   945   0.617E-04    0.888E-05
RMM:  14    -0.413190716382E+03    0.40648E-05   -0.57541E-08   997   0.603E-04    0.809E-05
RMM:  15    -0.413190712633E+03    0.37493E-05   -0.42818E-08   920   0.568E-04    0.674E-05
RMM:  16    -0.413190710324E+03    0.23087E-05   -0.29002E-08   791   0.525E-04    0.439E-05
RMM:  17    -0.413190709627E+03    0.69682E-06   -0.93534E-09   511   0.480E-04
   33 T=    66. E= -.41286640E+03 F= -.41319071E+03 E0= -.41316931E+03  EK= 0.32431E+00 SP= 0.00E+00 SK= 0.00E+00
       N       E                     dE             d eps       ncg     rms          rms(c)
RMM:   1    -0.413186203467E+03    0.45069E-02   -0.11677E+01  4293   0.929E-01    0.915E-01
RMM:   2    -0.413195229762E+03   -0.90263E-02   -0.15304E-01  4279   0.131E-01    0.667E-01
RMM:   3    -0.413193274800E+03    0.19550E-02   -0.74541E-03  4378   0.494E-02    0.161E-01
RMM:   4    -0.413197905890E+03   -0.46311E-02   -0.53180E-03  5140   0.646E-02    0.287E-01
RMM:   5    -0.413193293971E+03    0.46119E-02   -0.22442E-03  4798   0.472E-02    0.275E-02
RMM:   6    -0.413193281966E+03    0.12005E-04   -0.39553E-04  5732   0.203E-02    0.197E-02
RMM:   7    -0.413193278956E+03    0.30096E-05   -0.10633E-04  5204   0.101E-02    0.889E-03
RMM:   8    -0.413193272857E+03    0.60992E-05   -0.12914E-05  3914   0.435E-03    0.432E-03
RMM:   9    -0.413193271579E+03    0.12784E-05   -0.16781E-06  2598   0.200E-03    0.269E-03
RMM:  10    -0.413193268584E+03    0.29950E-05   -0.73932E-07  2450   0.140E-03    0.142E-03
RMM:  11    -0.413193265175E+03    0.34086E-05   -0.49153E-07  2223   0.110E-03    0.611E-04
RMM:  12    -0.413193262678E+03    0.24973E-05   -0.26058E-07  1760   0.848E-04    0.266E-04
RMM:  13    -0.413193261160E+03    0.15181E-05   -0.13219E-07  1168   0.684E-04    0.147E-04
RMM:  14    -0.413193259547E+03    0.16126E-05   -0.93810E-08  1081   0.648E-04    0.956E-05
RMM:  15    -0.413193256730E+03    0.28171E-05   -0.94715E-08  1232   0.660E-04    0.627E-05
RMM:  16    -0.413193256035E+03    0.69513E-06   -0.46955E-08   933   0.578E-04
   34 T=    67. E= -.41286660E+03 F= -.41319326E+03 E0= -.41317190E+03  EK= 0.32665E+00 SP= 0.00E+00 SK= 0.00E+00
       N       E                     dE             d eps       ncg     rms          rms(c)
RMM:   1    -0.413187743405E+03    0.55133E-02   -0.11769E+01  4300   0.920E-01    0.941E-01
RMM:   2    -0.413197809551E+03   -0.10066E-01   -0.15141E-01  4267   0.132E-01    0.667E-01
RMM:   3    -0.413196118987E+03    0.16906E-02   -0.77385E-03  4415   0.477E-02    0.166E-01
RMM:   4    -0.413201028489E+03   -0.49095E-02   -0.56451E-03  5160   0.640E-02    0.299E-01
RMM:   5    -0.413196051263E+03    0.49772E-02   -0.25056E-03  4816   0.494E-02    0.295E-02
RMM:   6    -0.413196038311E+03    0.12952E-04   -0.45932E-04  5732   0.212E-02    0.212E-02
RMM:   7    -0.413196029386E+03    0.89252E-05   -0.11771E-04  5257   0.104E-02    0.920E-03
RMM:   8    -0.413196021115E+03    0.82706E-05   -0.14272E-05  3961   0.440E-03    0.446E-03
RMM:   9    -0.413196018333E+03    0.27819E-05   -0.18307E-06  2621   0.203E-03    0.277E-03
RMM:  10    -0.413196012325E+03    0.60086E-05   -0.72288E-07  2460   0.140E-03    0.147E-03
RMM:  11    -0.413196005828E+03    0.64967E-05   -0.47117E-07  2274   0.111E-03    0.649E-04
RMM:  12    -0.413196000981E+03    0.48465E-05   -0.24916E-07  1818   0.855E-04    0.273E-04
RMM:  13    -0.413195998427E+03    0.25545E-05   -0.12604E-07  1182   0.685E-04    0.151E-04
RMM:  14    -0.413195995352E+03    0.30751E-05   -0.87191E-08  1096   0.649E-04    0.103E-04
RMM:  15    -0.413195989685E+03    0.56670E-05   -0.94466E-08  1343   0.675E-04    0.797E-05
RMM:  16    -0.413195988387E+03    0.12975E-05   -0.46239E-08   962   0.573E-04    0.699E-05
RMM:  17    -0.413195985243E+03    0.31445E-05   -0.46021E-08  1089   0.584E-04    0.355E-05
RMM:  18    -0.413195984099E+03    0.11434E-05   -0.26783E-08   833   0.530E-04    0.206E-05
RMM:  19    -0.413195983803E+03    0.29592E-06   -0.12566E-08   668   0.506E-04
   35 T=    67. E= -.41286684E+03 F= -.41319598E+03 E0= -.41317468E+03  EK= 0.32914E+00 SP= 0.00E+00 SK= 0.00E+00
       N       E                     dE             d eps       ncg     rms          rms(c)
RMM:   1    -0.413197988273E+03   -0.20042E-02   -0.11856E+01  4298   0.989E-01    0.940E-01
RMM:   2    -0.413199676327E+03   -0.16881E-02   -0.15532E-01  4262   0.127E-01    0.661E-01
RMM:   3    -0.413198363957E+03    0.13124E-02   -0.79907E-03  4775   0.485E-02    0.188E-01
RMM:   4    -0.413230504313E+03   -0.32140E-01   -0.32609E-02  5158   0.151E-01    0.747E-01
RMM:   5    -0.413197998076E+03    0.32506E-01   -0.16395E-02  4800   0.125E-01    0.424E-02
RMM:   6    -0.413198056360E+03   -0.58285E-04   -0.26360E-03  5859   0.480E-02    0.245E-02
RMM:   7    -0.413198064456E+03   -0.80952E-05   -0.28181E-04  5740   0.149E-02    0.142E-02
RMM:   8    -0.413198055777E+03    0.86790E-05   -0.46120E-05  4916   0.668E-03    0.893E-03
RMM:   9    -0.413198051448E+03    0.43288E-05   -0.16825E-05  4278   0.444E-03    0.633E-03
RMM:  10    -0.413198043952E+03    0.74956E-05   -0.24521E-06  2603   0.248E-03    0.360E-03
RMM:  11    -0.413198038359E+03    0.55935E-05   -0.14978E-06  2508   0.193E-03    0.208E-03
RMM:  12    -0.413198028151E+03    0.10208E-04   -0.12039E-06  2484   0.188E-03    0.828E-04
RMM:  13    -0.413198024919E+03    0.32315E-05   -0.42136E-07  2303   0.119E-03    0.569E-04
RMM:  14    -0.413198024438E+03    0.48130E-06   -0.17455E-07  1687   0.785E-04
   36 T=    67. E= -.41286654E+03 F= -.41319802E+03 E0= -.41317676E+03  EK= 0.33148E+00 SP= 0.00E+00 SK= 0.00E+00
       N       E                     dE             d eps       ncg     rms          rms(c)
RMM:   1    -0.413196430146E+03    0.15948E-02   -0.11872E+01  4305   0.100E+00    0.923E-01
RMM:   2    -0.413203479023E+03   -0.70489E-02   -0.15860E-01  4261   0.134E-01    0.672E-01
RMM:   3    -0.413201482830E+03    0.19962E-02   -0.77095E-03  4712   0.526E-02    0.182E-01
RMM:   4    -0.413232355825E+03   -0.30873E-01   -0.31307E-02  5162   0.148E-01    0.733E-01
RMM:   5    -0.413201093033E+03    0.31263E-01   -0.15817E-02  4802   0.122E-01    0.412E-02
RMM:   6    -0.413201144890E+03   -0.51857E-04   -0.25151E-03  5864   0.469E-02    0.235E-02
RMM:   7    -0.413201156636E+03   -0.11745E-04   -0.27950E-04  5790   0.147E-02    0.142E-02
RMM:   8    -0.413201149971E+03    0.66647E-05   -0.49521E-05  4976   0.694E-03    0.899E-03
RMM:   9    -0.413201146901E+03    0.30704E-05   -0.15871E-05  4215   0.443E-03    0.564E-03
RMM:  10    -0.413201141851E+03    0.50497E-05   -0.23718E-06  2597   0.236E-03    0.332E-03
RMM:  11    -0.413201137881E+03    0.39695E-05   -0.13662E-06  2499   0.186E-03    0.185E-03
RMM:  12    -0.413201131438E+03    0.64429E-05   -0.10574E-06  2477   0.171E-03    0.716E-04
RMM:  13    -0.413201129329E+03    0.21090E-05   -0.38190E-07  2240   0.111E-03    0.491E-04
RMM:  14    -0.413201128845E+03    0.48452E-06   -0.16521E-07  1548   0.756E-04
   37 T=    68. E= -.41286685E+03 F= -.41320113E+03 E0= -.41317991E+03  EK= 0.33428E+00 SP= 0.00E+00 SK= 0.00E+00
       N       E                     dE             d eps       ncg     rms          rms(c)
RMM:   1    -0.413196237744E+03    0.48916E-02   -0.11981E+01  4307   0.101E+00    0.944E-01
RMM:   2    -0.413206081107E+03   -0.98434E-02   -0.15742E-01  4260   0.128E-01    0.676E-01
RMM:   3    -0.413203902250E+03    0.21789E-02   -0.80726E-03  4742   0.519E-02    0.185E-01
RMM:   4    -0.413236192552E+03   -0.32290E-01   -0.32765E-02  5153   0.151E-01    0.749E-01
RMM:   5    -0.413203514265E+03    0.32678E-01   -0.16671E-02  4811   0.125E-01    0.420E-02
RMM:   6    -0.413203558981E+03   -0.44716E-04   -0.24919E-03  5838   0.476E-02    0.243E-02
RMM:   7    -0.413203570822E+03   -0.11841E-04   -0.30030E-04  5800   0.153E-02    0.151E-02
RMM:   8    -0.413203561749E+03    0.90734E-05   -0.54326E-05  5047   0.733E-03    0.911E-03
RMM:   9    -0.413203557145E+03    0.46043E-05   -0.14849E-05  4151   0.436E-03    0.542E-03
RMM:  10    -0.413203551183E+03    0.59617E-05   -0.23414E-06  2599   0.229E-03    0.325E-03
RMM:  11    -0.413203546073E+03    0.51094E-05   -0.12669E-06  2498   0.179E-03    0.176E-03
RMM:  12    -0.413203538103E+03    0.79702E-05   -0.94103E-07  2468   0.163E-03    0.667E-04
RMM:  13    -0.413203535263E+03    0.28400E-05   -0.36535E-07  2202   0.108E-03    0.473E-04
RMM:  14    -0.413203534544E+03    0.71878E-06   -0.16679E-07  1569   0.756E-04
   38 T=    69. E= -.41286671E+03 F= -.41320353E+03 E0= -.41318235E+03  EK= 0.33683E+00 SP= 0.00E+00 SK= 0.00E+00
       N       E                     dE             d eps       ncg     rms          rms(c)
RMM:   1    -0.413205485512E+03   -0.19502E-02   -0.12085E+01  4305   0.109E+00    0.957E-01
RMM:   2    -0.413207840952E+03   -0.23554E-02   -0.16148E-01  4269   0.126E-01    0.670E-01
RMM:   3    -0.413206745625E+03    0.10953E-02   -0.86204E-03  4985   0.538E-02    0.218E-01
RMM:   4    -0.413256879455E+03   -0.50134E-01   -0.53898E-02  5138   0.193E-01    0.929E-01
RMM:   5    -0.413205711899E+03    0.51168E-01   -0.25481E-02  4790   0.156E-01    0.520E-02
RMM:   6    -0.413205844791E+03   -0.13289E-03   -0.40036E-03  5827   0.595E-02    0.276E-02
RMM:   7    -0.413205860257E+03   -0.15466E-04   -0.42074E-04  5793   0.178E-02    0.166E-02
RMM:   8    -0.413205854223E+03    0.60336E-05   -0.61426E-05  5011   0.716E-03    0.981E-03
RMM:   9    -0.413205844977E+03    0.92460E-05   -0.21766E-05  4473   0.481E-03    0.654E-03
RMM:  10    -0.413205838275E+03    0.67028E-05   -0.47649E-06  2883   0.295E-03    0.359E-03
RMM:  11    -0.413205831588E+03    0.66870E-05   -0.17938E-06  2530   0.213E-03    0.212E-03
RMM:  12    -0.413205820875E+03    0.10713E-04   -0.10377E-06  2478   0.178E-03    0.628E-04
RMM:  13    -0.413205816806E+03    0.40686E-05   -0.43451E-07  2311   0.118E-03    0.482E-04
RMM:  14    -0.413205814962E+03    0.18442E-05   -0.19291E-07  1831   0.821E-04    0.313E-04
RMM:  15    -0.413205808566E+03    0.63955E-05   -0.12652E-07  1534   0.734E-04    0.202E-04
RMM:  16    -0.413205806828E+03    0.17381E-05   -0.61366E-08  1040   0.605E-04    0.110E-04
RMM:  17    -0.413205803151E+03    0.36774E-05   -0.54239E-08  1088   0.614E-04    0.816E-05
RMM:  18    -0.413205798955E+03    0.41958E-05   -0.53936E-08  1227   0.627E-04    0.595E-05
RMM:  19    -0.413205797660E+03    0.12951E-05   -0.28009E-08   930   0.557E-04    0.424E-05
RMM:  20    -0.413205797153E+03    0.50638E-06   -0.16692E-08   793   0.530E-04
   39 T=    69. E= -.41286648E+03 F= -.41320580E+03 E0= -.41318465E+03  EK= 0.33931E+00 SP= 0.00E+00 SK= 0.00E+00
       N       E                     dE             d eps       ncg     rms          rms(c)
RMM:   1    -0.413203261479E+03    0.25362E-02   -0.12041E+01  4311   0.110E+00    0.934E-01
RMM:   2    -0.413211380777E+03   -0.81193E-02   -0.16191E-01  4266   0.130E-01    0.676E-01
RMM:   3    -0.413210153608E+03    0.12272E-02   -0.86408E-03  5009   0.570E-02    0.232E-01
RMM:   4    -0.413263550362E+03   -0.53397E-01   -0.59738E-02  5131   0.203E-01    0.960E-01
RMM:   5    -0.413208671629E+03    0.54879E-01   -0.26923E-02  4780   0.162E-01    0.539E-02
RMM:   6    -0.413208824183E+03   -0.15255E-03   -0.42629E-03  5812   0.613E-02    0.275E-02
RMM:   7    -0.413208843802E+03   -0.19619E-04   -0.47393E-04  5890   0.187E-02    0.183E-02
RMM:   8    -0.413208844405E+03   -0.60349E-06   -0.88805E-05  5233   0.872E-03    0.122E-02
RMM:   9    -0.413208833689E+03    0.10716E-04   -0.21714E-05  4479   0.518E-03    0.608E-03
RMM:  10    -0.413208828945E+03    0.47447E-05   -0.44541E-06  2753   0.283E-03    0.345E-03
RMM:  11    -0.413208825203E+03    0.37413E-05   -0.16058E-06  2506   0.204E-03    0.198E-03
RMM:  12    -0.413208819573E+03    0.56308E-05   -0.95283E-07  2475   0.168E-03    0.661E-04
RMM:  13    -0.413208816865E+03    0.27078E-05   -0.43277E-07  2294   0.116E-03    0.388E-04
RMM:  14    -0.413208815208E+03    0.16565E-05   -0.21136E-07  1820   0.828E-04    0.259E-04
RMM:  15    -0.413208811101E+03    0.41078E-05   -0.14332E-07  1462   0.733E-04    0.189E-04
RMM:  16    -0.413208810175E+03    0.92539E-06   -0.73631E-08  1051   0.619E-04
   40 T=    70. E= -.41286679E+03 F= -.41320881E+03 E0= -.41318770E+03  EK= 0.34202E+00 SP= 0.00E+00 SK= 0.00E+00
       N       E                     dE             d eps       ncg     rms          rms(c)
RMM:   1    -0.413226393200E+03   -0.17582E-01   -0.12396E+01  4309   0.127E+00    0.947E-01
RMM:   2    -0.413213094789E+03    0.13298E-01   -0.17380E-01  4272   0.141E-01    0.687E-01
RMM:   3    -0.413212468704E+03    0.62608E-03   -0.92262E-03  5049   0.613E-02    0.260E-01
RMM:   4    -0.413266660339E+03   -0.54192E-01   -0.63408E-02  5124   0.209E-01    0.972E-01
RMM:   5    -0.413210428271E+03    0.56232E-01   -0.27148E-02  4773   0.164E-01    0.566E-02
RMM:   6    -0.413210579963E+03   -0.15169E-03   -0.43341E-03  5799   0.621E-02    0.276E-02
RMM:   7    -0.413210601006E+03   -0.21043E-04   -0.49521E-04  5900   0.191E-02    0.193E-02
RMM:   8    -0.413210600789E+03    0.21717E-06   -0.95429E-05  5264   0.915E-03    0.123E-02
RMM:   9    -0.413210589275E+03    0.11514E-04   -0.20478E-05  4395   0.520E-03    0.545E-03
RMM:  10    -0.413210584548E+03    0.47264E-05   -0.48228E-06  2808   0.282E-03    0.318E-03
RMM:  11    -0.413210580729E+03    0.38196E-05   -0.14580E-06  2504   0.195E-03    0.178E-03
RMM:  12    -0.413210575337E+03    0.53922E-05   -0.81185E-07  2461   0.155E-03    0.637E-04
RMM:  13    -0.413210572391E+03    0.29451E-05   -0.38788E-07  2232   0.108E-03    0.319E-04
RMM:  14    -0.413210569989E+03    0.24020E-05   -0.20326E-07  1689   0.807E-04    0.208E-04
RMM:  15    -0.413210566182E+03    0.38071E-05   -0.13473E-07  1335   0.711E-04    0.118E-04
RMM:  16    -0.413210564730E+03    0.14521E-05   -0.82246E-08  1127   0.642E-04    0.687E-05
RMM:  17    -0.413210562565E+03    0.21656E-05   -0.65149E-08  1102   0.629E-04    0.560E-05
RMM:  18    -0.413210559757E+03    0.28077E-05   -0.56852E-08  1112   0.625E-04    0.335E-05
RMM:  19    -0.413210558769E+03    0.98804E-06   -0.34315E-08   938   0.581E-04
   41 T=    70. E= -.41286633E+03 F= -.41321056E+03 E0= -.41318949E+03  EK= 0.34422E+00 SP= 0.00E+00 SK= 0.00E+00
       N       E                     dE             d eps       ncg     rms          rms(c)
RMM:   1    -0.413238881639E+03   -0.28322E-01   -0.12545E+01  4311   0.133E+00    0.972E-01
RMM:   2    -0.413214916874E+03    0.23965E-01   -0.18104E-01  4285   0.146E-01    0.681E-01
RMM:   3    -0.413216912802E+03   -0.19959E-02   -0.11274E-02  5124   0.737E-02    0.331E-01
RMM:   4    -0.413252626642E+03   -0.35714E-01   -0.52269E-02  5093   0.192E-01    0.827E-01
RMM:   5    -0.413213036955E+03    0.39590E-01   -0.17934E-02  4734   0.138E-01    0.555E-02
RMM:   6    -0.413213085144E+03   -0.48189E-04   -0.29626E-03  5745   0.520E-02    0.272E-02
RMM:   7    -0.413213093753E+03   -0.86082E-05   -0.37739E-04  5857   0.172E-02    0.193E-02
RMM:   8    -0.413213088865E+03    0.48871E-05   -0.85186E-05  5175   0.900E-03    0.108E-02
RMM:   9    -0.413213074518E+03    0.14348E-04   -0.17314E-05  4186   0.506E-03    0.413E-03
RMM:  10    -0.413213068655E+03    0.58623E-05   -0.35804E-06  2720   0.246E-03    0.247E-03
RMM:  11    -0.413213061924E+03    0.67312E-05   -0.12042E-06  2502   0.176E-03    0.130E-03
RMM:  12    -0.413213055108E+03    0.68159E-05   -0.56213E-07  2396   0.131E-03    0.547E-04
RMM:  13    -0.413213050855E+03    0.42536E-05   -0.28942E-07  1870   0.920E-04    0.248E-04
RMM:  14    -0.413213046995E+03    0.38597E-05   -0.17261E-07  1419   0.759E-04    0.143E-04
RMM:  15    -0.413213040693E+03    0.63019E-05   -0.14232E-07  1421   0.735E-04    0.111E-04
RMM:  16    -0.413213038860E+03    0.18329E-05   -0.88938E-08  1210   0.650E-04    0.770E-05
RMM:  17    -0.413213034487E+03    0.43726E-05   -0.83996E-08  1361   0.656E-04    0.608E-05
RMM:  18    -0.413213032078E+03    0.24098E-05   -0.52616E-08  1079   0.585E-04    0.423E-05
RMM:  19    -0.413213031548E+03    0.53013E-06   -0.30865E-08   851   0.539E-04
   42 T=    71. E= -.41286650E+03 F= -.41321303E+03 E0= -.41319199E+03  EK= 0.34654E+00 SP= 0.00E+00 SK= 0.00E+00
       N       E                     dE             d eps       ncg     rms          rms(c)
RMM:   1    -0.413214948942E+03   -0.19169E-02   -0.12235E+01  4312   0.130E+00    0.946E-01
RMM:   2    -0.413216909735E+03   -0.19608E-02   -0.16859E-01  4290   0.150E-01    0.680E-01
RMM:   3    -0.413220020229E+03   -0.31105E-02   -0.12137E-02  5109   0.816E-02    0.354E-01
RMM:   4    -0.413250124643E+03   -0.30104E-01   -0.49823E-02  5065   0.188E-01    0.779E-01
RMM:   5    -0.413215019782E+03    0.35105E-01   -0.15267E-02  4709   0.130E-01    0.534E-02
RMM:   6    -0.413215047002E+03   -0.27220E-04   -0.25884E-03  5731   0.484E-02    0.262E-02
RMM:   7    -0.413215052998E+03   -0.59965E-05   -0.32746E-04  5825   0.164E-02    0.186E-02
RMM:   8    -0.413215049422E+03    0.35769E-05   -0.78302E-05  5142   0.872E-03    0.101E-02
RMM:   9    -0.413215037803E+03    0.11619E-04   -0.16291E-05  4138   0.494E-03    0.386E-03
RMM:  10    -0.413215033749E+03    0.40532E-05   -0.31800E-06  2692   0.235E-03    0.229E-03
RMM:  11    -0.413215028596E+03    0.51530E-05   -0.12121E-06  2501   0.174E-03    0.123E-03
RMM:  12    -0.413215023792E+03    0.48044E-05   -0.54866E-07  2385   0.128E-03    0.529E-04
RMM:  13    -0.413215020728E+03    0.30636E-05   -0.28044E-07  1767   0.893E-04    0.240E-04
RMM:  14    -0.413215017794E+03    0.29339E-05   -0.17213E-07  1372   0.746E-04    0.132E-04
RMM:  15    -0.413215013016E+03    0.47789E-05   -0.14479E-07  1334   0.721E-04    0.991E-05
RMM:  16    -0.413215011406E+03    0.16099E-05   -0.87587E-08  1123   0.648E-04    0.722E-05
RMM:  17    -0.413215008130E+03    0.32756E-05   -0.83246E-08  1324   0.654E-04    0.600E-05
RMM:  18    -0.413215005995E+03    0.21353E-05   -0.56853E-08  1124   0.593E-04    0.431E-05
RMM:  19    -0.413215005241E+03    0.75329E-06   -0.30407E-08   825   0.539E-04
   43 T=    71. E= -.41286654E+03 F= -.41321501E+03 E0= -.41319399E+03  EK= 0.34847E+00 SP= 0.00E+00 SK= 0.00E+00
       N       E                     dE             d eps       ncg     rms          rms(c)
RMM:   1    -0.413253087975E+03   -0.38082E-01   -0.12717E+01  4312   0.152E+00    0.946E-01
RMM:   2    -0.413218446534E+03    0.34641E-01   -0.21021E-01  4294   0.174E-01    0.699E-01
RMM:   3    -0.413222322732E+03   -0.38762E-02   -0.12529E-02  5103   0.892E-02    0.411E-01
RMM:   4    -0.413251369988E+03   -0.29047E-01   -0.52355E-02  5055   0.194E-01    0.789E-01
RMM:   5    -0.413216100657E+03    0.35269E-01   -0.15588E-02  4694   0.134E-01    0.582E-02
RMM:   6    -0.413216108906E+03   -0.82493E-05   -0.26164E-03  5682   0.490E-02    0.271E-02
RMM:   7    -0.413216115864E+03   -0.69574E-05   -0.34447E-04  5898   0.167E-02    0.198E-02
RMM:   8    -0.413216111590E+03    0.42737E-05   -0.77152E-05  5175   0.867E-03    0.104E-02
RMM:   9    -0.413216100873E+03    0.10717E-04   -0.19109E-05  4230   0.532E-03    0.419E-03
RMM:  10    -0.413216097942E+03    0.29302E-05   -0.35124E-06  2720   0.240E-03    0.241E-03
RMM:  11    -0.413216094055E+03    0.38877E-05   -0.17509E-06  2564   0.195E-03    0.142E-03
RMM:  12    -0.413216091176E+03    0.28784E-05   -0.57498E-07  2449   0.136E-03    0.652E-04
RMM:  13    -0.413216088672E+03    0.25048E-05   -0.31021E-07  1714   0.910E-04    0.307E-04
RMM:  14    -0.413216086298E+03    0.23740E-05   -0.20062E-07  1429   0.776E-04    0.157E-04
RMM:  15    -0.413216083641E+03    0.26569E-05   -0.14785E-07  1341   0.717E-04    0.913E-05
RMM:  16    -0.413216081536E+03    0.21044E-05   -0.10522E-07  1228   0.665E-04    0.586E-05
RMM:  17    -0.413216079632E+03    0.19041E-05   -0.80384E-08  1190   0.629E-04    0.500E-05
RMM:  18    -0.413216077495E+03    0.21376E-05   -0.61718E-08  1090   0.596E-04    0.362E-05
RMM:  19    -0.413216076841E+03    0.65388E-06   -0.35226E-08   868   0.548E-04
   44 T=    71. E= -.41286627E+03 F= -.41321608E+03 E0= -.41319509E+03  EK= 0.34981E+00 SP= 0.00E+00 SK= 0.00E+00
       N       E                     dE             d eps       ncg     rms          rms(c)
RMM:   1    -0.413236542444E+03   -0.20465E-01   -0.12558E+01  4310   0.153E+00    0.977E-01
RMM:   2    -0.413219224219E+03    0.17318E-01   -0.17320E-01  4344   0.175E-01    0.688E-01
RMM:   3    -0.413230350774E+03   -0.11127E-01   -0.19638E-02  5142   0.116E-01    0.514E-01
RMM:   4    -0.413234724430E+03   -0.43737E-02   -0.39543E-02  5013   0.173E-01    0.558E-01
RMM:   5    -0.413217800441E+03    0.16924E-01   -0.62981E-03  4585   0.959E-02    0.486E-02
RMM:   6    -0.413217758223E+03    0.42217E-04   -0.12011E-03  5407   0.338E-02    0.246E-02
RMM:   7    -0.413217754351E+03    0.38719E-05   -0.16723E-04  5614   0.127E-02    0.170E-02
RMM:   8    -0.413217746146E+03    0.82052E-05   -0.77183E-05  5087   0.892E-03    0.875E-03
RMM:   9    -0.413217731630E+03    0.14516E-04   -0.13631E-05  4064   0.493E-03    0.354E-03
RMM:  10    -0.413217727857E+03    0.37727E-05   -0.21510E-06  2625   0.208E-03    0.199E-03
RMM:  11    -0.413217720466E+03    0.73913E-05   -0.11197E-06  2492   0.168E-03    0.115E-03
RMM:  12    -0.413217715051E+03    0.54147E-05   -0.46512E-07  2380   0.121E-03    0.575E-04
RMM:  13    -0.413217711122E+03    0.39288E-05   -0.21972E-07  1635   0.815E-04    0.276E-04
RMM:  14    -0.413217707366E+03    0.37563E-05   -0.12603E-07  1208   0.677E-04    0.143E-04
RMM:  15    -0.413217701902E+03    0.54642E-05   -0.11014E-07  1239   0.677E-04    0.118E-04
RMM:  16    -0.413217699351E+03    0.25511E-05   -0.68948E-08  1082   0.611E-04    0.109E-04
RMM:  17    -0.413217696465E+03    0.28855E-05   -0.54063E-08  1069   0.591E-04    0.570E-05
RMM:  18    -0.413217692626E+03    0.38395E-05   -0.56974E-08  1182   0.605E-04    0.530E-05
RMM:  19    -0.413217692241E+03    0.38516E-06   -0.20442E-08   709   0.507E-04
   45 T=    71. E= -.41286667E+03 F= -.41321769E+03 E0= -.41319672E+03  EK= 0.35102E+00 SP= 0.00E+00 SK= 0.00E+00
       N       E                     dE             d eps       ncg     rms          rms(c)
RMM:   1    -0.413232020853E+03   -0.14328E-01   -0.12398E+01  4308   0.159E+00    0.958E-01
RMM:   2    -0.413219330595E+03    0.12690E-01   -0.18002E-01  4370   0.186E-01    0.685E-01
RMM:   3    -0.413232968815E+03   -0.13638E-01   -0.21555E-02  5133   0.125E-01    0.563E-01
RMM:   4    -0.413232290747E+03    0.67807E-03   -0.39009E-02  5003   0.173E-01    0.523E-01
RMM:   5    -0.413217851268E+03    0.14439E-01   -0.55245E-03  4563   0.928E-02    0.491E-02
RMM:   6    -0.413217785719E+03    0.65549E-04   -0.93455E-04  5195   0.311E-02    0.242E-02
RMM:   7    -0.413217780600E+03    0.51188E-05   -0.13530E-04  5669   0.113E-02    0.151E-02
RMM:   8    -0.413217778583E+03    0.20168E-05   -0.86407E-05  5195   0.925E-03    0.102E-02
RMM:   9    -0.413217762886E+03    0.15697E-04   -0.19327E-05  4413   0.559E-03    0.387E-03
RMM:  10    -0.413217760025E+03    0.28605E-05   -0.26169E-06  2658   0.225E-03    0.215E-03
RMM:  11    -0.413217754121E+03    0.59043E-05   -0.13712E-06  2484   0.186E-03    0.123E-03
RMM:  12    -0.413217749575E+03    0.45456E-05   -0.54547E-07  2376   0.133E-03    0.684E-04
RMM:  13    -0.413217745884E+03    0.36913E-05   -0.24354E-07  1679   0.885E-04    0.344E-04
RMM:  14    -0.413217742200E+03    0.36837E-05   -0.13119E-07  1339   0.710E-04    0.171E-04
RMM:  15    -0.413217737609E+03    0.45911E-05   -0.99181E-08  1155   0.654E-04    0.133E-04
RMM:  16    -0.413217735546E+03    0.20637E-05   -0.56087E-08   926   0.581E-04    0.109E-04
RMM:  17    -0.413217732395E+03    0.31508E-05   -0.51496E-08   959   0.581E-04    0.658E-05
RMM:  18    -0.413217729467E+03    0.29280E-05   -0.46451E-08   996   0.581E-04    0.472E-05
RMM:  19    -0.413217728868E+03    0.59898E-06   -0.18464E-08   667   0.515E-04
   46 T=    71. E= -.41286659E+03 F= -.41321773E+03 E0= -.41319678E+03  EK= 0.35114E+00 SP= 0.00E+00 SK= 0.00E+00
       N       E                     dE             d eps       ncg     rms          rms(c)
RMM:   1    -0.413245757217E+03   -0.28028E-01   -0.12554E+01  4310   0.172E+00    0.945E-01
RMM:   2    -0.413219235319E+03    0.26522E-01   -0.20065E-01  4370   0.206E-01    0.700E-01
RMM:   3    -0.413233045626E+03   -0.13810E-01   -0.21758E-02  5134   0.130E-01    0.586E-01
RMM:   4    -0.413232938807E+03    0.10682E-03   -0.41634E-02  4998   0.179E-01    0.550E-01
RMM:   5    -0.413217064403E+03    0.15874E-01   -0.63872E-03  4560   0.992E-02    0.525E-02
RMM:   6    -0.413216987544E+03    0.76859E-04   -0.10429E-03  5212   0.332E-02    0.253E-02
RMM:   7    -0.413216983020E+03    0.45240E-05   -0.15638E-04  5740   0.121E-02    0.171E-02
RMM:   8    -0.413216979418E+03    0.36025E-05   -0.88823E-05  5193   0.940E-03    0.103E-02
RMM:   9    -0.413216964841E+03    0.14576E-04   -0.19876E-05  4424   0.577E-03    0.406E-03
RMM:  10    -0.413216962747E+03    0.20946E-05   -0.28691E-06  2692   0.228E-03    0.225E-03
RMM:  11    -0.413216958796E+03    0.39510E-05   -0.15328E-06  2506   0.193E-03    0.137E-03
RMM:  12    -0.413216955755E+03    0.30410E-05   -0.55601E-07  2398   0.136E-03    0.725E-04
RMM:  13    -0.413216952953E+03    0.28017E-05   -0.26782E-07  1741   0.910E-04    0.336E-04
RMM:  14    -0.413216950377E+03    0.25753E-05   -0.15691E-07  1411   0.730E-04    0.177E-04
RMM:  15    -0.413216947251E+03    0.31269E-05   -0.12030E-07  1190   0.664E-04    0.118E-04
RMM:  16    -0.413216945404E+03    0.18464E-05   -0.69943E-08   960   0.593E-04    0.898E-05
RMM:  17    -0.413216943372E+03    0.20321E-05   -0.59168E-08   978   0.586E-04    0.569E-05
RMM:  18    -0.413216941522E+03    0.18500E-05   -0.47312E-08   931   0.571E-04    0.398E-05
RMM:  19    -0.413216941023E+03    0.49916E-06   -0.21189E-08   676   0.523E-04
   47 T=    71. E= -.41286665E+03 F= -.41321694E+03 E0= -.41319600E+03  EK= 0.35030E+00 SP= 0.00E+00 SK= 0.00E+00
       N       E                     dE             d eps       ncg     rms          rms(c)
RMM:   1    -0.413273115366E+03   -0.56174E-01   -0.12776E+01  4306   0.194E+00    0.970E-01
RMM:   2    -0.413217034593E+03    0.56081E-01   -0.20690E-01  4453   0.210E-01    0.695E-01
RMM:   3    -0.413240006405E+03   -0.22972E-01   -0.30045E-02  5143   0.153E-01    0.707E-01
RMM:   4    -0.413224455006E+03    0.15551E-01   -0.39037E-02  4961   0.178E-01    0.441E-01
RMM:   5    -0.413215512388E+03    0.89426E-02   -0.47630E-03  4553   0.907E-02    0.583E-02
RMM:   6    -0.413215349697E+03    0.16269E-03   -0.47943E-04  4728   0.287E-02    0.277E-02
RMM:   7    -0.413215351022E+03   -0.13253E-05   -0.18882E-04  5890   0.140E-02    0.194E-02
RMM:   8    -0.413215330678E+03    0.20344E-04   -0.70598E-05  5073   0.925E-03    0.978E-03
RMM:   9    -0.413215319387E+03    0.11291E-04   -0.14707E-05  4087   0.494E-03    0.479E-03
RMM:  10    -0.413215314729E+03    0.46578E-05   -0.22481E-06  2581   0.237E-03    0.246E-03
RMM:  11    -0.413215309058E+03    0.56713E-05   -0.16471E-06  2509   0.201E-03    0.177E-03
RMM:  12    -0.413215305181E+03    0.38775E-05   -0.50163E-07  2393   0.133E-03    0.884E-04
RMM:  13    -0.413215300649E+03    0.45320E-05   -0.25555E-07  1748   0.878E-04    0.424E-04
RMM:  14    -0.413215295564E+03    0.50848E-05   -0.20599E-07  1835   0.792E-04    0.360E-04
RMM:  15    -0.413215291435E+03    0.41288E-05   -0.11465E-07  1110   0.603E-04    0.158E-04
RMM:  16    -0.413215288387E+03    0.30484E-05   -0.80323E-08  1047   0.586E-04    0.867E-05
RMM:  17    -0.413215286088E+03    0.22991E-05   -0.57655E-08   997   0.572E-04    0.519E-05
RMM:  18    -0.413215283552E+03    0.25360E-05   -0.50257E-08  1037   0.573E-04    0.521E-05
RMM:  19    -0.413215282696E+03    0.85550E-06   -0.25546E-08   793   0.520E-04
   48 T=    71. E= -.41286704E+03 F= -.41321528E+03 E0= -.41319436E+03  EK= 0.34824E+00 SP= 0.00E+00 SK= 0.00E+00
       N       E                     dE             d eps       ncg     rms          rms(c)
RMM:   1    -0.413272205209E+03   -0.56922E-01   -0.12578E+01  4305   0.205E+00    0.960E-01
RMM:   2    -0.413212733638E+03    0.59472E-01   -0.20420E-01  4494   0.223E-01    0.684E-01
RMM:   3    -0.413242878636E+03   -0.30145E-01   -0.36547E-02  5158   0.170E-01    0.791E-01
RMM:   4    -0.413217244195E+03    0.25634E-01   -0.39053E-02  4925   0.181E-01    0.383E-01
RMM:   5    -0.413211315930E+03    0.59283E-02   -0.51686E-03  4809   0.933E-02    0.716E-02
RMM:   6    -0.413211037300E+03    0.27863E-03   -0.54373E-04  4669   0.326E-02    0.319E-02
RMM:   7    -0.413211032124E+03    0.51762E-05   -0.17477E-04  5720   0.143E-02    0.217E-02
RMM:   8    -0.413211009871E+03    0.22252E-04   -0.50342E-05  4948   0.788E-03    0.971E-03
RMM:   9    -0.413210997645E+03    0.12226E-04   -0.14340E-05  3600   0.446E-03    0.422E-03
RMM:  10    -0.413210992038E+03    0.56073E-05   -0.22413E-06  2591   0.234E-03    0.249E-03
RMM:  11    -0.413210984808E+03    0.72299E-05   -0.10179E-06  2495   0.165E-03    0.145E-03
RMM:  12    -0.413210980708E+03    0.40995E-05   -0.41200E-07  2385   0.113E-03    0.680E-04
RMM:  13    -0.413210975012E+03    0.56966E-05   -0.30882E-07  1760   0.893E-04    0.365E-04
RMM:  14    -0.413210970725E+03    0.42866E-05   -0.19576E-07  1440   0.761E-04    0.259E-04
RMM:  15    -0.413210965640E+03    0.50853E-05   -0.16651E-07  1333   0.722E-04    0.124E-04
RMM:  16    -0.413210963421E+03    0.22184E-05   -0.10071E-07  1201   0.644E-04    0.949E-05
RMM:  17    -0.413210959924E+03    0.34968E-05   -0.95621E-08  1326   0.644E-04    0.583E-05
RMM:  18    -0.413210959073E+03    0.85144E-06   -0.46459E-08   939   0.550E-04
   49 T=    70. E= -.41286673E+03 F= -.41321096E+03 E0= -.41319004E+03  EK= 0.34423E+00 SP= 0.00E+00 SK= 0.00E+00
       N       E                     dE             d eps       ncg     rms          rms(c)
RMM:   1    -0.413235831642E+03   -0.24872E-01   -0.12066E+01  4305   0.202E+00    0.928E-01
RMM:   2    -0.413208061217E+03    0.27770E-01   -0.20405E-01  4510   0.230E-01    0.690E-01
RMM:   3    -0.413237240002E+03   -0.29179E-01   -0.35515E-02  5155   0.170E-01    0.791E-01
RMM:   4    -0.413212522229E+03    0.24718E-01   -0.39808E-02  4931   0.183E-01    0.394E-01
RMM:   5    -0.413206063642E+03    0.64586E-02   -0.57420E-03  4831   0.968E-02    0.754E-02
RMM:   6    -0.413205750892E+03    0.31275E-03   -0.58164E-04  4655   0.339E-02    0.328E-02
RMM:   7    -0.413205745644E+03    0.52476E-05   -0.18012E-04  5719   0.145E-02    0.221E-02
RMM:   8    -0.413205724598E+03    0.21046E-04   -0.52742E-05  5020   0.789E-03    0.100E-02
RMM:   9    -0.413205714607E+03    0.99905E-05   -0.15545E-05  3652   0.461E-03    0.425E-03
RMM:  10    -0.413205710163E+03    0.44442E-05   -0.26041E-06  2638   0.246E-03    0.256E-03
RMM:  11    -0.413205705092E+03    0.50714E-05   -0.10317E-06  2494   0.168E-03    0.146E-03
RMM:  12    -0.413205702115E+03    0.29766E-05   -0.42414E-07  2394   0.114E-03    0.690E-04
RMM:  13    -0.413205697916E+03    0.41991E-05   -0.34784E-07  1852   0.930E-04    0.402E-04
RMM:  14    -0.413205695059E+03    0.28570E-05   -0.20525E-07  1396   0.763E-04    0.267E-04
RMM:  15    -0.413205691761E+03    0.32976E-05   -0.19040E-07  1391   0.737E-04    0.122E-04
RMM:  16    -0.413205690226E+03    0.15357E-05   -0.10899E-07  1232   0.650E-04    0.940E-05
RMM:  17    -0.413205688135E+03    0.20910E-05   -0.10552E-07  1314   0.644E-04    0.603E-05
RMM:  18    -0.413205687732E+03    0.40308E-06   -0.46761E-08   918   0.547E-04
   50 T=    69. E= -.41286708E+03 F= -.41320569E+03 E0= -.41318477E+03  EK= 0.33861E+00 SP= 0.00E+00 SK= 0.00E+00
       N       E                     dE             d eps       ncg     rms          rms(c)
RMM:   1    -0.413231531489E+03   -0.25843E-01   -0.11862E+01  4301   0.215E+00    0.938E-01
RMM:   2    -0.413199801912E+03    0.31730E-01   -0.20064E-01  4569   0.244E-01    0.685E-01
RMM:   3    -0.413239591870E+03   -0.39790E-01   -0.45726E-02  5164   0.194E-01    0.901E-01
RMM:   4    -0.413201712083E+03    0.37880E-01   -0.41646E-02  4907   0.191E-01    0.338E-01
RMM:   5    -0.413198120666E+03    0.35914E-02   -0.76245E-03  5183   0.107E-01    0.100E-01
RMM:   6    -0.413197535478E+03    0.58519E-03   -0.11341E-03  4743   0.448E-02    0.385E-02
RMM:   7    -0.413197528154E+03    0.73241E-05   -0.28619E-04  5734   0.183E-02    0.246E-02
[...]
       N       E                     dE             d eps       ncg     rms          rms(c)
RMM:   1    -0.413838663610E+03   -0.72771E-01   -0.20071E+01  4275   0.741E+00    0.143E+00
RMM:   2    -0.413718955639E+03    0.11971E+00   -0.11690E+00  5358   0.107E+00    0.150E+00
RMM:   3    -0.413725543551E+03   -0.65879E-02   -0.20011E-01  5272   0.499E-01    0.144E+00
RMM:   4    -0.413661731980E+03    0.63812E-01   -0.97944E-02  5132   0.375E-01    0.721E-01
RMM:   5    -0.413659150313E+03    0.25817E-02   -0.23885E-02  4662   0.224E-01    0.277E-01
RMM:   6    -0.413660290942E+03   -0.11406E-02   -0.24203E-02  5167   0.182E-01    0.205E-01
RMM:   7    -0.413657569889E+03    0.27211E-02   -0.64906E-03  4930   0.104E-01    0.747E-02
RMM:   8    -0.413657590580E+03   -0.20691E-04   -0.13367E-03  5756   0.433E-02    0.497E-02
RMM:   9    -0.413657544116E+03    0.46464E-04   -0.30171E-04  4651   0.234E-02    0.157E-02
RMM:  10    -0.413657545082E+03   -0.96517E-06   -0.79097E-05  5628   0.104E-02    0.999E-03
RMM:  11    -0.413657546340E+03   -0.12579E-05   -0.18875E-05  4585   0.540E-03    0.634E-03
RMM:  12    -0.413657547378E+03   -0.10385E-05   -0.49226E-06  3029   0.334E-03    0.401E-03
RMM:  13    -0.413657546805E+03    0.57267E-06   -0.24288E-06  2729   0.239E-03
  140 T=   158. E= -.41288177E+03 F= -.41365755E+03 E0= -.41363690E+03  EK= 0.77578E+00 SP= 0.00E+00 SK= 0.00E+00
       N       E                     dE             d eps       ncg     rms          rms(c)
RMM:   1    -0.413549381924E+03    0.10817E+00   -0.15977E+01  4278   0.630E+00    0.158E+00
RMM:   2    -0.413470183699E+03    0.79198E-01   -0.91726E-01  5350   0.905E-01    0.148E+00
RMM:   3    -0.413511034259E+03   -0.40851E-01   -0.18153E-01  5337   0.459E-01    0.157E+00
RMM:   4    -0.413442246780E+03    0.68787E-01   -0.10947E-01  5162   0.384E-01    0.791E-01
RMM:   5    -0.413435818110E+03    0.64287E-02   -0.27549E-02  4396   0.246E-01    0.181E-01
RMM:   6    -0.413436139009E+03   -0.32090E-03   -0.16307E-02  5327   0.151E-01    0.159E-01
RMM:   7    -0.413434542944E+03    0.15961E-02   -0.41060E-03  4995   0.811E-02    0.634E-02
RMM:   8    -0.413434524810E+03    0.18133E-04   -0.91087E-04  5708   0.354E-02    0.377E-02
RMM:   9    -0.413434500937E+03    0.23873E-04   -0.26303E-04  5038   0.205E-02    0.181E-02
RMM:  10    -0.413434495167E+03    0.57703E-05   -0.53332E-05  5449   0.902E-03    0.951E-03
RMM:  11    -0.413434494683E+03    0.48430E-06   -0.21091E-05  4753   0.541E-03    0.555E-03
RMM:  12    -0.413434493720E+03    0.96265E-06   -0.31485E-06  2791   0.277E-03
  141 T=   114. E= -.41287592E+03 F= -.41343449E+03 E0= -.41341414E+03  EK= 0.55858E+00 SP= 0.00E+00 SK= 0.00E+00
       N       E                     dE             d eps       ncg     rms          rms(c)
RMM:   1    -0.413215347167E+03    0.21915E+00   -0.92708E+00  4270   0.472E+00    0.131E+00
RMM:   2    -0.413207280500E+03    0.80667E-02   -0.53237E-01  5364   0.628E-01    0.111E+00
RMM:   3    -0.413265281985E+03   -0.58001E-01   -0.12400E-01  5335   0.364E-01    0.136E+00
RMM:   4    -0.413205148432E+03    0.60134E-01   -0.88945E-02  5169   0.338E-01    0.604E-01
RMM:   5    -0.413197188654E+03    0.79598E-02   -0.26228E-02  4537   0.226E-01    0.120E-01
RMM:   6    -0.413197323719E+03   -0.13507E-03   -0.87974E-03  5561   0.107E-01    0.105E-01
RMM:   7    -0.413196774215E+03    0.54950E-03   -0.19698E-03  5188   0.534E-02    0.502E-02
RMM:   8    -0.413196729524E+03    0.44691E-04   -0.52545E-04  5641   0.281E-02    0.256E-02
RMM:   9    -0.413196730852E+03   -0.13279E-05   -0.16475E-04  5818   0.145E-02    0.208E-02
RMM:  10    -0.413196718181E+03    0.12671E-04   -0.45118E-05  5168   0.860E-03    0.712E-03
RMM:  11    -0.413196718043E+03    0.13804E-06   -0.24928E-05  4959   0.525E-03    0.553E-03
RMM:  12    -0.413196715646E+03    0.23974E-05   -0.24064E-06  2696   0.254E-03    0.239E-03
RMM:  13    -0.413196714296E+03    0.13491E-05   -0.12662E-06  2519   0.179E-03    0.110E-03
RMM:  14    -0.413196712506E+03    0.17902E-05   -0.68525E-07  2311   0.134E-03    0.426E-04
RMM:  15    -0.413196711142E+03    0.13644E-05   -0.39969E-07  1814   0.101E-03    0.234E-04
RMM:  16    -0.413196709170E+03    0.19721E-05   -0.28025E-07  1746   0.873E-04    0.205E-04
RMM:  17    -0.413196706696E+03    0.24733E-05   -0.20060E-07  1445   0.751E-04    0.141E-04
RMM:  18    -0.413196704346E+03    0.23503E-05   -0.14917E-07  1277   0.687E-04    0.810E-05
RMM:  19    -0.413196702207E+03    0.21386E-05   -0.12103E-07  1284   0.651E-04    0.569E-05
RMM:  20    -0.413196700386E+03    0.18213E-05   -0.85218E-08  1162   0.600E-04    0.661E-05
RMM:  21    -0.413196699579E+03    0.80712E-06   -0.47047E-08   967   0.551E-04
  142 T=    68. E= -.41286513E+03 F= -.41319670E+03 E0= -.41317653E+03  EK= 0.33157E+00 SP= 0.00E+00 SK= 0.00E+00
       N       E                     dE             d eps       ncg     rms          rms(c)
RMM:   1    -0.413085716657E+03    0.11098E+00   -0.43404E+00  4265   0.357E+00    0.782E-01
RMM:   2    -0.413095028048E+03   -0.93114E-02   -0.18488E-01  5384   0.387E-01    0.614E-01
RMM:   3    -0.413133058754E+03   -0.38031E-01   -0.57154E-02  5347   0.243E-01    0.912E-01
RMM:   4    -0.413098130350E+03    0.34928E-01   -0.40583E-02  5143   0.226E-01    0.349E-01
RMM:   5    -0.413093917947E+03    0.42124E-02   -0.12741E-02  4840   0.148E-01    0.757E-02
RMM:   6    -0.413093964369E+03   -0.46422E-04   -0.31625E-03  5841   0.621E-02    0.593E-02
RMM:   7    -0.413093839493E+03    0.12488E-03   -0.67589E-04  5290   0.300E-02    0.309E-02
RMM:   8    -0.413093819159E+03    0.20333E-04   -0.23693E-04  5571   0.195E-02    0.196E-02
RMM:   9    -0.413093818061E+03    0.10987E-05   -0.51670E-05  5592   0.822E-03    0.152E-02
RMM:  10    -0.413093813348E+03    0.47124E-05   -0.32720E-05  5203   0.685E-03    0.476E-03
RMM:  11    -0.413093814702E+03   -0.13541E-05   -0.92996E-06  3586   0.340E-03    0.425E-03
RMM:  12    -0.413093815243E+03   -0.54090E-06   -0.15954E-06  2550   0.229E-03
  143 T=    47. E= -.41286063E+03 F= -.41309382E+03 E0= -.41307363E+03  EK= 0.23318E+00 SP= 0.00E+00 SK= 0.00E+00
       N       E                     dE             d eps       ncg     rms          rms(c)
RMM:   1    -0.413182090068E+03   -0.88275E-01   -0.42116E+00  4266   0.386E+00    0.547E-01
RMM:   2    -0.413192526773E+03   -0.10437E-01   -0.16268E-01  5353   0.374E-01    0.400E-01
RMM:   3    -0.413223134291E+03   -0.30608E-01   -0.40490E-02  5411   0.204E-01    0.757E-01
RMM:   4    -0.413193567266E+03    0.29567E-01   -0.20114E-02  4970   0.167E-01    0.179E-01
RMM:   5    -0.413192784862E+03    0.78240E-03   -0.75656E-03  5351   0.102E-01    0.640E-02
RMM:   6    -0.413192674520E+03    0.11034E-03   -0.18032E-03  5622   0.482E-02    0.489E-02
RMM:   7    -0.413192578656E+03    0.95864E-04   -0.40680E-04  5027   0.244E-02    0.237E-02
RMM:   8    -0.413192569631E+03    0.90253E-05   -0.12620E-04  5886   0.134E-02    0.136E-02
RMM:   9    -0.413192566375E+03    0.32560E-05   -0.21330E-05  4692   0.562E-03    0.789E-03
RMM:  10    -0.413192568720E+03   -0.23451E-05   -0.14585E-05  4475   0.475E-03    0.384E-03
RMM:  11    -0.413192572990E+03   -0.42704E-05   -0.23250E-06  2689   0.245E-03    0.240E-03
RMM:  12    -0.413192577665E+03   -0.46750E-05   -0.12622E-06  2555   0.180E-03    0.117E-03
RMM:  13    -0.413192583764E+03   -0.60984E-05   -0.11284E-06  2516   0.153E-03    0.708E-04
RMM:  14    -0.413192590736E+03   -0.69725E-05   -0.12209E-06  2496   0.140E-03    0.476E-04
RMM:  15    -0.413192595926E+03   -0.51896E-05   -0.84574E-07  2093   0.110E-03    0.328E-04
RMM:  16    -0.413192602584E+03   -0.66581E-05   -0.14117E-06  2503   0.134E-03    0.238E-04
RMM:  17    -0.413192605396E+03   -0.28119E-05   -0.50809E-07  1516   0.803E-04    0.140E-04
RMM:  18    -0.413192607953E+03   -0.25574E-05   -0.32512E-07  1588   0.762E-04    0.863E-05
RMM:  19    -0.413192609620E+03   -0.16669E-05   -0.16436E-07  1227   0.634E-04    0.603E-05
RMM:  20    -0.413192611103E+03   -0.14834E-05   -0.10619E-07  1104   0.591E-04    0.405E-05
RMM:  21    -0.413192611888E+03   -0.78416E-06   -0.56378E-08   971   0.555E-04
  144 T=    67. E= -.41286380E+03 F= -.41319261E+03 E0= -.41317224E+03  EK= 0.32881E+00 SP= 0.00E+00 SK= 0.00E+00
       N       E                     dE             d eps       ncg     rms          rms(c)
RMM:   1    -0.413443931412E+03   -0.25132E+00   -0.91954E+00  4274   0.543E+00    0.109E+00
RMM:   2    -0.413442766641E+03    0.11648E-02   -0.38689E-01  5379   0.571E-01    0.789E-01
RMM:   3    -0.413541494566E+03   -0.98728E-01   -0.13535E-01  5355   0.367E-01    0.141E+00
RMM:   4    -0.413443824200E+03    0.97670E-01   -0.69114E-02  5026   0.301E-01    0.310E-01
RMM:   5    -0.413440958314E+03    0.28659E-02   -0.25989E-02  5279   0.192E-01    0.122E-01
RMM:   6    -0.413440647620E+03    0.31069E-03   -0.65840E-03  5670   0.921E-02    0.967E-02
RMM:   7    -0.413440260665E+03    0.38696E-03   -0.11986E-03  4881   0.434E-02    0.355E-02
RMM:   8    -0.413440268818E+03   -0.81526E-05   -0.53255E-04  5948   0.251E-02    0.229E-02
RMM:   9    -0.413440257489E+03    0.11329E-04   -0.70275E-05  5507   0.100E-02    0.140E-02
RMM:  10    -0.413440254719E+03    0.27701E-05   -0.45260E-05  5521   0.780E-03    0.631E-03
RMM:  11    -0.413440258851E+03   -0.41320E-05   -0.73068E-06  3251   0.349E-03    0.443E-03
RMM:  12    -0.413440264780E+03   -0.59289E-05   -0.33509E-06  2795   0.299E-03    0.195E-03
RMM:  13    -0.413440270962E+03   -0.61818E-05   -0.14690E-06  2576   0.198E-03    0.109E-03
RMM:  14    -0.413440277353E+03   -0.63912E-05   -0.10352E-06  2536   0.152E-03    0.669E-04
RMM:  15    -0.413440283943E+03   -0.65903E-05   -0.92596E-07  2281   0.125E-03    0.467E-04
RMM:  16    -0.413440293014E+03   -0.90712E-05   -0.15862E-06  2604   0.147E-03    0.345E-04
RMM:  17    -0.413440298286E+03   -0.52713E-05   -0.90396E-07  1841   0.102E-03    0.208E-04
RMM:  18    -0.413440301998E+03   -0.37127E-05   -0.55797E-07  1804   0.900E-04    0.127E-04
RMM:  19    -0.413440304209E+03   -0.22109E-05   -0.26227E-07  1452   0.714E-04    0.926E-05
RMM:  20    -0.413440306674E+03   -0.24646E-05   -0.18253E-07  1299   0.650E-04    0.562E-05
RMM:  21    -0.413440307559E+03   -0.88481E-06   -0.83642E-08  1020   0.574E-04
  145 T=   115. E= -.41287423E+03 F= -.41344031E+03 E0= -.41341959E+03  EK= 0.56608E+00 SP= 0.00E+00 SK= 0.00E+00
       N       E                     dE             d eps       ncg     rms          rms(c)
RMM:   1    -0.413786740393E+03   -0.34643E+00   -0.16464E+01  4287   0.702E+00    0.141E+00
RMM:   2    -0.413706076043E+03    0.80664E-01   -0.58874E-01  5385   0.783E-01    0.115E+00
RMM:   3    -0.413763795275E+03   -0.57719E-01   -0.16168E-01  5339   0.432E-01    0.142E+00
RMM:   4    -0.413697204119E+03    0.66591E-01   -0.10496E-01  5228   0.377E-01    0.543E-01
RMM:   5    -0.413688055527E+03    0.91486E-02   -0.46841E-02  4979   0.276E-01    0.184E-01
RMM:   6    -0.413687828494E+03    0.22703E-03   -0.15814E-02  5529   0.148E-01    0.156E-01
RMM:   7    -0.413686618197E+03    0.12103E-02   -0.24981E-03  4680   0.683E-02    0.528E-02
RMM:   8    -0.413686642899E+03   -0.24701E-04   -0.13604E-03  5860   0.404E-02    0.320E-02
RMM:   9    -0.413686631326E+03    0.11573E-04   -0.18119E-04  5750   0.156E-02    0.254E-02
RMM:  10    -0.413686614260E+03    0.17066E-04   -0.68248E-05  5371   0.101E-02    0.840E-03
RMM:  11    -0.413686619033E+03   -0.47735E-05   -0.23279E-05  4827   0.517E-03    0.463E-03
RMM:  12    -0.413686624327E+03   -0.52938E-05   -0.27904E-06  2755   0.283E-03    0.193E-03
RMM:  13    -0.413686629395E+03   -0.50682E-05   -0.11483E-06  2549   0.181E-03    0.113E-03
RMM:  14    -0.413686634092E+03   -0.46971E-05   -0.80929E-07  2488   0.138E-03    0.668E-04
RMM:  15    -0.413686639380E+03   -0.52884E-05   -0.78337E-07  2326   0.120E-03    0.448E-04
RMM:  16    -0.413686645481E+03   -0.61001E-05   -0.96166E-07  2350   0.121E-03    0.302E-04
RMM:  17    -0.413686649776E+03   -0.42951E-05   -0.64873E-07  1842   0.974E-04    0.216E-04
RMM:  18    -0.413686653117E+03   -0.33410E-05   -0.46459E-07  1765   0.862E-04    0.159E-04
RMM:  19    -0.413686655924E+03   -0.28073E-05   -0.32846E-07  1543   0.754E-04    0.979E-05
RMM:  20    -0.413686658017E+03   -0.20925E-05   -0.19187E-07  1251   0.650E-04    0.501E-05
RMM:  21    -0.413686659122E+03   -0.11054E-05   -0.10025E-07  1038   0.585E-04    0.359E-05
RMM:  22    -0.413686659707E+03   -0.58480E-06   -0.54238E-08   935   0.556E-04
  146 T=   164. E= -.41288267E+03 F= -.41368666E+03 E0= -.41366548E+03  EK= 0.80399E+00 SP= 0.00E+00 SK= 0.00E+00
       N       E                     dE             d eps       ncg     rms          rms(c)
RMM:   1    -0.413995411869E+03   -0.30875E+00   -0.21347E+01  4296   0.815E+00    0.127E+00
RMM:   2    -0.413860251845E+03    0.13516E+00   -0.67486E-01  5428   0.930E-01    0.133E+00
RMM:   3    -0.413838132297E+03    0.22120E-01   -0.13763E-01  5435   0.428E-01    0.115E+00
RMM:   4    -0.413813443243E+03    0.24689E-01   -0.77635E-02  5348   0.325E-01    0.628E-01
RMM:   5    -0.413809839344E+03    0.36039E-02   -0.36728E-02  4783   0.256E-01    0.275E-01
RMM:   6    -0.413808950897E+03    0.88845E-03   -0.22106E-02  5147   0.180E-01    0.180E-01
RMM:   7    -0.413807057340E+03    0.18936E-02   -0.31657E-03  4572   0.835E-02    0.593E-02
RMM:   8    -0.413807115974E+03   -0.58634E-04   -0.16614E-03  5877   0.445E-02    0.442E-02
RMM:   9    -0.413807080063E+03    0.35911E-04   -0.25668E-04  5080   0.203E-02    0.276E-02
RMM:  10    -0.413807063869E+03    0.16194E-04   -0.83739E-05  5676   0.113E-02    0.115E-02
RMM:  11    -0.413807067571E+03   -0.37019E-05   -0.38347E-05  5456   0.692E-03    0.614E-03
RMM:  12    -0.413807072197E+03   -0.46256E-05   -0.50310E-06  3054   0.327E-03    0.329E-03
RMM:  13    -0.413807075353E+03   -0.31568E-05   -0.14343E-06  2581   0.202E-03    0.139E-03
RMM:  14    -0.413807078765E+03   -0.34118E-05   -0.98683E-07  2529   0.154E-03    0.774E-04
RMM:  15    -0.413807081738E+03   -0.29729E-05   -0.63457E-07  2367   0.120E-03    0.506E-04
RMM:  16    -0.413807084133E+03   -0.23947E-05   -0.43449E-07  1868   0.955E-04    0.270E-04
RMM:  17    -0.413807086481E+03   -0.23480E-05   -0.38037E-07  1846   0.905E-04    0.182E-04
RMM:  18    -0.413807088307E+03   -0.18264E-05   -0.28521E-07  1650   0.787E-04    0.145E-04
RMM:  19    -0.413807089220E+03   -0.91305E-06   -0.14811E-07  1209   0.638E-04
  147 T=   188. E= -.41288481E+03 F= -.41380709E+03 E0= -.41378556E+03  EK= 0.92228E+00 SP= 0.00E+00 SK= 0.00E+00
       N       E                     dE             d eps       ncg     rms          rms(c)
RMM:   1    -0.413925132735E+03   -0.11804E+00   -0.21789E+01  4298   0.847E+00    0.128E+00
RMM:   2    -0.413825019111E+03    0.10011E+00   -0.70029E-01  5445   0.993E-01    0.147E+00
RMM:   3    -0.413791415362E+03    0.33604E-01   -0.13985E-01  5532   0.431E-01    0.123E+00
RMM:   4    -0.413763790710E+03    0.27625E-01   -0.62887E-02  5362   0.296E-01    0.704E-01
RMM:   5    -0.413763013943E+03    0.77677E-03   -0.38657E-02  4768   0.260E-01    0.323E-01
RMM:   6    -0.413761310528E+03    0.17034E-02   -0.28186E-02  5053   0.199E-01    0.190E-01
RMM:   7    -0.413759141444E+03    0.21691E-02   -0.38065E-03  4712   0.912E-02    0.770E-02
RMM:   8    -0.413759142638E+03   -0.11942E-05   -0.14955E-03  5830   0.436E-02    0.510E-02
RMM:   9    -0.413759100104E+03    0.42534E-04   -0.38773E-04  4705   0.257E-02    0.197E-02
RMM:  10    -0.413759100629E+03   -0.52495E-06   -0.10096E-04  5785   0.123E-02    0.117E-02
RMM:  11    -0.413759105668E+03   -0.50388E-05   -0.32594E-05  5125   0.727E-03    0.772E-03
RMM:  12    -0.413759110807E+03   -0.51388E-05   -0.62749E-06  3184   0.348E-03    0.403E-03
RMM:  13    -0.413759114608E+03   -0.38017E-05   -0.36276E-06  2883   0.270E-03    0.164E-03
RMM:  14    -0.413759117612E+03   -0.30039E-05   -0.14974E-06  2561   0.196E-03    0.951E-04
RMM:  15    -0.413759119581E+03   -0.19688E-05   -0.83827E-07  2368   0.134E-03    0.523E-04
RMM:  16    -0.413759120778E+03   -0.11965E-05   -0.59598E-07  1963   0.106E-03    0.263E-04
RMM:  17    -0.413759121436E+03   -0.65834E-06   -0.54905E-07  1923   0.975E-04
  148 T=   178. E= -.41288538E+03 F= -.41375912E+03 E0= -.41373750E+03  EK= 0.87374E+00 SP= 0.00E+00 SK= 0.00E+00
       N       E                     dE             d eps       ncg     rms          rms(c)
RMM:   1    -0.413638130809E+03    0.12099E+00   -0.18171E+01  4296   0.787E+00    0.143E+00
RMM:   2    -0.413577767081E+03    0.60364E-01   -0.60007E-01  5436   0.925E-01    0.148E+00
RMM:   3    -0.413586424196E+03   -0.86571E-02   -0.13336E-01  5625   0.402E-01    0.141E+00
RMM:   4    -0.413546633450E+03    0.39791E-01   -0.66590E-02  5279   0.300E-01    0.816E-01
RMM:   5    -0.413543929042E+03    0.27044E-02   -0.48800E-02  4581   0.294E-01    0.280E-01
RMM:   6    -0.413541715126E+03    0.22139E-02   -0.22610E-02  5175   0.179E-01    0.176E-01
RMM:   7    -0.413539922464E+03    0.17927E-02   -0.31308E-03  4790   0.808E-02    0.891E-02
RMM:   8    -0.413539835536E+03    0.86929E-04   -0.12858E-03  5699   0.414E-02    0.508E-02
RMM:   9    -0.413539827369E+03    0.81663E-05   -0.52103E-04  4769   0.288E-02    0.188E-02
RMM:  10    -0.413539834481E+03   -0.71121E-05   -0.99052E-05  5774   0.122E-02    0.134E-02
RMM:  11    -0.413539839921E+03   -0.54396E-05   -0.33257E-05  4783   0.741E-03    0.697E-03
RMM:  12    -0.413539847827E+03   -0.79055E-05   -0.80120E-06  3390   0.375E-03    0.383E-03
RMM:  13    -0.413539854267E+03   -0.64401E-05   -0.39121E-06  2908   0.285E-03    0.221E-03
RMM:  14    -0.413539858518E+03   -0.42510E-05   -0.24353E-06  2670   0.225E-03    0.105E-03
RMM:  15    -0.413539860762E+03   -0.22440E-05   -0.13628E-06  2452   0.152E-03    0.589E-04
RMM:  16    -0.413539861984E+03   -0.12225E-05   -0.11607E-06  2337   0.135E-03    0.365E-04
RMM:  17    -0.413539861757E+03    0.22682E-06   -0.93796E-07  2129   0.114E-03
  149 T=   134. E= -.41288109E+03 F= -.41353986E+03 E0= -.41351832E+03  EK= 0.65877E+00 SP= 0.00E+00 SK= 0.00E+00
       N       E                     dE             d eps       ncg     rms          rms(c)
RMM:   1    -0.413265187169E+03    0.27467E+00   -0.10827E+01  4294   0.617E+00    0.121E+00
RMM:   2    -0.413249049596E+03    0.16138E-01   -0.34309E-01  5443   0.685E-01    0.116E+00
RMM:   3    -0.413274949863E+03   -0.25900E-01   -0.83824E-02  5639   0.308E-01    0.117E+00
RMM:   4    -0.413246279279E+03    0.28671E-01   -0.51773E-02  5269   0.247E-01    0.713E-01
RMM:   5    -0.413239996604E+03    0.62827E-02   -0.38030E-02  4492   0.258E-01    0.216E-01
RMM:   6    -0.413238304891E+03    0.16917E-02   -0.76051E-03  5154   0.114E-01    0.123E-01
RMM:   7    -0.413237715400E+03    0.58949E-03   -0.12067E-03  4886   0.491E-02    0.781E-02
RMM:   8    -0.413237608398E+03    0.10700E-03   -0.64562E-04  5372   0.308E-02    0.423E-02
RMM:   9    -0.413237626602E+03   -0.18204E-04   -0.47815E-04  5017   0.258E-02    0.195E-02
RMM:  10    -0.413237628178E+03   -0.15763E-05   -0.68239E-05  5553   0.104E-02    0.131E-02
RMM:  11    -0.413237630430E+03   -0.22521E-05   -0.29847E-05  4832   0.681E-03    0.632E-03
RMM:  12    -0.413237636738E+03   -0.63074E-05   -0.65447E-06  3214   0.335E-03    0.315E-03
RMM:  13    -0.413237642355E+03   -0.56174E-05   -0.26049E-06  2732   0.239E-03    0.201E-03
RMM:  14    -0.413237647272E+03   -0.49167E-05   -0.26106E-06  2704   0.219E-03    0.966E-04
RMM:  15    -0.413237649325E+03   -0.20530E-05   -0.14003E-06  2420   0.151E-03    0.606E-04
RMM:  16    -0.413237650113E+03   -0.78824E-06   -0.13067E-06  2443   0.142E-03
  150 T=    76. E= -.41286531E+03 F= -.41323765E+03 E0= -.41321625E+03  EK= 0.37234E+00 SP= 0.00E+00 SK= 0.00E+00
