       N       E                     dE             d eps       ncg     rms          rms(c)
RMM:   1     0.220117787166E+04    0.22012E+04   -0.52447E+04  2132   0.654E+02
RMM:   2     0.705588391229E+03   -0.14956E+04   -0.16263E+04  2132   0.177E+02
RMM:   3     0.137663183662E+03   -0.56793E+03   -0.65725E+03  2132   0.117E+02
RMM:   4    -0.159293324134E+03   -0.29696E+03   -0.27877E+03  2132   0.936E+01
RMM:   5    -0.287540526330E+03   -0.12825E+03   -0.11449E+03  2132   0.595E+01
RMM:   6    -0.349770053946E+03   -0.62230E+02   -0.55125E+02  2132   0.423E+01
RMM:   7    -0.382658946040E+03   -0.32889E+02   -0.30427E+02  2132   0.293E+01
RMM:   8    -0.404152637616E+03   -0.21494E+02   -0.18436E+02  2132   0.233E+01
RMM:   9    -0.435963448981E+03   -0.31811E+02   -0.30750E+02  6099   0.173E+01
RMM:  10    -0.441221213607E+03   -0.52578E+01   -0.62791E+01  6389   0.540E+00
RMM:  11    -0.442516551739E+03   -0.12953E+01   -0.11395E+01  6224   0.174E+00
RMM:  12    -0.442888859660E+03   -0.37231E+00   -0.28298E+00  6373   0.611E-01    0.134E+02
RMM:  13    -0.425635428078E+03    0.17253E+02   -0.81228E+01  4676   0.119E+01    0.712E+01
RMM:  14    -0.499626925707E+03   -0.73991E+02   -0.54201E+02  5413   0.233E+01    0.307E+01
RMM:  15    -0.416548278360E+03    0.83079E+02   -0.20115E+02  5104   0.164E+01    0.747E+00
RMM:  16    -0.414022943734E+03    0.25253E+01   -0.39943E+01  6093   0.614E+00    0.429E+00
RMM:  17    -0.413208740678E+03    0.81420E+00   -0.25758E+00  5407   0.191E+00    0.243E+00
RMM:  18    -0.413177480240E+03    0.31260E-01   -0.75116E-01  5993   0.888E-01    0.170E+00
RMM:  19    -0.413171792305E+03    0.56879E-02   -0.26692E-01  5684   0.561E-01    0.895E-01
RMM:  20    -0.413191578015E+03   -0.19786E-01   -0.29561E-01  5589   0.561E-01    0.640E-01
RMM:  21    -0.413169437763E+03    0.22140E-01   -0.35938E-02  4987   0.246E-01    0.298E-01
RMM:  22    -0.413165861401E+03    0.35764E-02   -0.23993E-02  5876   0.149E-01    0.136E-01
RMM:  23    -0.413164960773E+03    0.90063E-03   -0.52165E-03  6004   0.628E-02    0.842E-02
RMM:  24    -0.413163620819E+03    0.13400E-02   -0.16942E-03  5362   0.408E-02    0.520E-02
RMM:  25    -0.413162964890E+03    0.65593E-03   -0.89597E-04  5038   0.287E-02    0.401E-02
RMM:  26    -0.413163071077E+03   -0.10619E-03   -0.11484E-03  5812   0.343E-02    0.366E-02
RMM:  27    -0.413163464731E+03   -0.39365E-03   -0.21022E-04  4549   0.203E-02    0.205E-02
RMM:  28    -0.413163899292E+03   -0.43456E-03   -0.18735E-04  5195   0.184E-02    0.869E-03
RMM:  29    -0.413164291155E+03   -0.39186E-03   -0.11544E-04  4630   0.156E-02    0.502E-03
RMM:  30    -0.413164522635E+03   -0.23148E-03   -0.79672E-05  4326   0.104E-02    0.465E-03
RMM:  31    -0.413164669950E+03   -0.14732E-03   -0.62340E-05  3276   0.777E-03    0.356E-03
RMM:  32    -0.413164693390E+03   -0.23440E-04   -0.23232E-05  2997   0.322E-03    0.203E-03
RMM:  33    -0.413164703730E+03   -0.10340E-04   -0.93208E-06  2818   0.233E-03    0.615E-04
RMM:  34    -0.413164705305E+03   -0.15752E-05   -0.50243E-06  2636   0.163E-03    0.499E-04
RMM:  35    -0.413164704975E+03    0.33004E-06   -0.23484E-06  2390   0.132E-03
    1 T=    61. E= -.41286690E+03 F= -.41316470E+03 E0= -.41314221E+03  EK= 0.29781E+00 SP= 0.00E+00 SK= 0.00E+00
       N       E                     dE             d eps       ncg     rms          rms(c)
RMM:   1    -0.413166727698E+03   -0.20224E-02   -0.80899E+00  3978   0.577E-01    0.890E-01
RMM:   2    -0.413169735811E+03   -0.30081E-02   -0.10017E-01  4033   0.858E-02    0.656E-01
RMM:   3    -0.413165342295E+03    0.43935E-02   -0.25097E-02  4945   0.602E-02    0.148E-01
RMM:   4    -0.413193286616E+03   -0.27944E-01   -0.32153E-02  5187   0.149E-01    0.703E-01
RMM:   5    -0.413164182168E+03    0.29104E-01   -0.13803E-02  4834   0.118E-01    0.507E-02
RMM:   6    -0.413164383044E+03   -0.20088E-03   -0.25840E-03  5765   0.495E-02    0.355E-02
RMM:   7    -0.413164385059E+03   -0.20151E-05   -0.46940E-04  5698   0.199E-02    0.226E-02
RMM:   8    -0.413164381291E+03    0.37677E-05   -0.59557E-05  5252   0.852E-03    0.989E-03
RMM:   9    -0.413164383321E+03   -0.20300E-05   -0.12588E-05  3762   0.374E-03    0.714E-03
RMM:  10    -0.413164388584E+03   -0.52622E-05   -0.24858E-06  2610   0.232E-03    0.426E-03
RMM:  11    -0.413164392372E+03   -0.37880E-05   -0.12825E-06  2523   0.168E-03    0.245E-03
RMM:  12    -0.413164399158E+03   -0.67866E-05   -0.17999E-06  2567   0.190E-03    0.108E-03
RMM:  13    -0.413164402351E+03   -0.31925E-05   -0.80890E-07  2429   0.135E-03    0.839E-04
RMM:  14    -0.413164402404E+03   -0.52991E-07   -0.38221E-07  1966   0.897E-04
    2 T=    61. E= -.41286666E+03 F= -.41316440E+03 E0= -.41314190E+03  EK= 0.29775E+00 SP= 0.00E+00 SK= 0.00E+00
       N       E                     dE             d eps       ncg     rms          rms(c)
RMM:   1    -0.413167657813E+03   -0.32555E-02   -0.80690E+00  4187   0.579E-01    0.906E-01
RMM:   2    -0.413169942484E+03   -0.22847E-02   -0.99673E-02  4113   0.882E-02    0.653E-01
RMM:   3    -0.413165696958E+03    0.42455E-02   -0.23136E-02  4877   0.558E-02    0.125E-01
RMM:   4    -0.413192430355E+03   -0.26733E-01   -0.29072E-02  5160   0.143E-01    0.687E-01
RMM:   5    -0.413164816381E+03    0.27614E-01   -0.13028E-02  4820   0.114E-01    0.498E-02
RMM:   6    -0.413165010543E+03   -0.19416E-03   -0.24802E-03  5756   0.481E-02    0.361E-02
RMM:   7    -0.413164996359E+03    0.14184E-04   -0.44420E-04  5601   0.203E-02    0.226E-02
RMM:   8    -0.413164985959E+03    0.10400E-04   -0.59002E-05  5126   0.883E-03    0.106E-02
RMM:   9    -0.413164984178E+03    0.17807E-05   -0.12052E-05  3747   0.385E-03    0.774E-03
RMM:  10    -0.413164984442E+03   -0.26344E-06   -0.22507E-06  2587   0.240E-03
    3 T=    61. E= -.41286701E+03 F= -.41316498E+03 E0= -.41314249E+03  EK= 0.29798E+00 SP= 0.00E+00 SK= 0.00E+00
       N       E                     dE             d eps       ncg     rms          rms(c)
RMM:   1    -0.413167124744E+03   -0.21406E-02   -0.80093E+00  4220   0.583E-01    0.892E-01
RMM:   2    -0.413169375228E+03   -0.22505E-02   -0.99263E-02  4273   0.857E-02    0.647E-01
RMM:   3    -0.413172838886E+03   -0.34637E-02   -0.28310E-02  5161   0.955E-02    0.383E-01
RMM:   4    -0.413183635592E+03   -0.10797E-01   -0.36267E-02  5086   0.165E-01    0.570E-01
RMM:   5    -0.413164738059E+03    0.18898E-01   -0.67729E-03  4647   0.939E-02    0.575E-02
RMM:   6    -0.413164723255E+03    0.14804E-04   -0.13941E-03  5367   0.382E-02    0.323E-02
RMM:   7    -0.413164741421E+03   -0.18166E-04   -0.29841E-04  5896   0.162E-02    0.188E-02
RMM:   8    -0.413164736814E+03    0.46066E-05   -0.51190E-05  5089   0.852E-03    0.745E-03
RMM:   9    -0.413164735522E+03    0.12925E-05   -0.61952E-06  3151   0.329E-03    0.380E-03
RMM:  10    -0.413164736663E+03   -0.11406E-05   -0.14752E-06  2529   0.205E-03    0.235E-03
RMM:  11    -0.413164738165E+03   -0.15026E-05   -0.11756E-06  2515   0.169E-03    0.129E-03
RMM:  12    -0.413164738951E+03   -0.78621E-06   -0.71849E-07  2462   0.133E-03
    4 T=    61. E= -.41286675E+03 F= -.41316474E+03 E0= -.41314225E+03  EK= 0.29799E+00 SP= 0.00E+00 SK= 0.00E+00
       N       E                     dE             d eps       ncg     rms          rms(c)
RMM:   1    -0.413167141107E+03   -0.24029E-02   -0.80810E+00  4235   0.590E-01    0.887E-01
RMM:   2    -0.413169763383E+03   -0.26223E-02   -0.10037E-01  4103   0.829E-02    0.655E-01
RMM:   3    -0.413166088764E+03    0.36746E-02   -0.25229E-02  5011   0.571E-02    0.162E-01
RMM:   4    -0.413196577856E+03   -0.30489E-01   -0.35057E-02  5136   0.157E-01    0.737E-01
RMM:   5    -0.413164668707E+03    0.31909E-01   -0.14775E-02  4795   0.122E-01    0.514E-02
RMM:   6    -0.413164877979E+03   -0.20927E-03   -0.26943E-03  5731   0.508E-02    0.353E-02
RMM:   7    -0.413164878075E+03   -0.96243E-07   -0.46636E-04  5700   0.201E-02    0.226E-02
RMM:   8    -0.413164874425E+03    0.36497E-05   -0.62924E-05  5196   0.893E-03    0.103E-02
RMM:   9    -0.413164874991E+03   -0.56563E-06   -0.12366E-05  3813   0.394E-03    0.725E-03
RMM:  10    -0.413164879251E+03   -0.42599E-05   -0.21456E-06  2591   0.235E-03    0.432E-03
RMM:  11    -0.413164882711E+03   -0.34599E-05   -0.11786E-06  2525   0.173E-03    0.240E-03
RMM:  12    -0.413164888427E+03   -0.57160E-05   -0.18539E-06  2591   0.197E-03    0.110E-03
RMM:  13    -0.413164890850E+03   -0.24235E-05   -0.69800E-07  2430   0.136E-03    0.853E-04
RMM:  14    -0.413164890655E+03    0.19575E-06   -0.26253E-07  1949   0.881E-04
    5 T=    61. E= -.41286672E+03 F= -.41316489E+03 E0= -.41314241E+03  EK= 0.29817E+00 SP= 0.00E+00 SK= 0.00E+00
       N       E                     dE             d eps       ncg     rms          rms(c)
RMM:   1    -0.413167969348E+03   -0.30785E-02   -0.80782E+00  4247   0.592E-01    0.904E-01
RMM:   2    -0.413170022432E+03   -0.20531E-02   -0.10003E-01  4070   0.820E-02    0.654E-01
RMM:   3    -0.413166111965E+03    0.39105E-02   -0.23470E-02  4934   0.518E-02    0.127E-01
RMM:   4    -0.413192715077E+03   -0.26603E-01   -0.28976E-02  5138   0.142E-01    0.686E-01
RMM:   5    -0.413165205812E+03    0.27509E-01   -0.13023E-02  4803   0.114E-01    0.494E-02
RMM:   6    -0.413165397051E+03   -0.19124E-03   -0.23612E-03  5745   0.476E-02    0.354E-02
RMM:   7    -0.413165388418E+03    0.86330E-05   -0.42766E-04  5604   0.199E-02    0.222E-02
RMM:   8    -0.413165379540E+03    0.88778E-05   -0.57127E-05  5090   0.866E-03    0.103E-02
RMM:   9    -0.413165377986E+03    0.15537E-05   -0.11244E-05  3666   0.379E-03    0.749E-03
RMM:  10    -0.413165378497E+03   -0.51018E-06   -0.20981E-06  2575   0.236E-03
    6 T=    61. E= -.41286691E+03 F= -.41316538E+03 E0= -.41314292E+03  EK= 0.29847E+00 SP= 0.00E+00 SK= 0.00E+00
       N       E                     dE             d eps       ncg     rms          rms(c)
RMM:   1    -0.413167712311E+03   -0.23343E-02   -0.80313E+00  4257   0.599E-01    0.898E-01
RMM:   2    -0.413169825976E+03   -0.21137E-02   -0.99524E-02  4278   0.820E-02    0.648E-01
RMM:   3    -0.413171950514E+03   -0.21245E-02   -0.27256E-02  5148   0.890E-02    0.352E-01
RMM:   4    -0.413186155895E+03   -0.14205E-01   -0.36982E-02  5086   0.165E-01    0.600E-01
RMM:   5    -0.413165099976E+03    0.21056E-01   -0.78000E-03  4673   0.987E-02    0.578E-02
RMM:   6    -0.413165109923E+03   -0.99465E-05   -0.16031E-03  5417   0.404E-02    0.328E-02
RMM:   7    -0.413165124219E+03   -0.14296E-04   -0.32410E-04  5905   0.166E-02    0.194E-02
RMM:   8    -0.413165118908E+03    0.53106E-05   -0.53169E-05  5098   0.862E-03    0.778E-03
RMM:   9    -0.413165116337E+03    0.25710E-05   -0.64436E-06  3169   0.332E-03    0.404E-03
RMM:  10    -0.413165116282E+03    0.54730E-07   -0.16198E-06  2535   0.210E-03
    7 T=    61. E= -.41286659E+03 F= -.41316512E+03 E0= -.41314267E+03  EK= 0.29853E+00 SP= 0.00E+00 SK= 0.00E+00
       N       E                     dE             d eps       ncg     rms          rms(c)
RMM:   1    -0.413167933619E+03   -0.28173E-02   -0.80689E+00  4266   0.603E-01    0.886E-01
RMM:   2    -0.413170940696E+03   -0.30071E-02   -0.99974E-02  4171   0.844E-02    0.653E-01
RMM:   3    -0.413167147111E+03    0.37936E-02   -0.25017E-02  4989   0.623E-02    0.172E-01
RMM:   4    -0.413198944934E+03   -0.31798E-01   -0.37265E-02  5124   0.162E-01    0.754E-01
RMM:   5    -0.413165541795E+03    0.33403E-01   -0.15427E-02  4794   0.125E-01    0.525E-02
RMM:   6    -0.413165740643E+03   -0.19885E-03   -0.27601E-03  5719   0.517E-02    0.355E-02
RMM:   7    -0.413165743173E+03   -0.25298E-05   -0.47553E-04  5725   0.201E-02    0.227E-02
RMM:   8    -0.413165738959E+03    0.42136E-05   -0.64151E-05  5225   0.892E-03    0.101E-02
RMM:   9    -0.413165738536E+03    0.42367E-06   -0.12178E-05  3812   0.392E-03    0.698E-03
RMM:  10    -0.413165741470E+03   -0.29346E-05   -0.21592E-06  2579   0.232E-03    0.419E-03
RMM:  11    -0.413165743589E+03   -0.21184E-05   -0.11051E-06  2521   0.168E-03    0.237E-03
RMM:  12    -0.413165747289E+03   -0.37003E-05   -0.17442E-06  2577   0.192E-03    0.107E-03
RMM:  13    -0.413165748911E+03   -0.16218E-05   -0.76621E-07  2432   0.137E-03    0.906E-04
RMM:  14    -0.413165748633E+03    0.27825E-06   -0.26566E-07  1953   0.887E-04
    8 T=    61. E= -.41286687E+03 F= -.41316575E+03 E0= -.41314332E+03  EK= 0.29888E+00 SP= 0.00E+00 SK= 0.00E+00
       N       E                     dE             d eps       ncg     rms          rms(c)
RMM:   1    -0.413168488174E+03   -0.27393E-02   -0.80964E+00  4282   0.606E-01    0.900E-01
RMM:   2    -0.413171050045E+03   -0.25619E-02   -0.99948E-02  4198   0.853E-02    0.656E-01
RMM:   3    -0.413166772004E+03    0.42780E-02   -0.24080E-02  4913   0.571E-02    0.137E-01
RMM:   4    -0.413194783267E+03   -0.28011E-01   -0.30794E-02  5126   0.147E-01    0.704E-01
RMM:   5    -0.413165742732E+03    0.29041E-01   -0.13719E-02  4796   0.117E-01    0.496E-02
RMM:   6    -0.413165930094E+03   -0.18736E-03   -0.24591E-03  5743   0.486E-02    0.352E-02
RMM:   7    -0.413165923141E+03    0.69529E-05   -0.43657E-04  5624   0.199E-02    0.223E-02
RMM:   8    -0.413165913820E+03    0.93212E-05   -0.60266E-05  5089   0.880E-03    0.104E-02
RMM:   9    -0.413165911841E+03    0.19795E-05   -0.11666E-05  3744   0.388E-03    0.753E-03
RMM:  10    -0.413165912381E+03   -0.54072E-06   -0.21116E-06  2571   0.234E-03
    9 T=    61. E= -.41286678E+03 F= -.41316591E+03 E0= -.41314350E+03  EK= 0.29913E+00 SP= 0.00E+00 SK= 0.00E+00
       N       E                     dE             d eps       ncg     rms          rms(c)
RMM:   1    -0.413170143890E+03   -0.42320E-02   -0.80791E+00  4290   0.632E-01    0.905E-01
RMM:   2    -0.413170847371E+03   -0.70348E-03   -0.99795E-02  4313   0.875E-02    0.651E-01
RMM:   3    -0.413173163837E+03   -0.23165E-02   -0.27611E-02  5131   0.928E-02    0.361E-01
RMM:   4    -0.413186243679E+03   -0.13080E-01   -0.36573E-02  5068   0.165E-01    0.589E-01
RMM:   5    -0.413165957288E+03    0.20286E-01   -0.73822E-03  4654   0.963E-02    0.574E-02
RMM:   6    -0.413165967956E+03   -0.10668E-04   -0.15520E-03  5392   0.395E-02    0.331E-02
RMM:   7    -0.413165976682E+03   -0.87260E-05   -0.31384E-04  5867   0.166E-02    0.193E-02
RMM:   8    -0.413165969242E+03    0.74398E-05   -0.52058E-05  5079   0.862E-03    0.770E-03
RMM:   9    -0.413165965514E+03    0.37279E-05   -0.65416E-06  3155   0.333E-03    0.400E-03
RMM:  10    -0.413165964200E+03    0.13144E-05   -0.15724E-06  2527   0.209E-03    0.249E-03
RMM:  11    -0.413165962330E+03    0.18696E-05   -0.11141E-06  2505   0.168E-03    0.130E-03
RMM:  12    -0.413165960323E+03    0.20068E-05   -0.75348E-07  2470   0.136E-03    0.561E-04
RMM:  13    -0.413165959078E+03    0.12459E-05   -0.37944E-07  2095   0.997E-04    0.337E-04
RMM:  14    -0.413165957797E+03    0.12808E-05   -0.23125E-07  1609   0.793E-04    0.219E-04
RMM:  15    -0.413165955442E+03    0.23542E-05   -0.27438E-07  1647   0.792E-04    0.216E-04
RMM:  16    -0.413165953179E+03    0.22634E-05   -0.20876E-07  1424   0.707E-04    0.164E-04
RMM:  17    -0.413165951521E+03    0.16580E-05   -0.13079E-07  1208   0.635E-04    0.791E-05
RMM:  18    -0.413165950115E+03    0.14058E-05   -0.94192E-08  1071   0.595E-04    0.512E-05
RMM:  19    -0.413165949530E+03    0.58500E-06   -0.45169E-08   842   0.544E-04
   10 T=    61. E= -.41286657E+03 F= -.41316595E+03 E0= -.41314356E+03  EK= 0.29938E+00 SP= 0.00E+00 SK= 0.00E+00
       N       E                     dE             d eps       ncg     rms          rms(c)
RMM:   1    -0.413168928835E+03   -0.29787E-02   -0.80611E+00  4291   0.614E-01    0.886E-01
RMM:   2    -0.413171642458E+03   -0.27136E-02   -0.10007E-01  4229   0.857E-02    0.651E-01
RMM:   3    -0.413168020661E+03    0.36218E-02   -0.24484E-02  4980   0.598E-02    0.163E-01
RMM:   4    -0.413199558382E+03   -0.31538E-01   -0.36533E-02  5123   0.160E-01    0.749E-01
RMM:   5    -0.413166553016E+03    0.33005E-01   -0.15421E-02  4782   0.124E-01    0.520E-02
RMM:   6    -0.413166758219E+03   -0.20520E-03   -0.27043E-03  5713   0.511E-02    0.360E-02
RMM:   7    -0.413166754349E+03    0.38695E-05   -0.47004E-04  5624   0.202E-02    0.226E-02
RMM:   8    -0.413166747580E+03    0.67692E-05   -0.64589E-05  5222   0.903E-03    0.102E-02
RMM:   9    -0.413166746065E+03    0.15151E-05   -0.12590E-05  3876   0.400E-03    0.705E-03
RMM:  10    -0.413166747906E+03   -0.18411E-05   -0.21559E-06  2578   0.232E-03    0.424E-03
RMM:  11    -0.413166749170E+03   -0.12644E-05   -0.10034E-06  2499   0.163E-03    0.245E-03
RMM:  12    -0.413166751318E+03   -0.21476E-05   -0.15704E-06  2546   0.189E-03    0.112E-03
RMM:  13    -0.413166752095E+03   -0.77664E-06   -0.66940E-07  2408   0.135E-03
   11 T=    61. E= -.41286686E+03 F= -.41316675E+03 E0= -.41314439E+03  EK= 0.29989E+00 SP= 0.00E+00 SK= 0.00E+00
       N       E                     dE             d eps       ncg     rms          rms(c)
RMM:   1    -0.413169105077E+03   -0.23538E-02   -0.81249E+00  4290   0.620E-01    0.897E-01
RMM:   2    -0.413171573719E+03   -0.24686E-02   -0.10073E-01  4229   0.862E-02    0.658E-01
RMM:   3    -0.413167625679E+03    0.39480E-02   -0.24638E-02  4893   0.573E-02    0.144E-01
RMM:   4    -0.413196237368E+03   -0.28612E-01   -0.31845E-02  5118   0.149E-01    0.712E-01
RMM:   5    -0.413166486129E+03    0.29751E-01   -0.14026E-02  4784   0.118E-01    0.498E-02
RMM:   6    -0.413166686325E+03   -0.20020E-03   -0.25578E-03  5757   0.489E-02    0.346E-02
RMM:   7    -0.413166685452E+03    0.87225E-06   -0.43279E-04  5647   0.200E-02    0.223E-02
RMM:   8    -0.413166676227E+03    0.92253E-05   -0.62755E-05  5060   0.888E-03    0.106E-02
RMM:   9    -0.413166674351E+03    0.18763E-05   -0.12356E-05  3799   0.396E-03    0.765E-03
RMM:  10    -0.413166675409E+03   -0.10583E-05   -0.21107E-06  2571   0.235E-03    0.453E-03
RMM:  11    -0.413166676433E+03   -0.10235E-05   -0.12606E-06  2511   0.181E-03    0.247E-03
RMM:  12    -0.413166677845E+03   -0.14120E-05   -0.17115E-06  2557   0.197E-03    0.111E-03
RMM:  13    -0.413166678017E+03   -0.17203E-06   -0.58454E-07  2383   0.133E-03
   12 T=    61. E= -.41286651E+03 F= -.41316668E+03 E0= -.41314435E+03  EK= 0.30017E+00 SP= 0.00E+00 SK= 0.00E+00
       N       E                     dE             d eps       ncg     rms          rms(c)
RMM:   1    -0.413170138209E+03   -0.34604E-02   -0.81046E+00  4292   0.631E-01    0.909E-01
RMM:   2    -0.413171787099E+03   -0.16489E-02   -0.10052E-01  4231   0.840E-02    0.653E-01
RMM:   3    -0.413168114059E+03    0.36730E-02   -0.22901E-02  4955   0.514E-02    0.130E-01
RMM:   4    -0.413197082553E+03   -0.28968E-01   -0.31842E-02  5118   0.149E-01    0.714E-01
RMM:   5    -0.413167144139E+03    0.29938E-01   -0.14156E-02  4795   0.118E-01    0.508E-02
RMM:   6    -0.413167343149E+03   -0.19901E-03   -0.25544E-03  5762   0.493E-02    0.362E-02
RMM:   7    -0.413167331037E+03    0.12111E-04   -0.44703E-04  5607   0.204E-02    0.228E-02
RMM:   8    -0.413167316988E+03    0.14049E-04   -0.63148E-05  5096   0.907E-03    0.108E-02
RMM:   9    -0.413167312011E+03    0.49770E-05   -0.12375E-05  3794   0.399E-03    0.778E-03
RMM:  10    -0.413167308690E+03    0.33214E-05   -0.22363E-06  2579   0.241E-03    0.456E-03
RMM:  11    -0.413167306352E+03    0.23382E-05   -0.12255E-06  2505   0.180E-03    0.256E-03
RMM:  12    -0.413167302161E+03    0.41907E-05   -0.18267E-06  2580   0.203E-03    0.117E-03
RMM:  13    -0.413167299804E+03    0.23573E-05   -0.63584E-07  2397   0.138E-03    0.850E-04
RMM:  14    -0.413167299651E+03    0.15250E-06   -0.25880E-07  1984   0.891E-04
   13 T=    61. E= -.41286658E+03 F= -.41316730E+03 E0= -.41314500E+03  EK= 0.30072E+00 SP= 0.00E+00 SK= 0.00E+00
       N       E                     dE             d eps       ncg     rms          rms(c)
RMM:   1    -0.413170295343E+03   -0.29955E-02   -0.80702E+00  4296   0.629E-01    0.889E-01
RMM:   2    -0.413172698292E+03   -0.24029E-02   -0.10016E-01  4235   0.812E-02    0.650E-01
RMM:   3    -0.413168902277E+03    0.37960E-02   -0.23774E-02  4971   0.533E-02    0.143E-01
RMM:   4    -0.413198360435E+03   -0.29458E-01   -0.33012E-02  5117   0.152E-01    0.722E-01
RMM:   5    -0.413167764301E+03    0.30596E-01   -0.14451E-02  4785   0.119E-01    0.506E-02
RMM:   6    -0.413167958643E+03   -0.19434E-03   -0.25694E-03  5743   0.495E-02    0.356E-02
RMM:   7    -0.413167947815E+03    0.10828E-04   -0.44826E-04  5611   0.202E-02    0.225E-02
RMM:   8    -0.413167937668E+03    0.10146E-04   -0.62566E-05  5121   0.900E-03    0.104E-02
RMM:   9    -0.413167934490E+03    0.31780E-05   -0.12119E-05  3768   0.396E-03    0.744E-03
RMM:  10    -0.413167933903E+03    0.58792E-06   -0.21424E-06  2570   0.235E-03
   14 T=    61. E= -.41286666E+03 F= -.41316793E+03 E0= -.41314567E+03  EK= 0.30128E+00 SP= 0.00E+00 SK= 0.00E+00
       N       E                     dE             d eps       ncg     rms          rms(c)
RMM:   1    -0.413170296276E+03   -0.23618E-02   -0.81616E+00  4304   0.633E-01    0.895E-01
RMM:   2    -0.413173184205E+03   -0.28879E-02   -0.10117E-01  4321   0.845E-02    0.659E-01
RMM:   3    -0.413176413751E+03   -0.32295E-02   -0.30393E-02  5128   0.970E-02    0.391E-01
RMM:   4    -0.413188257001E+03   -0.11843E-01   -0.38496E-02  5059   0.169E-01    0.591E-01
RMM:   5    -0.413167957843E+03    0.20299E-01   -0.74126E-03  4635   0.974E-02    0.564E-02
RMM:   6    -0.413167967603E+03   -0.97600E-05   -0.15492E-03  5379   0.386E-02    0.316E-02
RMM:   7    -0.413167981547E+03   -0.13944E-04   -0.30175E-04  5867   0.161E-02    0.185E-02
RMM:   8    -0.413167979334E+03    0.22127E-05   -0.51108E-05  5073   0.837E-03    0.735E-03
RMM:   9    -0.413167977899E+03    0.14354E-05   -0.58546E-06  3052   0.321E-03    0.385E-03
RMM:  10    -0.413167978966E+03   -0.10676E-05   -0.14760E-06  2515   0.202E-03    0.240E-03
RMM:  11    -0.413167980033E+03   -0.10670E-05   -0.10583E-06  2489   0.163E-03    0.126E-03
RMM:  12    -0.413167980422E+03   -0.38857E-06   -0.68835E-07  2438   0.131E-03
   15 T=    61. E= -.41286635E+03 F= -.41316798E+03 E0= -.41314575E+03  EK= 0.30163E+00 SP= 0.00E+00 SK= 0.00E+00
       N       E                     dE             d eps       ncg     rms          rms(c)
RMM:   1    -0.413171861271E+03   -0.38812E-02   -0.81480E+00  4296   0.640E-01    0.912E-01
RMM:   2    -0.413174041586E+03   -0.21803E-02   -0.10091E-01  4258   0.873E-02    0.656E-01
RMM:   3    -0.413170294857E+03    0.37467E-02   -0.23446E-02  4956   0.608E-02    0.159E-01
RMM:   4    -0.413203279938E+03   -0.32985E-01   -0.38085E-02  5105   0.163E-01    0.764E-01
RMM:   5    -0.413168859513E+03    0.34420E-01   -0.15982E-02  4781   0.126E-01    0.532E-02
RMM:   6    -0.413169060388E+03   -0.20088E-03   -0.28830E-03  5727   0.526E-02    0.375E-02
RMM:   7    -0.413169044264E+03    0.16124E-04   -0.49657E-04  5664   0.209E-02    0.238E-02
RMM:   8    -0.413169032323E+03    0.11941E-04   -0.69428E-05  5219   0.936E-03    0.110E-02
RMM:   9    -0.413169026761E+03    0.55615E-05   -0.13112E-05  3898   0.412E-03    0.764E-03
RMM:  10    -0.413169022892E+03    0.38690E-05   -0.23188E-06  2587   0.242E-03    0.453E-03
RMM:  11    -0.413169020341E+03    0.25510E-05   -0.11692E-06  2512   0.174E-03    0.260E-03
RMM:  12    -0.413169015224E+03    0.51168E-05   -0.18085E-06  2572   0.204E-03    0.116E-03
RMM:  13    -0.413169011702E+03    0.35227E-05   -0.72933E-07  2435   0.143E-03    0.977E-04
RMM:  14    -0.413169011770E+03   -0.68590E-07   -0.27607E-07  2024   0.922E-04
   16 T=    62. E= -.41286669E+03 F= -.41316901E+03 E0= -.41314681E+03  EK= 0.30232E+00 SP= 0.00E+00 SK= 0.00E+00
       N       E                     dE             d eps       ncg     rms          rms(c)
RMM:   1    -0.413171785784E+03   -0.27741E-02   -0.80984E+00  4296   0.640E-01    0.894E-01
RMM:   2    -0.413174545091E+03   -0.27593E-02   -0.10058E-01  4261   0.899E-02    0.650E-01
RMM:   3    -0.413170456325E+03    0.40888E-02   -0.23396E-02  4896   0.594E-02    0.142E-01
RMM:   4    -0.413200746943E+03   -0.30291E-01   -0.33840E-02  5108   0.154E-01    0.731E-01
RMM:   5    -0.413169307828E+03    0.31439E-01   -0.14801E-02  4785   0.121E-01    0.510E-02
RMM:   6    -0.413169501169E+03   -0.19334E-03   -0.26822E-03  5761   0.500E-02    0.359E-02
RMM:   7    -0.413169490945E+03    0.10224E-04   -0.45064E-04  5611   0.203E-02    0.228E-02
RMM:   8    -0.413169477887E+03    0.13058E-04   -0.66005E-05  5104   0.914E-03    0.108E-02
RMM:   9    -0.413169473155E+03    0.47322E-05   -0.12767E-05  3860   0.407E-03    0.775E-03
RMM:  10    -0.413169470597E+03    0.25580E-05   -0.21768E-06  2571   0.238E-03    0.460E-03
RMM:  11    -0.413169468902E+03    0.16945E-05   -0.12295E-06  2506   0.179E-03    0.256E-03
RMM:  12    -0.413169465661E+03    0.32410E-05   -0.17499E-06  2561   0.202E-03    0.114E-03
RMM:  13    -0.413169463474E+03    0.21877E-05   -0.61717E-07  2389   0.136E-03    0.890E-04
RMM:  14    -0.413169463460E+03    0.13708E-07   -0.25603E-07  1972   0.884E-04
   17 T=    62. E= -.41286658E+03 F= -.41316946E+03 E0= -.41314730E+03  EK= 0.30288E+00 SP= 0.00E+00 SK= 0.00E+00
       N       E                     dE             d eps       ncg     rms          rms(c)
RMM:   1    -0.413172298958E+03   -0.28355E-02   -0.81946E+00  4293   0.645E-01    0.894E-01
RMM:   2    -0.413175131544E+03   -0.28326E-02   -0.10203E-01  4269   0.907E-02    0.660E-01
RMM:   3    -0.413171120065E+03    0.40115E-02   -0.25244E-02  4914   0.599E-02    0.154E-01
RMM:   4    -0.413201210018E+03   -0.30090E-01   -0.34053E-02  5111   0.155E-01    0.731E-01
RMM:   5    -0.413169822602E+03    0.31387E-01   -0.14869E-02  4781   0.121E-01    0.504E-02
RMM:   6    -0.413170021042E+03   -0.19844E-03   -0.26197E-03  5749   0.499E-02    0.348E-02
RMM:   7    -0.413170014417E+03    0.66246E-05   -0.44112E-04  5613   0.201E-02    0.222E-02
RMM:   8    -0.413170006297E+03    0.81203E-05   -0.64814E-05  5089   0.923E-03    0.105E-02
RMM:   9    -0.413170003568E+03    0.27290E-05   -0.12839E-05  3833   0.410E-03    0.745E-03
RMM:  10    -0.413170003979E+03   -0.41134E-06   -0.21377E-06  2577   0.236E-03
   18 T=    62. E= -.41286649E+03 F= -.41317000E+03 E0= -.41314789E+03  EK= 0.30351E+00 SP= 0.00E+00 SK= 0.00E+00
       N       E                     dE             d eps       ncg     rms          rms(c)
RMM:   1    -0.413173934643E+03   -0.39311E-02   -0.81966E+00  4299   0.653E-01    0.912E-01
RMM:   2    -0.413175892409E+03   -0.19578E-02   -0.10199E-01  4324   0.878E-02    0.659E-01
RMM:   3    -0.413178781814E+03   -0.28894E-02   -0.28315E-02  5125   0.924E-02    0.371E-01
RMM:   4    -0.413191991039E+03   -0.13209E-01   -0.38111E-02  5064   0.168E-01    0.596E-01
RMM:   5    -0.413171178392E+03    0.20813E-01   -0.75230E-03  4644   0.975E-02    0.571E-02
RMM:   6    -0.413171199916E+03   -0.21524E-04   -0.16479E-03  5425   0.394E-02    0.331E-02
RMM:   7    -0.413171202011E+03   -0.20954E-05   -0.31723E-04  5848   0.167E-02    0.195E-02
RMM:   8    -0.413171194159E+03    0.78520E-05   -0.53620E-05  5060   0.864E-03    0.778E-03
RMM:   9    -0.413171188954E+03    0.52052E-05   -0.65713E-06  3138   0.333E-03    0.408E-03
RMM:  10    -0.413171186307E+03    0.26473E-05   -0.15499E-06  2521   0.209E-03    0.251E-03
RMM:  11    -0.413171182892E+03    0.34151E-05   -0.10257E-06  2479   0.165E-03    0.130E-03
RMM:  12    -0.413171179200E+03    0.36922E-05   -0.68692E-07  2453   0.134E-03    0.538E-04
RMM:  13    -0.413171176964E+03    0.22360E-05   -0.34750E-07  2092   0.986E-04    0.333E-04
RMM:  14    -0.413171174986E+03    0.19776E-05   -0.19469E-07  1565   0.769E-04    0.223E-04
RMM:  15    -0.413171170823E+03    0.41631E-05   -0.20225E-07  1530   0.756E-04    0.212E-04
RMM:  16    -0.413171167724E+03    0.30988E-05   -0.12672E-07  1185   0.656E-04    0.161E-04
RMM:  17    -0.413171164992E+03    0.27325E-05   -0.10265E-07  1193   0.637E-04    0.752E-05
RMM:  18    -0.413171162774E+03    0.22179E-05   -0.69360E-08  1041   0.599E-04    0.476E-05
RMM:  19    -0.413171161664E+03    0.11095E-05   -0.39178E-08   884   0.558E-04    0.402E-05
RMM:  20    -0.413171161388E+03    0.27578E-06   -0.17821E-08   720   0.531E-04
   19 T=    62. E= -.41286679E+03 F= -.41317116E+03 E0= -.41314908E+03  EK= 0.30437E+00 SP= 0.00E+00 SK= 0.00E+00
       N       E                     dE             d eps       ncg     rms          rms(c)
RMM:   1    -0.413174081072E+03   -0.29194E-02   -0.81554E+00  4295   0.661E-01    0.902E-01
RMM:   2    -0.413176082543E+03   -0.20015E-02   -0.10168E-01  4255   0.837E-02    0.653E-01
RMM:   3    -0.413172850950E+03    0.32316E-02   -0.23266E-02  5014   0.564E-02    0.159E-01
RMM:   4    -0.413206014820E+03   -0.33164E-01   -0.38674E-02  5115   0.164E-01    0.766E-01
RMM:   5    -0.413171412776E+03    0.34602E-01   -0.16204E-02  4784   0.127E-01    0.534E-02
RMM:   6    -0.413171612038E+03   -0.19926E-03   -0.28843E-03  5720   0.522E-02    0.374E-02
RMM:   7    -0.413171598488E+03    0.13550E-04   -0.48855E-04  5619   0.209E-02    0.236E-02
RMM:   8    -0.413171587133E+03    0.11355E-04   -0.70796E-05  5215   0.952E-03    0.108E-02
RMM:   9    -0.413171581570E+03    0.55637E-05   -0.13682E-05  3960   0.423E-03    0.740E-03
RMM:  10    -0.413171578380E+03    0.31899E-05   -0.23185E-06  2592   0.240E-03    0.444E-03
RMM:  11    -0.413171576379E+03    0.20004E-05   -0.10567E-06  2500   0.168E-03    0.261E-03
RMM:  12    -0.413171572248E+03    0.41318E-05   -0.16585E-06  2547   0.198E-03    0.118E-03
RMM:  13    -0.413171569490E+03    0.27579E-05   -0.69429E-07  2408   0.141E-03    0.954E-04
RMM:  14    -0.413171569381E+03    0.10878E-06   -0.27680E-07  2013   0.925E-04
   20 T=    62. E= -.41286652E+03 F= -.41317157E+03 E0= -.41314954E+03  EK= 0.30505E+00 SP= 0.00E+00 SK= 0.00E+00
       N       E                     dE             d eps       ncg     rms          rms(c)
RMM:   1    -0.413176415045E+03   -0.48456E-02   -0.82471E+00  4295   0.677E-01    0.893E-01
RMM:   2    -0.413177735422E+03   -0.13204E-02   -0.10651E-01  4269   0.871E-02    0.661E-01
RMM:   3    -0.413173465401E+03    0.42700E-02   -0.24268E-02  4904   0.546E-02    0.132E-01
RMM:   4    -0.413200712180E+03   -0.27247E-01   -0.29861E-02  5119   0.144E-01    0.694E-01
RMM:   5    -0.413172510857E+03    0.28201E-01   -0.13557E-02  4788   0.115E-01    0.488E-02
RMM:   6    -0.413172681800E+03   -0.17094E-03   -0.24068E-03  5800   0.471E-02    0.332E-02
RMM:   7    -0.413172683556E+03   -0.17554E-05   -0.38236E-04  5610   0.193E-02    0.210E-02
RMM:   8    -0.413172675518E+03    0.80373E-05   -0.64511E-05  5022   0.901E-03    0.105E-02
RMM:   9    -0.413172672416E+03    0.31024E-05   -0.12766E-05  3896   0.411E-03    0.765E-03
RMM:  10    -0.413172672311E+03    0.10544E-06   -0.20319E-06  2560   0.232E-03
   21 T=    62. E= -.41286660E+03 F= -.41317267E+03 E0= -.41315068E+03  EK= 0.30607E+00 SP= 0.00E+00 SK= 0.00E+00
       N       E                     dE             d eps       ncg     rms          rms(c)
RMM:   1    -0.413178330607E+03   -0.56582E-02   -0.82841E+00  4298   0.686E-01    0.911E-01
RMM:   2    -0.413178871466E+03   -0.54086E-03   -0.10258E-01  4350   0.866E-02    0.662E-01
RMM:   3    -0.413181004616E+03   -0.21332E-02   -0.28492E-02  5118   0.923E-02    0.361E-01
RMM:   4    -0.413196070829E+03   -0.15066E-01   -0.39173E-02  5066   0.170E-01    0.616E-01
RMM:   5    -0.413173788745E+03    0.22282E-01   -0.82655E-03  4650   0.101E-01    0.563E-02
RMM:   6    -0.413173826649E+03   -0.37904E-04   -0.17350E-03  5457   0.408E-02    0.332E-02
RMM:   7    -0.413173828188E+03   -0.15390E-05   -0.33090E-04  5782   0.171E-02    0.198E-02
RMM:   8    -0.413173821347E+03    0.68412E-05   -0.53931E-05  5065   0.865E-03    0.786E-03
RMM:   9    -0.413173816481E+03    0.48654E-05   -0.68883E-06  3204   0.338E-03    0.419E-03
RMM:  10    -0.413173814032E+03    0.24496E-05   -0.16248E-06  2527   0.209E-03    0.260E-03
RMM:  11    -0.413173811087E+03    0.29446E-05   -0.95756E-07  2470   0.161E-03    0.132E-03
RMM:  12    -0.413173807406E+03    0.36815E-05   -0.69768E-07  2451   0.134E-03    0.531E-04
RMM:  13    -0.413173805175E+03    0.22310E-05   -0.34267E-07  2077   0.981E-04    0.324E-04
RMM:  14    -0.413173803467E+03    0.17077E-05   -0.18527E-07  1567   0.760E-04    0.219E-04
RMM:  15    -0.413173799708E+03    0.37587E-05   -0.16816E-07  1464   0.730E-04    0.194E-04
RMM:  16    -0.413173796406E+03    0.33026E-05   -0.11795E-07  1191   0.655E-04    0.182E-04
RMM:  17    -0.413173794168E+03    0.22378E-05   -0.76531E-08  1067   0.611E-04    0.898E-05
RMM:  18    -0.413173791522E+03    0.26458E-05   -0.66822E-08  1050   0.602E-04    0.389E-05
RMM:  19    -0.413173790214E+03    0.13083E-05   -0.34880E-08   875   0.565E-04    0.316E-05
RMM:  20    -0.413173789717E+03    0.49676E-06   -0.17974E-08   748   0.543E-04
   22 T=    63. E= -.41286668E+03 F= -.41317379E+03 E0= -.41315185E+03  EK= 0.30711E+00 SP= 0.00E+00 SK= 0.00E+00
       N       E                     dE             d eps       ncg     rms          rms(c)
RMM:   1    -0.413181678717E+03   -0.78885E-02   -0.82877E+00  4296   0.716E-01    0.911E-01
RMM:   2    -0.413179491290E+03    0.21874E-02   -0.10305E-01  4280   0.902E-02    0.657E-01
RMM:   3    -0.413175609688E+03    0.38816E-02   -0.23197E-02  4962   0.583E-02    0.150E-01
RMM:   4    -0.413208471388E+03   -0.32862E-01   -0.37535E-02  5119   0.162E-01    0.761E-01
RMM:   5    -0.413174324025E+03    0.34147E-01   -0.16148E-02  4786   0.126E-01    0.530E-02
RMM:   6    -0.413174521168E+03   -0.19714E-03   -0.28841E-03  5746   0.524E-02    0.375E-02
RMM:   7    -0.413174509694E+03    0.11474E-04   -0.48713E-04  5602   0.212E-02    0.237E-02
RMM:   8    -0.413174497759E+03    0.11936E-04   -0.73215E-05  5213   0.965E-03    0.113E-02
RMM:   9    -0.413174491346E+03    0.64129E-05   -0.13880E-05  3978   0.425E-03    0.780E-03
RMM:  10    -0.413174486815E+03    0.45304E-05   -0.23577E-06  2589   0.244E-03    0.464E-03
RMM:  11    -0.413174483999E+03    0.28164E-05   -0.11102E-06  2502   0.172E-03    0.275E-03
RMM:  12    -0.413174478212E+03    0.57874E-05   -0.18123E-06  2564   0.207E-03    0.125E-03
RMM:  13    -0.413174474412E+03    0.37996E-05   -0.73497E-07  2415   0.145E-03    0.101E-03
RMM:  14    -0.413174474378E+03    0.34066E-07   -0.28723E-07  2056   0.944E-04
   23 T=    63. E= -.41286647E+03 F= -.41317447E+03 E0= -.41315258E+03  EK= 0.30800E+00 SP= 0.00E+00 SK= 0.00E+00
       N       E                     dE             d eps       ncg     rms          rms(c)
RMM:   1    -0.413178344240E+03   -0.38698E-02   -0.82820E+00  4294   0.672E-01    0.896E-01
RMM:   2    -0.413181472686E+03   -0.31284E-02   -0.10350E-01  4282   0.900E-02    0.660E-01
RMM:   3    -0.413176879868E+03    0.45928E-02   -0.24495E-02  4864   0.586E-02    0.132E-01
RMM:   4    -0.413203450791E+03   -0.26571E-01   -0.28999E-02  5117   0.143E-01    0.686E-01
RMM:   5    -0.413175952111E+03    0.27499E-01   -0.13186E-02  4790   0.113E-01    0.487E-02
RMM:   6    -0.413176112456E+03   -0.16034E-03   -0.23772E-03  5813   0.463E-02    0.324E-02
RMM:   7    -0.413176114304E+03   -0.18479E-05   -0.35115E-04  5643   0.184E-02    0.200E-02
RMM:   8    -0.413176105064E+03    0.92399E-05   -0.66017E-05  4997   0.882E-03    0.108E-02
RMM:   9    -0.413176100429E+03    0.46349E-05   -0.12439E-05  3932   0.413E-03    0.780E-03
RMM:  10    -0.413176098796E+03    0.16332E-05   -0.20638E-06  2572   0.237E-03    0.456E-03
RMM:  11    -0.413176097607E+03    0.11892E-05   -0.13822E-06  2517   0.188E-03    0.245E-03
RMM:  12    -0.413176095525E+03    0.20822E-05   -0.16309E-06  2543   0.195E-03    0.115E-03
RMM:  13    -0.413176094223E+03    0.13018E-05   -0.51808E-07  2337   0.128E-03    0.714E-04
RMM:  14    -0.413176093847E+03    0.37615E-06   -0.23369E-07  1877   0.853E-04
   24 T=    63. E= -.41286682E+03 F= -.41317609E+03 E0= -.41315425E+03  EK= 0.30927E+00 SP= 0.00E+00 SK= 0.00E+00
       N       E                     dE             d eps       ncg     rms          rms(c)
RMM:   1    -0.413179633006E+03   -0.35388E-02   -0.83519E+00  4297   0.676E-01    0.910E-01
RMM:   2    -0.413182364621E+03   -0.27316E-02   -0.10430E-01  4290   0.900E-02    0.666E-01
RMM:   3    -0.413178154084E+03    0.42105E-02   -0.24502E-02  4931   0.608E-02    0.147E-01
RMM:   4    -0.413209504282E+03   -0.31350E-01   -0.35158E-02  5118   0.157E-01    0.743E-01
RMM:   5    -0.413176959074E+03    0.32545E-01   -0.15393E-02  4787   0.123E-01    0.517E-02
RMM:   6    -0.413177146786E+03   -0.18771E-03   -0.28200E-03  5780   0.511E-02    0.360E-02
RMM:   7    -0.413177136949E+03    0.98364E-05   -0.46672E-04  5607   0.206E-02    0.231E-02
RMM:   8    -0.413177123822E+03    0.13127E-04   -0.69691E-05  5117   0.949E-03    0.111E-02
RMM:   9    -0.413177118675E+03    0.51471E-05   -0.13728E-05  3933   0.422E-03    0.780E-03
RMM:  10    -0.413177115946E+03    0.27292E-05   -0.22716E-06  2588   0.241E-03    0.461E-03
RMM:  11    -0.413177114128E+03    0.18185E-05   -0.11928E-06  2500   0.177E-03    0.264E-03
RMM:  12    -0.413177110586E+03    0.35418E-05   -0.18264E-06  2557   0.205E-03    0.121E-03
RMM:  13    -0.413177108026E+03    0.25598E-05   -0.64958E-07  2402   0.139E-03    0.953E-04
RMM:  14    -0.413177107979E+03    0.46799E-07   -0.27115E-07  2002   0.907E-04
   25 T=    63. E= -.41286668E+03 F= -.41317711E+03 E0= -.41315531E+03  EK= 0.31043E+00 SP= 0.00E+00 SK= 0.00E+00
       N       E                     dE             d eps       ncg     rms          rms(c)
RMM:   1    -0.413185802178E+03   -0.86942E-02   -0.83948E+00  4292   0.739E-01    0.919E-01
RMM:   2    -0.413183347462E+03    0.24547E-02   -0.11396E-01  4285   0.966E-02    0.663E-01
RMM:   3    -0.413179106970E+03    0.42405E-02   -0.21622E-02  4853   0.571E-02    0.120E-01
RMM:   4    -0.413209226038E+03   -0.30119E-01   -0.32364E-02  5118   0.150E-01    0.725E-01
RMM:   5    -0.413178320828E+03    0.30905E-01   -0.14979E-02  4793   0.120E-01    0.512E-02
RMM:   6    -0.413178488133E+03   -0.16730E-03   -0.26759E-03  5808   0.496E-02    0.354E-02
RMM:   7    -0.413178476002E+03    0.12131E-04   -0.41990E-04  5616   0.201E-02    0.220E-02
RMM:   8    -0.413178461095E+03    0.14908E-04   -0.73366E-05  5055   0.949E-03    0.115E-02
RMM:   9    -0.413178453687E+03    0.74074E-05   -0.14279E-05  4076   0.433E-03    0.826E-03
RMM:  10    -0.413178448193E+03    0.54938E-05   -0.22671E-06  2584   0.242E-03    0.489E-03
RMM:  11    -0.413178443988E+03    0.42053E-05   -0.13246E-06  2517   0.185E-03    0.280E-03
RMM:  12    -0.413178436299E+03    0.76896E-05   -0.19017E-06  2574   0.211E-03    0.123E-03
RMM:  13    -0.413178431550E+03    0.47488E-05   -0.63940E-07  2400   0.140E-03    0.916E-04
RMM:  14    -0.413178431758E+03   -0.20873E-06   -0.27440E-07  1995   0.907E-04
   26 T=    63. E= -.41286661E+03 F= -.41317843E+03 E0= -.41315668E+03  EK= 0.31183E+00 SP= 0.00E+00 SK= 0.00E+00
       N       E                     dE             d eps       ncg     rms          rms(c)
RMM:   1    -0.413185368164E+03   -0.69366E-02   -0.83827E+00  4297   0.718E-01    0.901E-01
RMM:   2    -0.413185200022E+03    0.16814E-03   -0.10476E-01  4291   0.912E-02    0.662E-01
RMM:   3    -0.413181168858E+03    0.40312E-02   -0.24014E-02  4940   0.567E-02    0.134E-01
RMM:   4    -0.413209991013E+03   -0.28822E-01   -0.31724E-02  5123   0.149E-01    0.713E-01
RMM:   5    -0.413180188132E+03    0.29803E-01   -0.14330E-02  4786   0.118E-01    0.501E-02
RMM:   6    -0.413180348786E+03   -0.16065E-03   -0.25886E-03  5813   0.487E-02    0.340E-02
RMM:   7    -0.413180346386E+03    0.24006E-05   -0.40176E-04  5625   0.197E-02    0.214E-02
RMM:   8    -0.413180334763E+03    0.11622E-04   -0.70765E-05  5032   0.929E-03    0.112E-02
RMM:   9    -0.413180328870E+03    0.58933E-05   -0.13470E-05  3989   0.426E-03    0.801E-03
RMM:  10    -0.413180325779E+03    0.30909E-05   -0.21613E-06  2574   0.240E-03    0.472E-03
RMM:  11    -0.413180323479E+03    0.23004E-05   -0.13137E-06  2518   0.184E-03    0.265E-03
RMM:  12    -0.413180319289E+03    0.41895E-05   -0.17740E-06  2553   0.205E-03    0.119E-03
RMM:  13    -0.413180316537E+03    0.27518E-05   -0.58510E-07  2372   0.135E-03    0.838E-04
RMM:  14    -0.413180316474E+03    0.63847E-07   -0.25712E-07  1945   0.884E-04
   27 T=    64. E= -.41286681E+03 F= -.41318032E+03 E0= -.41315862E+03  EK= 0.31350E+00 SP= 0.00E+00 SK= 0.00E+00
       N       E                     dE             d eps       ncg     rms          rms(c)
RMM:   1    -0.413185571900E+03   -0.52554E-02   -0.84862E+00  4299   0.722E-01    0.910E-01
RMM:   2    -0.413186473915E+03   -0.90201E-03   -0.11137E-01  4291   0.978E-02    0.672E-01
RMM:   3    -0.413182010327E+03    0.44636E-02   -0.24125E-02  4862   0.569E-02    0.120E-01
RMM:   4    -0.413207624148E+03   -0.25614E-01   -0.27334E-02  5131   0.138E-01    0.672E-01
RMM:   5    -0.413181223687E+03    0.26400E-01   -0.12878E-02  4796   0.111E-01    0.485E-02
RMM:   6    -0.413181369780E+03   -0.14609E-03   -0.22972E-03  5828   0.457E-02    0.323E-02
RMM:   7    -0.413181371723E+03   -0.19430E-05   -0.33982E-04  5637   0.185E-02    0.195E-02
RMM:   8    -0.413181363263E+03    0.84600E-05   -0.64641E-05  4987   0.874E-03    0.109E-02
RMM:   9    -0.413181358263E+03    0.49993E-05   -0.12545E-05  3964   0.413E-03    0.787E-03
RMM:  10    -0.413181356020E+03    0.22431E-05   -0.20362E-06  2565   0.236E-03    0.461E-03
RMM:  11    -0.413181354171E+03    0.18491E-05   -0.14216E-06  2522   0.190E-03    0.248E-03
RMM:  12    -0.413181351150E+03    0.30211E-05   -0.16065E-06  2533   0.195E-03    0.110E-03
RMM:  13    -0.413181349255E+03    0.18955E-05   -0.52300E-07  2331   0.128E-03    0.708E-04
RMM:  14    -0.413181348949E+03    0.30563E-06   -0.23840E-07  1863   0.854E-04
   28 T=    64. E= -.41286640E+03 F= -.41318135E+03 E0= -.41315970E+03  EK= 0.31495E+00 SP= 0.00E+00 SK= 0.00E+00
       N       E                     dE             d eps       ncg     rms          rms(c)
RMM:   1    -0.413190604832E+03   -0.92556E-02   -0.85241E+00  4291   0.776E-01    0.928E-01
RMM:   2    -0.413188368600E+03    0.22362E-02   -0.10894E-01  4281   0.997E-02    0.669E-01
RMM:   3    -0.413183778262E+03    0.45903E-02   -0.22859E-02  4716   0.539E-02    0.948E-02
RMM:   4    -0.413202055937E+03   -0.18278E-01   -0.18858E-02  5135   0.115E-01    0.569E-01
RMM:   5    -0.413183326293E+03    0.18730E-01   -0.92695E-03  4807   0.937E-02    0.465E-02
RMM:   6    -0.413183426246E+03   -0.99952E-04   -0.16916E-03  5836   0.386E-02    0.300E-02
RMM:   7    -0.413183421389E+03    0.48569E-05   -0.19972E-04  5518   0.153E-02    0.144E-02
RMM:   8    -0.413183414864E+03    0.65246E-05   -0.32880E-05  4727   0.617E-03    0.936E-03
RMM:   9    -0.413183409907E+03    0.49572E-05   -0.77786E-06  3385   0.321E-03    0.697E-03
RMM:  10    -0.413183405580E+03    0.43263E-05   -0.16863E-06  2533   0.225E-03    0.405E-03
RMM:  11    -0.413183399789E+03    0.57911E-05   -0.17673E-06  2553   0.207E-03    0.203E-03
RMM:  12    -0.413183393087E+03    0.67029E-05   -0.11925E-06  2481   0.177E-03    0.107E-03
RMM:  13    -0.413183391055E+03    0.20316E-05   -0.41047E-07  2274   0.114E-03    0.656E-04
RMM:  14    -0.413183390135E+03    0.92028E-06   -0.18842E-07  1719   0.782E-04
   29 T=    64. E= -.41286667E+03 F= -.41318339E+03 E0= -.41316179E+03  EK= 0.31672E+00 SP= 0.00E+00 SK= 0.00E+00
       N       E                     dE             d eps       ncg     rms          rms(c)
RMM:   1    -0.413188790555E+03   -0.53995E-02   -0.84780E+00  4292   0.740E-01    0.910E-01
RMM:   2    -0.413190621296E+03   -0.18307E-02   -0.10808E-01  4277   0.103E-01    0.665E-01
RMM:   3    -0.413185539650E+03    0.50816E-02   -0.23341E-02  4638   0.582E-02    0.925E-02
RMM:   4    -0.413200661010E+03   -0.15121E-01   -0.15505E-02  5144   0.105E-01    0.520E-01
RMM:   5    -0.413185124743E+03    0.15536E-01   -0.77300E-03  4808   0.854E-02    0.449E-02
RMM:   6    -0.413185207722E+03   -0.82979E-04   -0.14373E-03  5831   0.355E-02    0.287E-02
RMM:   7    -0.413185207710E+03    0.12464E-07   -0.18947E-04  5474   0.148E-02    0.148E-02
RMM:   8    -0.413185198147E+03    0.95628E-05   -0.29255E-05  4635   0.589E-03    0.867E-03
RMM:   9    -0.413185196751E+03    0.13960E-05   -0.72814E-06  3331   0.318E-03    0.679E-03
RMM:  10    -0.413185192700E+03    0.40510E-05   -0.15371E-06  2515   0.219E-03    0.367E-03
RMM:  11    -0.413185188917E+03    0.37833E-05   -0.13523E-06  2520   0.185E-03    0.190E-03
RMM:  12    -0.413185184579E+03    0.43381E-05   -0.97588E-07  2466   0.159E-03    0.994E-04
RMM:  13    -0.413185182955E+03    0.16238E-05   -0.36487E-07  2195   0.106E-03    0.542E-04
RMM:  14    -0.413185181851E+03    0.11038E-05   -0.17091E-07  1616   0.757E-04    0.408E-04
RMM:  15    -0.413185177863E+03    0.39882E-05   -0.17893E-07  1903   0.782E-04    0.339E-04
RMM:  16    -0.413185175084E+03    0.27787E-05   -0.81584E-08  1218   0.624E-04    0.286E-04
RMM:  17    -0.413185172379E+03    0.27053E-05   -0.44964E-08   869   0.558E-04    0.197E-04
RMM:  18    -0.413185169138E+03    0.32407E-05   -0.51737E-08   966   0.581E-04    0.463E-05
RMM:  19    -0.413185167120E+03    0.20179E-05   -0.35770E-08   947   0.574E-04    0.974E-05
RMM:  20    -0.413185166890E+03    0.23045E-06   -0.98860E-09   659   0.527E-04
   30 T=    65. E= -.41286669E+03 F= -.41318517E+03 E0= -.41316362E+03  EK= 0.31848E+00 SP= 0.00E+00 SK= 0.00E+00
       N       E                     dE             d eps       ncg     rms          rms(c)
RMM:   1    -0.413195088353E+03   -0.99212E-02   -0.86571E+00  4294   0.795E-01    0.913E-01
RMM:   2    -0.413192751432E+03    0.23369E-02   -0.11903E-01  4275   0.114E-01    0.677E-01
RMM:   3    -0.413187018548E+03    0.57329E-02   -0.23564E-02  4470   0.624E-02    0.784E-02
RMM:   4    -0.413195035790E+03   -0.80172E-02   -0.81249E-03  5155   0.771E-02    0.382E-01
RMM:   5    -0.413186783134E+03    0.82527E-02   -0.41539E-03  4820   0.625E-02    0.420E-02
RMM:   6    -0.413186839463E+03   -0.56329E-04   -0.90743E-04  5807   0.279E-02    0.279E-02
RMM:   7    -0.413186838722E+03    0.74135E-06   -0.22633E-04  5327   0.157E-02    0.180E-02
RMM:   8    -0.413186824620E+03    0.14102E-04   -0.23349E-05  4418   0.615E-03    0.787E-03
RMM:   9    -0.413186823989E+03    0.63108E-06   -0.41183E-06  2832   0.263E-03
   31 T=    65. E= -.41286652E+03 F= -.41318682E+03 E0= -.41316533E+03  EK= 0.32031E+00 SP= 0.00E+00 SK= 0.00E+00
       N       E                     dE             d eps       ncg     rms          rms(c)
RMM:   1    -0.413196404309E+03   -0.95797E-02   -0.86666E+00  4290   0.793E-01    0.934E-01
RMM:   2    -0.413194999219E+03    0.14051E-02   -0.11824E-01  4303   0.118E-01    0.677E-01
RMM:   3    -0.413191596215E+03    0.34030E-02   -0.23579E-02  4946   0.814E-02    0.203E-01
RMM:   4    -0.413229997273E+03   -0.38401E-01   -0.47501E-02  5100   0.183E-01    0.827E-01
RMM:   5    -0.413189225404E+03    0.40772E-01   -0.18620E-02  4770   0.137E-01    0.567E-02
RMM:   6    -0.413189444065E+03   -0.21866E-03   -0.34579E-03  5795   0.563E-02    0.379E-02
RMM:   7    -0.413189451286E+03   -0.72211E-05   -0.50136E-04  5665   0.215E-02    0.241E-02
RMM:   8    -0.413189444039E+03    0.72469E-05   -0.10031E-04  5218   0.109E-02    0.131E-02
RMM:   9    -0.413189433588E+03    0.10450E-04   -0.16395E-05  4198   0.495E-03    0.777E-03
RMM:  10    -0.413189427433E+03    0.61553E-05   -0.33515E-06  2754   0.276E-03    0.479E-03
RMM:  11    -0.413189423278E+03    0.41552E-05   -0.12577E-06  2513   0.188E-03    0.281E-03
RMM:  12    -0.413189414906E+03    0.83723E-05   -0.17968E-06  2543   0.212E-03    0.114E-03
RMM:  13    -0.413189410490E+03    0.44154E-05   -0.74169E-07  2413   0.147E-03    0.802E-04
RMM:  14    -0.413189409377E+03    0.11136E-05   -0.31843E-07  2105   0.983E-04    0.532E-04
RMM:  15    -0.413189407509E+03    0.18679E-05   -0.15986E-07  1576   0.743E-04    0.344E-04
RMM:  16    -0.413189401374E+03    0.61347E-05   -0.18203E-07  1921   0.784E-04    0.459E-04
RMM:  17    -0.413189398900E+03    0.24741E-05   -0.73649E-08  1128   0.592E-04    0.381E-04
RMM:  18    -0.413189392906E+03    0.59934E-05   -0.82019E-08  1050   0.603E-04    0.209E-04
RMM:  19    -0.413189392118E+03    0.78890E-06   -0.39771E-08   890   0.555E-04
   32 T=    66. E= -.41286680E+03 F= -.41318939E+03 E0= -.41316794E+03  EK= 0.32260E+00 SP= 0.00E+00 SK= 0.00E+00
       N       E                     dE             d eps       ncg     rms          rms(c)
RMM:   1    -0.413197577560E+03   -0.81847E-02   -0.86522E+00  4298   0.812E-01    0.922E-01
RMM:   2    -0.413196474542E+03    0.11030E-02   -0.11682E-01  4273   0.119E-01    0.672E-01
RMM:   3    -0.413191480252E+03    0.49943E-02   -0.22513E-02  4374   0.677E-02    0.655E-02
RMM:   4    -0.413194227517E+03   -0.27473E-02   -0.29296E-03  5153   0.464E-02    0.227E-01
RMM:   5    -0.413191387848E+03    0.28397E-02   -0.15191E-03  4832   0.379E-02    0.420E-02
RMM:   6    -0.413191437691E+03   -0.49843E-04   -0.62449E-04  5535   0.239E-02    0.326E-02
RMM:   7    -0.413191397136E+03    0.40555E-04   -0.23232E-04  5072   0.161E-02    0.182E-02
RMM:   8    -0.413191388879E+03    0.82569E-05   -0.28932E-05  4634   0.583E-03    0.676E-03
RMM:   9    -0.413191387172E+03    0.17064E-05   -0.29527E-06  2596   0.229E-03    0.408E-03
RMM:  10    -0.413191383254E+03    0.39180E-05   -0.95709E-07  2476   0.163E-03    0.226E-03
RMM:  11    -0.413191378979E+03    0.42754E-05   -0.70477E-07  2402   0.129E-03    0.884E-04
RMM:  12    -0.413191375674E+03    0.33046E-05   -0.33295E-07  2029   0.949E-04    0.365E-04
RMM:  13    -0.413191372633E+03    0.30413E-05   -0.18893E-07  1570   0.770E-04    0.261E-04
RMM:  14    -0.413191369562E+03    0.30706E-05   -0.96774E-08  1092   0.656E-04    0.170E-04
RMM:  15    -0.413191365061E+03    0.45011E-05   -0.87916E-08  1118   0.651E-04    0.850E-05
RMM:  16    -0.413191362053E+03    0.30078E-05   -0.61196E-08  1075   0.619E-04    0.963E-05
RMM:  17    -0.413191358819E+03    0.32340E-05   -0.47692E-08  1015   0.592E-04    0.471E-05
RMM:  18    -0.413191357153E+03    0.16665E-05   -0.29064E-08   850   0.554E-04    0.374E-05
RMM:  19    -0.413191356513E+03    0.63987E-06   -0.13489E-08   679   0.528E-04
   33 T=    66. E= -.41286658E+03 F= -.41319136E+03 E0= -.41316996E+03  EK= 0.32477E+00 SP= 0.00E+00 SK= 0.00E+00
       N       E                     dE             d eps       ncg     rms          rms(c)
RMM:   1    -0.413201584706E+03   -0.10228E-01   -0.88012E+00  4304   0.813E-01    0.917E-01
RMM:   2    -0.413199065834E+03    0.25189E-02   -0.12555E-01  4276   0.126E-01    0.683E-01
RMM:   3    -0.413193896173E+03    0.51697E-02   -0.23131E-02  4369   0.724E-02    0.671E-02
RMM:   4    -0.413197982649E+03   -0.40865E-02   -0.42222E-03  5154   0.556E-02    0.275E-01
RMM:   5    -0.413193769150E+03    0.42135E-02   -0.21997E-03  4833   0.454E-02    0.412E-02
RMM:   6    -0.413193821455E+03   -0.52305E-04   -0.67288E-04  5656   0.242E-02    0.300E-02
RMM:   7    -0.413193798761E+03    0.22693E-04   -0.22644E-04  5147   0.158E-02    0.185E-02
RMM:   8    -0.413193788388E+03    0.10373E-04   -0.22868E-05  4305   0.567E-03    0.696E-03
RMM:   9    -0.413193787653E+03    0.73513E-06   -0.28127E-06  2631   0.227E-03
   34 T=    67. E= -.41286659E+03 F= -.41319379E+03 E0= -.41317243E+03  EK= 0.32720E+00 SP= 0.00E+00 SK= 0.00E+00
       N       E                     dE             d eps       ncg     rms          rms(c)
RMM:   1    -0.413205731600E+03   -0.11943E-01   -0.88687E+00  4302   0.837E-01    0.941E-01
RMM:   2    -0.413201450977E+03    0.42806E-02   -0.11934E-01  4292   0.127E-01    0.684E-01
RMM:   3    -0.413197350804E+03    0.41002E-02   -0.23644E-02  4716   0.835E-02    0.128E-01
RMM:   4    -0.413229940282E+03   -0.32589E-01   -0.34543E-02  5114   0.156E-01    0.755E-01
RMM:   5    -0.413196412429E+03    0.33528E-01   -0.16409E-02  4799   0.125E-01    0.520E-02
RMM:   6    -0.413196575651E+03   -0.16322E-03   -0.28142E-03  5819   0.506E-02    0.344E-02
RMM:   7    -0.413196584473E+03   -0.88219E-05   -0.34419E-04  5566   0.183E-02    0.175E-02
RMM:   8    -0.413196573880E+03    0.10592E-04   -0.42538E-05  4736   0.684E-03    0.967E-03
RMM:   9    -0.413196572238E+03    0.16422E-05   -0.15521E-05  4225   0.414E-03    0.794E-03
RMM:  10    -0.413196566348E+03    0.58903E-05   -0.28754E-06  2700   0.255E-03    0.477E-03
RMM:  11    -0.413196561937E+03    0.44105E-05   -0.17212E-06  2545   0.207E-03    0.273E-03
RMM:  12    -0.413196553499E+03    0.84386E-05   -0.21758E-06  2592   0.226E-03    0.130E-03
RMM:  13    -0.413196550800E+03    0.26986E-05   -0.55677E-07  2409   0.140E-03    0.797E-04
RMM:  14    -0.413196550246E+03    0.55422E-06   -0.23437E-07  1993   0.874E-04
   35 T=    67. E= -.41286675E+03 F= -.41319655E+03 E0= -.41317524E+03  EK= 0.32980E+00 SP= 0.00E+00 SK= 0.00E+00
       N       E                     dE             d eps       ncg     rms          rms(c)
RMM:   1    -0.413216559276E+03   -0.20008E-01   -0.89652E+00  4304   0.936E-01    0.938E-01
RMM:   2    -0.413203562416E+03    0.12997E-01   -0.13039E-01  4261   0.137E-01    0.681E-01
RMM:   3    -0.413198759983E+03    0.48024E-02   -0.21354E-02  4359   0.739E-02    0.693E-02
RMM:   4    -0.413201503867E+03   -0.27439E-02   -0.29865E-03  5181   0.462E-02    0.226E-01
RMM:   5    -0.413198742506E+03    0.27614E-02   -0.15103E-03  4834   0.380E-02    0.428E-02
RMM:   6    -0.413198785495E+03   -0.42989E-04   -0.63312E-04  5542   0.244E-02    0.324E-02
RMM:   7    -0.413198745506E+03    0.39990E-04   -0.22781E-04  5036   0.163E-02    0.189E-02
RMM:   8    -0.413198736510E+03    0.89956E-05   -0.28245E-05  4560   0.579E-03    0.691E-03
RMM:   9    -0.413198734083E+03    0.24269E-05   -0.32050E-06  2613   0.236E-03    0.396E-03
RMM:  10    -0.413198728246E+03    0.58374E-05   -0.10758E-06  2464   0.177E-03    0.212E-03
RMM:  11    -0.413198722779E+03    0.54674E-05   -0.62293E-07  2338   0.127E-03    0.962E-04
RMM:  12    -0.413198717033E+03    0.57454E-05   -0.37338E-07  2044   0.100E-03    0.374E-04
RMM:  13    -0.413198712342E+03    0.46907E-05   -0.20219E-07  1580   0.788E-04    0.271E-04
RMM:  14    -0.413198707643E+03    0.46991E-05   -0.10372E-07  1056   0.664E-04    0.217E-04
RMM:  15    -0.413198700233E+03    0.74101E-05   -0.10608E-07  1220   0.676E-04    0.962E-05
RMM:  16    -0.413198696549E+03    0.36839E-05   -0.61704E-08  1017   0.606E-04    0.101E-04
RMM:  17    -0.413198692445E+03    0.41047E-05   -0.45930E-08   959   0.583E-04    0.417E-05
RMM:  18    -0.413198690691E+03    0.17538E-05   -0.26064E-08   747   0.536E-04    0.290E-05
RMM:  19    -0.413198690157E+03    0.53398E-06   -0.12336E-08   587   0.512E-04
   36 T=    68. E= -.41286646E+03 F= -.41319869E+03 E0= -.41317743E+03  EK= 0.33223E+00 SP= 0.00E+00 SK= 0.00E+00
       N       E                     dE             d eps       ncg     rms          rms(c)
RMM:   1    -0.413204568685E+03   -0.58780E-02   -0.89177E+00  4311   0.843E-01    0.928E-01
RMM:   2    -0.413207134456E+03   -0.25658E-02   -0.11813E-01  4251   0.130E-01    0.686E-01
RMM:   3    -0.413201777395E+03    0.53571E-02   -0.24714E-02  4401   0.758E-02    0.757E-02
RMM:   4    -0.413206665255E+03   -0.48879E-02   -0.50606E-03  5162   0.614E-02    0.303E-01
RMM:   5    -0.413201597156E+03    0.50681E-02   -0.26278E-03  4822   0.500E-02    0.424E-02
RMM:   6    -0.413201626168E+03   -0.29012E-04   -0.73800E-04  5604   0.269E-02    0.323E-02
RMM:   7    -0.413201609247E+03    0.16922E-04   -0.27180E-04  5142   0.173E-02    0.191E-02
RMM:   8    -0.413201599389E+03    0.98574E-05   -0.30958E-05  4887   0.643E-03    0.813E-03
RMM:   9    -0.413201598364E+03    0.10255E-05   -0.43123E-06  2767   0.253E-03    0.438E-03
RMM:  10    -0.413201596688E+03    0.16755E-05   -0.13824E-06  2500   0.194E-03    0.233E-03
RMM:  11    -0.413201594575E+03    0.21136E-05   -0.80933E-07  2444   0.144E-03    0.103E-03
RMM:  12    -0.413201592397E+03    0.21780E-05   -0.44335E-07  2205   0.108E-03    0.488E-04
RMM:  13    -0.413201590286E+03    0.21110E-05   -0.24532E-07  1730   0.833E-04    0.274E-04
RMM:  14    -0.413201587992E+03    0.22941E-05   -0.13074E-07  1232   0.689E-04    0.195E-04
RMM:  15    -0.413201584801E+03    0.31904E-05   -0.90674E-08  1059   0.646E-04    0.999E-05
RMM:  16    -0.413201582145E+03    0.26559E-05   -0.70016E-08  1059   0.627E-04    0.730E-05
RMM:  17    -0.413201580163E+03    0.19826E-05   -0.41472E-08   910   0.585E-04    0.464E-05
RMM:  18    -0.413201577222E+03    0.29409E-05   -0.42974E-08   994   0.592E-04    0.294E-05
RMM:  19    -0.413201576621E+03    0.60053E-06   -0.14632E-08   663   0.534E-04
   37 T=    68. E= -.41286664E+03 F= -.41320158E+03 E0= -.41318036E+03  EK= 0.33494E+00 SP= 0.00E+00 SK= 0.00E+00
       N       E                     dE             d eps       ncg     rms          rms(c)
RMM:   1    -0.413209655462E+03   -0.80782E-02   -0.90388E+00  4309   0.893E-01    0.946E-01
RMM:   2    -0.413209822961E+03   -0.16750E-03   -0.12026E-01  4252   0.125E-01    0.693E-01
RMM:   3    -0.413204681564E+03    0.51414E-02   -0.24335E-02  4708   0.709E-02    0.105E-01
RMM:   4    -0.413228568938E+03   -0.23887E-01   -0.24757E-02  5137   0.132E-01    0.650E-01
RMM:   5    -0.413204148820E+03    0.24420E-01   -0.12193E-02  4808   0.108E-01    0.495E-02
RMM:   6    -0.413204189410E+03   -0.40590E-04   -0.20968E-03  5822   0.440E-02    0.328E-02
RMM:   7    -0.413204205370E+03   -0.15960E-04   -0.34735E-04  5557   0.185E-02    0.200E-02
RMM:   8    -0.413204190862E+03    0.14508E-04   -0.59788E-05  5065   0.844E-03    0.105E-02
RMM:   9    -0.413204189274E+03    0.15877E-05   -0.12840E-05  3986   0.431E-03    0.704E-03
RMM:  10    -0.413204185525E+03    0.37491E-05   -0.23035E-06  2628   0.250E-03    0.385E-03
RMM:  11    -0.413204183045E+03    0.24802E-05   -0.10275E-06  2488   0.170E-03    0.226E-03
RMM:  12    -0.413204177798E+03    0.52470E-05   -0.14875E-06  2526   0.191E-03    0.122E-03
RMM:  13    -0.413204174896E+03    0.29019E-05   -0.51876E-07  2340   0.127E-03    0.707E-04
RMM:  14    -0.413204174191E+03    0.70454E-06   -0.22909E-07  1897   0.848E-04
   38 T=    69. E= -.41286658E+03 F= -.41320417E+03 E0= -.41318300E+03  EK= 0.33759E+00 SP= 0.00E+00 SK= 0.00E+00
       N       E                     dE             d eps       ncg     rms          rms(c)
RMM:   1    -0.413225798403E+03   -0.21624E-01   -0.91957E+00  4310   0.102E+00    0.955E-01
RMM:   2    -0.413212357105E+03    0.13441E-01   -0.13714E-01  4261   0.128E-01    0.690E-01
RMM:   3    -0.413207414862E+03    0.49422E-02   -0.21200E-02  4876   0.646E-02    0.135E-01
RMM:   4    -0.413245603985E+03   -0.38189E-01   -0.40746E-02  5132   0.169E-01    0.814E-01
RMM:   5    -0.413206606815E+03    0.38997E-01   -0.19219E-02  4789   0.136E-01    0.558E-02
RMM:   6    -0.413206708862E+03   -0.10205E-03   -0.32945E-03  5817   0.542E-02    0.365E-02
RMM:   7    -0.413206718491E+03   -0.96281E-05   -0.41292E-04  5626   0.194E-02    0.193E-02
RMM:   8    -0.413206708290E+03    0.10200E-04   -0.48642E-05  4768   0.725E-03    0.975E-03
RMM:   9    -0.413206706396E+03    0.18940E-05   -0.18492E-05  4320   0.445E-03    0.766E-03
RMM:  10    -0.413206699905E+03    0.64913E-05   -0.38730E-06  2852   0.277E-03    0.439E-03
RMM:  11    -0.413206695213E+03    0.46920E-05   -0.16043E-06  2512   0.206E-03    0.262E-03
RMM:  12    -0.413206685179E+03    0.10034E-04   -0.19152E-06  2538   0.221E-03    0.120E-03
RMM:  13    -0.413206681755E+03    0.34233E-05   -0.58632E-07  2424   0.141E-03    0.779E-04
RMM:  14    -0.413206681302E+03    0.45334E-06   -0.25388E-07  2037   0.900E-04
   39 T=    69. E= -.41286646E+03 F= -.41320668E+03 E0= -.41318554E+03  EK= 0.34022E+00 SP= 0.00E+00 SK= 0.00E+00
       N       E                     dE             d eps       ncg     rms          rms(c)
RMM:   1    -0.413217547945E+03   -0.10866E-01   -0.91393E+00  4310   0.983E-01    0.938E-01
RMM:   2    -0.413215884270E+03    0.16637E-02   -0.12414E-01  4261   0.124E-01    0.691E-01
RMM:   3    -0.413211209201E+03    0.46751E-02   -0.24465E-02  4940   0.718E-02    0.159E-01
RMM:   4    -0.413251248899E+03   -0.40040E-01   -0.45219E-02  5127   0.178E-01    0.837E-01
RMM:   5    -0.413209783904E+03    0.41465E-01   -0.19872E-02  4793   0.139E-01    0.564E-02
RMM:   6    -0.413209893850E+03   -0.10995E-03   -0.34191E-03  5814   0.551E-02    0.356E-02
RMM:   7    -0.413209906472E+03   -0.12622E-04   -0.41907E-04  5667   0.194E-02    0.190E-02
RMM:   8    -0.413209903996E+03    0.24763E-05   -0.61860E-05  4996   0.789E-03    0.107E-02
RMM:   9    -0.413209898657E+03    0.53383E-05   -0.19793E-05  4437   0.469E-03    0.756E-03
RMM:  10    -0.413209895230E+03    0.34271E-05   -0.43122E-06  2885   0.295E-03    0.440E-03
RMM:  11    -0.413209892281E+03    0.29494E-05   -0.15521E-06  2510   0.205E-03    0.270E-03
RMM:  12    -0.413209885206E+03    0.70750E-05   -0.17188E-06  2520   0.212E-03    0.109E-03
RMM:  13    -0.413209881269E+03    0.39368E-05   -0.68393E-07  2421   0.144E-03    0.822E-04
RMM:  14    -0.413209880799E+03    0.47053E-06   -0.28705E-07  2081   0.944E-04
   40 T=    70. E= -.41286679E+03 F= -.41320988E+03 E0= -.41318878E+03  EK= 0.34309E+00 SP= 0.00E+00 SK= 0.00E+00
       N       E                     dE             d eps       ncg     rms          rms(c)
RMM:   1    -0.413220427801E+03   -0.10547E-01   -0.92792E+00  4310   0.102E+00    0.950E-01
RMM:   2    -0.413218315772E+03    0.21120E-02   -0.13422E-01  4272   0.133E-01    0.703E-01
RMM:   3    -0.413213759589E+03    0.45562E-02   -0.23977E-02  4972   0.726E-02    0.176E-01
RMM:   4    -0.413258787217E+03   -0.45028E-01   -0.51944E-02  5125   0.191E-01    0.887E-01
RMM:   5    -0.413212025973E+03    0.46761E-01   -0.22215E-02  4781   0.147E-01    0.588E-02
RMM:   6    -0.413212164091E+03   -0.13812E-03   -0.38160E-03  5815   0.581E-02    0.364E-02
RMM:   7    -0.413212176085E+03   -0.11994E-04   -0.47529E-04  5732   0.203E-02    0.207E-02
RMM:   8    -0.413212178936E+03   -0.28507E-05   -0.96100E-05  5196   0.977E-03    0.131E-02
RMM:   9    -0.413212169104E+03    0.98323E-05   -0.24011E-05  4609   0.549E-03    0.753E-03
RMM:  10    -0.413212165599E+03    0.35045E-05   -0.40015E-06  2781   0.294E-03    0.451E-03
RMM:  11    -0.413212162899E+03    0.27000E-05   -0.14616E-06  2507   0.201E-03    0.274E-03
RMM:  12    -0.413212156565E+03    0.63342E-05   -0.16566E-06  2530   0.207E-03    0.116E-03
RMM:  13    -0.413212152282E+03    0.42835E-05   -0.72351E-07  2431   0.145E-03    0.774E-04
RMM:  14    -0.413212151478E+03    0.80375E-06   -0.30257E-07  2098   0.964E-04
   41 T=    70. E= -.41286650E+03 F= -.41321215E+03 E0= -.41319108E+03  EK= 0.34565E+00 SP= 0.00E+00 SK= 0.00E+00
       N       E                     dE             d eps       ncg     rms          rms(c)
RMM:   1    -0.413244570324E+03   -0.32418E-01   -0.95139E+00  4311   0.121E+00    0.968E-01
RMM:   2    -0.413220606470E+03    0.23964E-01   -0.15031E-01  4291   0.137E-01    0.701E-01
RMM:   3    -0.413217052773E+03    0.35537E-02   -0.21414E-02  5033   0.729E-02    0.218E-01
RMM:   4    -0.413264916386E+03   -0.47864E-01   -0.58331E-02  5115   0.203E-01    0.917E-01
RMM:   5    -0.413214736067E+03    0.50180E-01   -0.23436E-02  4774   0.153E-01    0.626E-02
RMM:   6    -0.413214874117E+03   -0.13805E-03   -0.40094E-03  5792   0.599E-02    0.387E-02
RMM:   7    -0.413214883247E+03   -0.91303E-05   -0.53042E-04  5727   0.215E-02    0.235E-02
RMM:   8    -0.413214882989E+03    0.25823E-06   -0.12971E-04  5246   0.116E-02    0.147E-02
RMM:   9    -0.413214867871E+03    0.15118E-04   -0.25285E-05  4626   0.602E-03    0.709E-03
RMM:  10    -0.413214861882E+03    0.59883E-05   -0.54127E-06  3016   0.307E-03    0.433E-03
RMM:  11    -0.413214857450E+03    0.44326E-05   -0.14028E-06  2506   0.201E-03    0.256E-03
RMM:  12    -0.413214848251E+03    0.91985E-05   -0.13386E-06  2493   0.194E-03    0.105E-03
RMM:  13    -0.413214842046E+03    0.62056E-05   -0.62687E-07  2416   0.138E-03    0.657E-04
RMM:  14    -0.413214840983E+03    0.10625E-05   -0.28881E-07  2067   0.944E-04    0.432E-04
RMM:  15    -0.413214838677E+03    0.23059E-05   -0.14765E-07  1543   0.731E-04    0.282E-04
RMM:  16    -0.413214830341E+03    0.83364E-05   -0.15279E-07  1779   0.764E-04    0.385E-04
RMM:  17    -0.413214828789E+03    0.15516E-05   -0.54976E-08   975   0.574E-04    0.271E-04
RMM:  18    -0.413214822652E+03    0.61373E-05   -0.64192E-08  1181   0.618E-04    0.176E-04
RMM:  19    -0.413214821200E+03    0.14520E-05   -0.32645E-08   893   0.562E-04    0.620E-05
RMM:  20    -0.413214819004E+03    0.21955E-05   -0.43971E-08  1164   0.605E-04    0.168E-04
RMM:  21    -0.413214818915E+03    0.88952E-07   -0.13625E-08   706   0.528E-04
   42 T=    71. E= -.41286665E+03 F= -.41321482E+03 E0= -.41319378E+03  EK= 0.34817E+00 SP= 0.00E+00 SK= 0.00E+00
       N       E                     dE             d eps       ncg     rms          rms(c)
RMM:   1    -0.413233144469E+03   -0.18325E-01   -0.93817E+00  4313   0.118E+00    0.949E-01
RMM:   2    -0.413222927523E+03    0.10217E-01   -0.13655E-01  4317   0.138E-01    0.698E-01
RMM:   3    -0.413220732037E+03    0.21955E-02   -0.24740E-02  5063   0.841E-02    0.262E-01
RMM:   4    -0.413259793202E+03   -0.39061E-01   -0.54773E-02  5099   0.198E-01    0.848E-01
RMM:   5    -0.413216986983E+03    0.42806E-01   -0.18780E-02  4757   0.140E-01    0.608E-02
RMM:   6    -0.413217086470E+03   -0.99487E-04   -0.34319E-03  5775   0.552E-02    0.370E-02
RMM:   7    -0.413217093144E+03   -0.66739E-05   -0.48568E-04  5698   0.208E-02    0.234E-02
RMM:   8    -0.413217091496E+03    0.16479E-05   -0.12353E-04  5224   0.116E-02    0.135E-02
RMM:   9    -0.413217080185E+03    0.11311E-04   -0.19282E-05  4392   0.554E-03    0.621E-03
RMM:  10    -0.413217076684E+03    0.35009E-05   -0.42949E-06  2847   0.279E-03    0.383E-03
RMM:  11    -0.413217073991E+03    0.26930E-05   -0.12648E-06  2502   0.190E-03    0.218E-03
RMM:  12    -0.413217068345E+03    0.56456E-05   -0.11455E-06  2485   0.177E-03    0.920E-04
RMM:  13    -0.413217064478E+03    0.38669E-05   -0.54768E-07  2368   0.127E-03    0.516E-04
RMM:  14    -0.413217063459E+03    0.10187E-05   -0.26149E-07  1943   0.890E-04    0.347E-04
RMM:  15    -0.413217061242E+03    0.22170E-05   -0.14025E-07  1432   0.715E-04    0.183E-04
RMM:  16    -0.413217056652E+03    0.45902E-05   -0.10917E-07  1302   0.686E-04    0.182E-04
RMM:  17    -0.413217054790E+03    0.18620E-05   -0.57131E-08   982   0.609E-04    0.102E-04
RMM:  18    -0.413217051144E+03    0.36459E-05   -0.62461E-08  1200   0.633E-04    0.101E-04
RMM:  19    -0.413217049105E+03    0.20391E-05   -0.36230E-08   964   0.577E-04    0.464E-05
RMM:  20    -0.413217047882E+03    0.12229E-05   -0.24344E-08   856   0.557E-04    0.251E-05
RMM:  21    -0.413217047439E+03    0.44354E-06   -0.13872E-08   729   0.537E-04
   43 T=    71. E= -.41286675E+03 F= -.41321705E+03 E0= -.41319604E+03  EK= 0.35030E+00 SP= 0.00E+00 SK= 0.00E+00
       N       E                     dE             d eps       ncg     rms          rms(c)
RMM:   1    -0.413229083557E+03   -0.12036E-01   -0.94575E+00  4316   0.120E+00    0.954E-01
RMM:   2    -0.413224618255E+03    0.44653E-02   -0.13859E-01  4325   0.148E-01    0.709E-01
RMM:   3    -0.413223055822E+03    0.15624E-02   -0.26708E-02  5059   0.921E-02    0.292E-01
RMM:   4    -0.413260028517E+03   -0.36973E-01   -0.55766E-02  5097   0.201E-01    0.837E-01
RMM:   5    -0.413218313056E+03    0.41715E-01   -0.17755E-02  4733   0.137E-01    0.608E-02
RMM:   6    -0.413218404381E+03   -0.91326E-04   -0.33222E-03  5758   0.543E-02    0.360E-02
RMM:   7    -0.413218409742E+03   -0.53604E-05   -0.47422E-04  5700   0.206E-02    0.232E-02
RMM:   8    -0.413218408231E+03    0.15107E-05   -0.12206E-04  5206   0.115E-02    0.129E-02
RMM:   9    -0.413218398444E+03    0.97868E-05   -0.18507E-05  4345   0.548E-03    0.575E-03
RMM:  10    -0.413218396202E+03    0.22423E-05   -0.40963E-06  2819   0.270E-03    0.357E-03
RMM:  11    -0.413218394168E+03    0.20341E-05   -0.12459E-06  2501   0.186E-03    0.199E-03
RMM:  12    -0.413218390013E+03    0.41552E-05   -0.10898E-06  2487   0.169E-03    0.829E-04
RMM:  13    -0.413218387072E+03    0.29404E-05   -0.51441E-07  2321   0.121E-03    0.442E-04
RMM:  14    -0.413218385970E+03    0.11022E-05   -0.24780E-07  1835   0.857E-04    0.294E-04
RMM:  15    -0.413218383214E+03    0.27558E-05   -0.15233E-07  1418   0.728E-04    0.141E-04
RMM:  16    -0.413218380225E+03    0.29892E-05   -0.10578E-07  1213   0.670E-04    0.128E-04
RMM:  17    -0.413218378040E+03    0.21848E-05   -0.69945E-08  1091   0.629E-04    0.888E-05
RMM:  18    -0.413218375591E+03    0.24490E-05   -0.55442E-08  1075   0.616E-04    0.585E-05
RMM:  19    -0.413218372989E+03    0.26026E-05   -0.47511E-08  1110   0.604E-04    0.334E-05
RMM:  20    -0.413218372474E+03    0.51421E-06   -0.21261E-08   797   0.546E-04
   44 T=    72. E= -.41286654E+03 F= -.41321837E+03 E0= -.41319739E+03  EK= 0.35184E+00 SP= 0.00E+00 SK= 0.00E+00
       N       E                     dE             d eps       ncg     rms          rms(c)
RMM:   1    -0.413243833735E+03   -0.25461E-01   -0.95764E+00  4312   0.135E+00    0.975E-01
RMM:   2    -0.413225670160E+03    0.18164E-01   -0.14824E-01  4336   0.159E-01    0.708E-01
RMM:   3    -0.413226874176E+03   -0.12040E-02   -0.26101E-02  5077   0.101E-01    0.363E-01
RMM:   4    -0.413252943744E+03   -0.26070E-01   -0.51190E-02  5069   0.194E-01    0.748E-01
RMM:   5    -0.413219900913E+03    0.33043E-01   -0.13008E-02  4702   0.123E-01    0.610E-02
RMM:   6    -0.413219932982E+03   -0.32069E-04   -0.26107E-03  5690   0.487E-02    0.366E-02
RMM:   7    -0.413219930599E+03    0.23828E-05   -0.43138E-04  5636   0.200E-02    0.239E-02
RMM:   8    -0.413219923524E+03    0.70751E-05   -0.11874E-04  5140   0.118E-02    0.121E-02
RMM:   9    -0.413219911089E+03    0.12435E-04   -0.15601E-05  4241   0.541E-03    0.506E-03
RMM:  10    -0.413219906772E+03    0.43173E-05   -0.36073E-06  2783   0.254E-03    0.308E-03
RMM:  11    -0.413219902270E+03    0.45021E-05   -0.11527E-06  2488   0.180E-03    0.165E-03
RMM:  12    -0.413219895398E+03    0.68723E-05   -0.78839E-07  2454   0.149E-03    0.691E-04
RMM:  13    -0.413219891387E+03    0.40102E-05   -0.37748E-07  2131   0.106E-03    0.324E-04
RMM:  14    -0.413219888905E+03    0.24824E-05   -0.20523E-07  1678   0.808E-04    0.215E-04
RMM:  15    -0.413219883172E+03    0.57331E-05   -0.14454E-07  1425   0.732E-04    0.154E-04
RMM:  16    -0.413219880691E+03    0.24809E-05   -0.83817E-08  1138   0.649E-04    0.949E-05
RMM:  17    -0.413219877053E+03    0.36377E-05   -0.70868E-08  1213   0.641E-04    0.587E-05
RMM:  18    -0.413219873722E+03    0.33320E-05   -0.57440E-08  1198   0.617E-04    0.393E-05
RMM:  19    -0.413219871647E+03    0.20750E-05   -0.37464E-08  1012   0.573E-04    0.285E-05
RMM:  20    -0.413219871171E+03    0.47589E-06   -0.18068E-08   755   0.534E-04
   45 T=    72. E= -.41286684E+03 F= -.41321987E+03 E0= -.41319891E+03  EK= 0.35303E+00 SP= 0.00E+00 SK= 0.00E+00
       N       E                     dE             d eps       ncg     rms          rms(c)
RMM:   1    -0.413240066021E+03   -0.20194E-01   -0.94746E+00  4312   0.141E+00    0.958E-01
RMM:   2    -0.413225625196E+03    0.14441E-01   -0.14636E-01  4362   0.168E-01    0.702E-01
RMM:   3    -0.413229573818E+03   -0.39486E-02   -0.28097E-02  5091   0.114E-01    0.423E-01
RMM:   4    -0.413246413394E+03   -0.16840E-01   -0.47915E-02  5061   0.190E-01    0.671E-01
RMM:   5    -0.413219910199E+03    0.26503E-01   -0.95376E-03  4654   0.110E-01    0.594E-02
RMM:   6    -0.413219901174E+03    0.90249E-05   -0.20858E-03  5615   0.434E-02    0.344E-02
RMM:   7    -0.413219897617E+03    0.35563E-05   -0.36531E-04  5576   0.187E-02    0.227E-02
RMM:   8    -0.413219890387E+03    0.72301E-05   -0.11872E-04  5083   0.117E-02    0.111E-02
RMM:   9    -0.413219879151E+03    0.11237E-04   -0.14136E-05  4163   0.528E-03    0.466E-03
RMM:  10    -0.413219875487E+03    0.36635E-05   -0.30266E-06  2724   0.238E-03    0.275E-03
RMM:  11    -0.413219871042E+03    0.44455E-05   -0.11202E-06  2486   0.175E-03    0.143E-03
RMM:  12    -0.413219865205E+03    0.58364E-05   -0.70232E-07  2424   0.139E-03    0.678E-04
RMM:  13    -0.413219861621E+03    0.35842E-05   -0.33432E-07  1990   0.989E-04    0.305E-04
RMM:  14    -0.413219858780E+03    0.28413E-05   -0.18640E-07  1514   0.768E-04    0.182E-04
RMM:  15    -0.413219853532E+03    0.52477E-05   -0.14200E-07  1326   0.723E-04    0.131E-04
RMM:  16    -0.413219851212E+03    0.23202E-05   -0.86448E-08  1135   0.654E-04    0.839E-05
RMM:  17    -0.413219846849E+03    0.43627E-05   -0.88865E-08  1408   0.670E-04    0.568E-05
RMM:  18    -0.413219844603E+03    0.22460E-05   -0.48371E-08  1017   0.583E-04    0.357E-05
RMM:  19    -0.413219842786E+03    0.18170E-05   -0.37223E-08   981   0.564E-04    0.199E-05
RMM:  20    -0.413219842460E+03    0.32626E-06   -0.19608E-08   738   0.524E-04
   46 T=    72. E= -.41286665E+03 F= -.41321984E+03 E0= -.41319890E+03  EK= 0.35319E+00 SP= 0.00E+00 SK= 0.00E+00
       N       E                     dE             d eps       ncg     rms          rms(c)
RMM:   1    -0.413233817579E+03   -0.13975E-01   -0.94796E+00  4312   0.144E+00    0.950E-01
RMM:   2    -0.413225199058E+03    0.86185E-02   -0.14663E-01  4383   0.175E-01    0.710E-01
RMM:   3    -0.413231420867E+03   -0.62218E-02   -0.31127E-02  5093   0.126E-01    0.471E-01
RMM:   4    -0.413243605351E+03   -0.12184E-01   -0.48782E-02  5040   0.193E-01    0.644E-01
RMM:   5    -0.413219187368E+03    0.24418E-01   -0.83071E-03  4621   0.106E-01    0.587E-02
RMM:   6    -0.413219151533E+03    0.35835E-04   -0.18365E-03  5546   0.410E-02    0.321E-02
RMM:   7    -0.413219149399E+03    0.21347E-05   -0.32766E-04  5579   0.179E-02    0.218E-02
RMM:   8    -0.413219140384E+03    0.90143E-05   -0.12119E-04  5082   0.117E-02    0.103E-02
RMM:   9    -0.413219130670E+03    0.97148E-05   -0.13350E-05  4103   0.523E-03    0.437E-03
RMM:  10    -0.413219128241E+03    0.24282E-05   -0.28510E-06  2690   0.230E-03    0.254E-03
RMM:  11    -0.413219125029E+03    0.32122E-05   -0.11491E-06  2489   0.173E-03    0.129E-03
RMM:  12    -0.413219121249E+03    0.37807E-05   -0.68491E-07  2396   0.135E-03    0.664E-04
RMM:  13    -0.413219118597E+03    0.26512E-05   -0.33476E-07  1891   0.959E-04    0.302E-04
RMM:  14    -0.413219116163E+03    0.24349E-05   -0.19454E-07  1440   0.759E-04    0.171E-04
RMM:  15    -0.413219112488E+03    0.36749E-05   -0.15993E-07  1349   0.730E-04    0.120E-04
RMM:  16    -0.413219110453E+03    0.20344E-05   -0.10136E-07  1221   0.660E-04    0.869E-05
RMM:  17    -0.413219106506E+03    0.39471E-05   -0.10606E-07  1404   0.674E-04    0.573E-05
RMM:  18    -0.413219104998E+03    0.15082E-05   -0.51993E-08   992   0.570E-04    0.328E-05
RMM:  19    -0.413219103909E+03    0.10886E-05   -0.35921E-08   905   0.545E-04    0.187E-05
RMM:  20    -0.413219103317E+03    0.59210E-06   -0.22890E-08   778   0.522E-04
   47 T=    72. E= -.41286667E+03 F= -.41321910E+03 E0= -.41319817E+03  EK= 0.35243E+00 SP= 0.00E+00 SK= 0.00E+00
       N       E                     dE             d eps       ncg     rms          rms(c)
RMM:   1    -0.413240668801E+03   -0.21565E-01   -0.94923E+00  4311   0.158E+00    0.967E-01
RMM:   2    -0.413223360955E+03    0.17308E-01   -0.15455E-01  4425   0.190E-01    0.709E-01
RMM:   3    -0.413235571874E+03   -0.12211E-01   -0.33889E-02  5118   0.142E-01    0.574E-01
RMM:   4    -0.413234056103E+03    0.15158E-02   -0.45145E-02  5002   0.189E-01    0.533E-01
RMM:   5    -0.413217553385E+03    0.16503E-01   -0.51321E-03  4568   0.926E-02    0.580E-02
RMM:   6    -0.413217471525E+03    0.81860E-04   -0.10510E-03  5178   0.333E-02    0.309E-02
RMM:   7    -0.413217468189E+03    0.33361E-05   -0.21803E-04  5524   0.149E-02    0.182E-02
RMM:   8    -0.413217467060E+03    0.11293E-05   -0.12814E-04  5168   0.117E-02    0.115E-02
RMM:   9    -0.413217452445E+03    0.14615E-04   -0.16200E-05  4332   0.561E-03    0.437E-03
RMM:  10    -0.413217449428E+03    0.30171E-05   -0.31890E-06  2740   0.236E-03    0.241E-03
RMM:  11    -0.413217443825E+03    0.56022E-05   -0.12802E-06  2456   0.184E-03    0.125E-03
RMM:  12    -0.413217439636E+03    0.41891E-05   -0.58183E-07  2339   0.131E-03    0.729E-04
RMM:  13    -0.413217435482E+03    0.41542E-05   -0.28860E-07  1792   0.940E-04    0.351E-04
RMM:  14    -0.413217431224E+03    0.42577E-05   -0.16194E-07  1390   0.741E-04    0.192E-04
RMM:  15    -0.413217427145E+03    0.40796E-05   -0.11491E-07  1243   0.688E-04    0.132E-04
RMM:  16    -0.413217424428E+03    0.27163E-05   -0.80297E-08  1173   0.632E-04    0.107E-04
RMM:  17    -0.413217420317E+03    0.41117E-05   -0.76389E-08  1252   0.625E-04    0.565E-05
RMM:  18    -0.413217418167E+03    0.21500E-05   -0.39003E-08   903   0.548E-04    0.487E-05
RMM:  19    -0.413217417280E+03    0.88706E-06   -0.23390E-08   730   0.512E-04
   48 T=    71. E= -.41286687E+03 F= -.41321742E+03 E0= -.41319650E+03  EK= 0.35055E+00 SP= 0.00E+00 SK= 0.00E+00
       N       E                     dE             d eps       ncg     rms          rms(c)
RMM:   1    -0.413242569882E+03   -0.25152E-01   -0.93952E+00  4305   0.172E+00    0.956E-01
RMM:   2    -0.413219402798E+03    0.23167E-01   -0.15940E-01  4467   0.203E-01    0.699E-01
RMM:   3    -0.413238199218E+03   -0.18796E-01   -0.37580E-02  5137   0.158E-01    0.668E-01
RMM:   4    -0.413225248491E+03    0.12951E-01   -0.43638E-02  4971   0.189E-01    0.449E-01
RMM:   5    -0.413213832307E+03    0.11416E-01   -0.39565E-03  4549   0.868E-02    0.601E-02
RMM:   6    -0.413213703826E+03    0.12848E-03   -0.59159E-04  4813   0.289E-02    0.315E-02
RMM:   7    -0.413213699157E+03    0.46690E-05   -0.21114E-04  5840   0.148E-02    0.148E-02
RMM:   8    -0.413213692941E+03    0.62159E-05   -0.82663E-05  5213   0.103E-02    0.113E-02
RMM:   9    -0.413213685234E+03    0.77067E-05   -0.18410E-05  4474   0.527E-03    0.428E-03
RMM:  10    -0.413213681487E+03    0.37469E-05   -0.29099E-06  2679   0.258E-03    0.242E-03
RMM:  11    -0.413213675532E+03    0.59552E-05   -0.15811E-06  2485   0.209E-03    0.151E-03
RMM:  12    -0.413213671645E+03    0.38873E-05   -0.60729E-07  2427   0.141E-03    0.898E-04
RMM:  13    -0.413213667332E+03    0.43134E-05   -0.31316E-07  2155   0.984E-04    0.533E-04
RMM:  14    -0.413213660930E+03    0.64012E-05   -0.22240E-07  1691   0.821E-04    0.374E-04
RMM:  15    -0.413213657412E+03    0.35188E-05   -0.11029E-07  1165   0.643E-04    0.177E-04
RMM:  16    -0.413213654922E+03    0.24891E-05   -0.81564E-08  1148   0.612E-04    0.965E-05
RMM:  17    -0.413213649996E+03    0.49264E-05   -0.96460E-08  1385   0.657E-04    0.159E-04
RMM:  18    -0.413213648755E+03    0.12415E-05   -0.38125E-08   913   0.544E-04    0.132E-04
RMM:  19    -0.413213647897E+03    0.85760E-06   -0.23743E-08   789   0.520E-04
   49 T=    71. E= -.41286664E+03 F= -.41321365E+03 E0= -.41319274E+03  EK= 0.34701E+00 SP= 0.00E+00 SK= 0.00E+00
       N       E                     dE             d eps       ncg     rms          rms(c)
RMM:   1    -0.413239315306E+03   -0.25667E-01   -0.93262E+00  4306   0.186E+00    0.934E-01
RMM:   2    -0.413215031010E+03    0.24284E-01   -0.15561E-01  4530   0.213E-01    0.700E-01
RMM:   3    -0.413238820295E+03   -0.23789E-01   -0.42615E-02  5137   0.173E-01    0.731E-01
RMM:   4    -0.413218891005E+03    0.19929E-01   -0.45423E-02  4961   0.195E-01    0.414E-01
RMM:   5    -0.413209109548E+03    0.97815E-02   -0.38191E-03  4616   0.873E-02    0.632E-02
[...]
RMM:  12    -0.413752400895E+03   -0.40895E-05   -0.54361E-06  3130   0.363E-03    0.306E-03
RMM:  13    -0.413752406333E+03   -0.54371E-05   -0.22711E-06  2637   0.246E-03    0.176E-03
RMM:  14    -0.413752414313E+03   -0.79800E-05   -0.14927E-06  2587   0.195E-03    0.910E-04
RMM:  15    -0.413752420292E+03   -0.59798E-05   -0.93928E-07  2516   0.135E-03    0.674E-04
RMM:  16    -0.413752428330E+03   -0.80378E-05   -0.13835E-06  2498   0.144E-03    0.438E-04
RMM:  17    -0.413752434671E+03   -0.63403E-05   -0.12852E-06  2233   0.124E-03    0.281E-04
RMM:  18    -0.413752437976E+03   -0.33059E-05   -0.59657E-07  1740   0.881E-04    0.181E-04
RMM:  19    -0.413752441703E+03   -0.37270E-05   -0.56544E-07  1859   0.877E-04    0.130E-04
RMM:  20    -0.413752443362E+03   -0.16589E-05   -0.22390E-07  1247   0.650E-04    0.811E-05
RMM:  21    -0.413752444882E+03   -0.15199E-05   -0.15038E-07  1159   0.610E-04    0.459E-05
RMM:  22    -0.413752445755E+03   -0.87231E-06   -0.84847E-08  1023   0.570E-04
  140 T=   176. E= -.41288984E+03 F= -.41375245E+03 E0= -.41372807E+03  EK= 0.86260E+00 SP= 0.00E+00 SK= 0.00E+00
       N       E                     dE             d eps       ncg     rms          rms(c)
RMM:   1    -0.413952270058E+03   -0.19983E+00   -0.23731E+01  4264   0.839E+00    0.190E+00
RMM:   2    -0.413754045489E+03    0.19822E+00   -0.80321E-01  5276   0.105E+00    0.162E+00
RMM:   3    -0.413899854823E+03   -0.14581E+00   -0.25199E-01  5471   0.527E-01    0.187E+00
RMM:   4    -0.413769683827E+03    0.13017E+00   -0.17724E-01  5069   0.460E-01    0.808E-01
RMM:   5    -0.413752796679E+03    0.16887E-01   -0.90270E-02  5019   0.377E-01    0.313E-01
RMM:   6    -0.413748099091E+03    0.46976E-02   -0.16575E-02  5040   0.170E-01    0.155E-01
RMM:   7    -0.413746956260E+03    0.11428E-02   -0.25534E-03  4730   0.731E-02    0.755E-02
RMM:   8    -0.413746887503E+03    0.68757E-04   -0.15532E-03  5572   0.479E-02    0.457E-02
RMM:   9    -0.413746861098E+03    0.26404E-04   -0.43091E-04  5490   0.248E-02    0.295E-02
RMM:  10    -0.413746841055E+03    0.20043E-04   -0.14033E-04  5585   0.148E-02    0.130E-02
RMM:  11    -0.413746841617E+03   -0.56183E-06   -0.46714E-05  5600   0.753E-03    0.100E-02
RMM:  12    -0.413746841268E+03    0.34882E-06   -0.12968E-05  4292   0.495E-03    0.387E-03
RMM:  13    -0.413746844870E+03   -0.36014E-05   -0.30881E-06  2765   0.264E-03    0.223E-03
RMM:  14    -0.413746849884E+03   -0.50145E-05   -0.13376E-06  2565   0.197E-03    0.964E-04
RMM:  15    -0.413746853691E+03   -0.38072E-05   -0.77642E-07  2471   0.135E-03    0.644E-04
RMM:  16    -0.413746858489E+03   -0.47976E-05   -0.86697E-07  2372   0.125E-03    0.399E-04
RMM:  17    -0.413746862927E+03   -0.44386E-05   -0.81894E-07  2145   0.111E-03    0.283E-04
RMM:  18    -0.413746866607E+03   -0.36798E-05   -0.69302E-07  1975   0.999E-04    0.187E-04
RMM:  19    -0.413746869367E+03   -0.27594E-05   -0.52143E-07  1718   0.849E-04    0.110E-04
RMM:  20    -0.413746870829E+03   -0.14628E-05   -0.23727E-07  1296   0.671E-04    0.767E-05
RMM:  21    -0.413746872020E+03   -0.11905E-05   -0.15136E-07  1170   0.615E-04    0.482E-05
RMM:  22    -0.413746872879E+03   -0.85924E-06   -0.92040E-08  1044   0.579E-04
  141 T=   172. E= -.41290084E+03 F= -.41374687E+03 E0= -.41372308E+03  EK= 0.84603E+00 SP= 0.00E+00 SK= 0.00E+00
       N       E                     dE             d eps       ncg     rms          rms(c)
RMM:   1    -0.413622969867E+03    0.12390E+00   -0.19798E+01  4264   0.748E+00    0.178E+00
RMM:   2    -0.413526332256E+03    0.96638E-01   -0.76497E-01  5271   0.908E-01    0.148E+00
RMM:   3    -0.413687741515E+03   -0.16141E+00   -0.24868E-01  5426   0.512E-01    0.185E+00
RMM:   4    -0.413540112068E+03    0.14763E+00   -0.16654E-01  5016   0.450E-01    0.652E-01
RMM:   5    -0.413527788279E+03    0.12324E-01   -0.78585E-02  5144   0.348E-01    0.287E-01
RMM:   6    -0.413524228388E+03    0.35599E-02   -0.13311E-02  5109   0.152E-01    0.142E-01
RMM:   7    -0.413523383654E+03    0.84473E-03   -0.24239E-03  4872   0.675E-02    0.679E-02
RMM:   8    -0.413523396030E+03   -0.12376E-04   -0.14828E-03  5685   0.457E-02    0.464E-02
RMM:   9    -0.413523365906E+03    0.30124E-04   -0.31374E-04  5579   0.215E-02    0.293E-02
RMM:  10    -0.413523348707E+03    0.17199E-04   -0.18437E-04  5602   0.161E-02    0.128E-02
RMM:  11    -0.413523347000E+03    0.17070E-05   -0.31085E-05  5078   0.639E-03    0.888E-03
RMM:  12    -0.413523345428E+03    0.15723E-05   -0.11680E-05  4277   0.461E-03    0.348E-03
RMM:  13    -0.413523346761E+03   -0.13332E-05   -0.18787E-06  2596   0.229E-03    0.171E-03
RMM:  14    -0.413523348174E+03   -0.14125E-05   -0.90851E-07  2508   0.161E-03    0.790E-04
RMM:  15    -0.413523349551E+03   -0.13778E-05   -0.55383E-07  2294   0.118E-03    0.471E-04
RMM:  16    -0.413523351064E+03   -0.15121E-05   -0.44818E-07  2002   0.997E-04    0.251E-04
RMM:  17    -0.413523352305E+03   -0.12411E-05   -0.31378E-07  1703   0.845E-04    0.187E-04
RMM:  18    -0.413523353832E+03   -0.15272E-05   -0.34864E-07  1796   0.829E-04    0.147E-04
RMM:  19    -0.413523354707E+03   -0.87467E-06   -0.18759E-07  1270   0.662E-04
  142 T=   137. E= -.41285241E+03 F= -.41352335E+03 E0= -.41349998E+03  EK= 0.67095E+00 SP= 0.00E+00 SK= 0.00E+00
       N       E                     dE             d eps       ncg     rms          rms(c)
RMM:   1    -0.413737901602E+03   -0.21455E+00   -0.17357E+01  4264   0.689E+00    0.143E+00
RMM:   2    -0.413672623996E+03    0.65278E-01   -0.65993E-01  5427   0.835E-01    0.116E+00
RMM:   3    -0.413784395018E+03   -0.11177E+00   -0.18840E-01  5473   0.454E-01    0.161E+00
RMM:   4    -0.413677201898E+03    0.10719E+00   -0.11134E-01  5107   0.373E-01    0.623E-01
RMM:   5    -0.413667181398E+03    0.10021E-01   -0.36160E-02  4750   0.263E-01    0.159E-01
RMM:   6    -0.413666856531E+03    0.32487E-03   -0.70291E-03  5603   0.103E-01    0.996E-02
RMM:   7    -0.413666664457E+03    0.19207E-03   -0.17839E-03  5261   0.497E-02    0.613E-02
RMM:   8    -0.413666566972E+03    0.97485E-04   -0.62086E-04  5318   0.318E-02    0.356E-02
RMM:   9    -0.413666582985E+03   -0.16012E-04   -0.27304E-04  5750   0.198E-02    0.304E-02
RMM:  10    -0.413666565472E+03    0.17513E-04   -0.10219E-04  5243   0.131E-02    0.106E-02
RMM:  11    -0.413666567786E+03   -0.23137E-05   -0.44776E-05  5552   0.710E-03    0.809E-03
RMM:  12    -0.413666566604E+03    0.11814E-05   -0.79876E-06  3711   0.402E-03    0.310E-03
RMM:  13    -0.413666567268E+03   -0.66337E-06   -0.26056E-06  2682   0.242E-03
  143 T=   159. E= -.41288353E+03 F= -.41366657E+03 E0= -.41364317E+03  EK= 0.78304E+00 SP= 0.00E+00 SK= 0.00E+00
       N       E                     dE             d eps       ncg     rms          rms(c)
RMM:   1    -0.414097483203E+03   -0.43092E+00   -0.26740E+01  4282   0.853E+00    0.252E+00
RMM:   2    -0.413869274382E+03    0.22821E+00   -0.10281E+00  5421   0.117E+00    0.218E+00
RMM:   3    -0.414069337570E+03   -0.20006E+00   -0.38243E-01  5469   0.662E-01    0.235E+00
RMM:   4    -0.413918779589E+03    0.15056E+00   -0.31438E-01  5177   0.588E-01    0.134E+00
RMM:   5    -0.413853029584E+03    0.65750E-01   -0.12366E-01  4740   0.475E-01    0.326E-01
RMM:   6    -0.413849848658E+03    0.31809E-02   -0.16440E-02  5306   0.172E-01    0.157E-01
RMM:   7    -0.413849351374E+03    0.49728E-03   -0.32837E-03  5154   0.720E-02    0.961E-02
RMM:   8    -0.413849138277E+03    0.21310E-03   -0.16184E-03  5230   0.497E-02    0.605E-02
RMM:   9    -0.413849142329E+03   -0.40522E-05   -0.78068E-04  5542   0.345E-02    0.447E-02
RMM:  10    -0.413849102732E+03    0.39596E-04   -0.19358E-04  5434   0.185E-02    0.204E-02
RMM:  11    -0.413849103455E+03   -0.72322E-06   -0.12535E-04  5790   0.123E-02    0.106E-02
RMM:  12    -0.413849104871E+03   -0.14152E-05   -0.17483E-05  4519   0.564E-03    0.557E-03
RMM:  13    -0.413849107379E+03   -0.25085E-05   -0.65333E-06  3368   0.343E-03    0.304E-03
RMM:  14    -0.413849109965E+03   -0.25861E-05   -0.15226E-06  2564   0.219E-03    0.117E-03
RMM:  15    -0.413849111647E+03   -0.16820E-05   -0.73328E-07  2442   0.143E-03    0.604E-04
RMM:  16    -0.413849113527E+03   -0.18802E-05   -0.53855E-07  2294   0.114E-03    0.312E-04
RMM:  17    -0.413849114552E+03   -0.10243E-05   -0.31869E-07  1966   0.897E-04    0.238E-04
RMM:  18    -0.413849115689E+03   -0.11373E-05   -0.22819E-07  1450   0.783E-04    0.170E-04
RMM:  19    -0.413849116914E+03   -0.12250E-05   -0.22053E-07  1446   0.746E-04    0.848E-05
RMM:  20    -0.413849117476E+03   -0.56173E-06   -0.11925E-07  1177   0.644E-04
  144 T=   192. E= -.41290425E+03 F= -.41384912E+03 E0= -.41382569E+03  EK= 0.94487E+00 SP= 0.00E+00 SK= 0.00E+00
       N       E                     dE             d eps       ncg     rms          rms(c)
RMM:   1    -0.414024802380E+03   -0.17569E+00   -0.26017E+01  4287   0.869E+00    0.182E+00
RMM:   2    -0.413814814936E+03    0.20999E+00   -0.83544E-01  5452   0.104E+00    0.158E+00
RMM:   3    -0.413813858095E+03    0.95684E-03   -0.13855E-01  5399   0.449E-01    0.948E-01
RMM:   4    -0.413986074091E+03   -0.17222E+00   -0.21850E-01  5127   0.490E-01    0.172E+00
RMM:   5    -0.413812188429E+03    0.17389E+00   -0.10554E-01  4990   0.354E-01    0.361E-01
RMM:   6    -0.413806989481E+03    0.51989E-02   -0.26624E-02  5507   0.193E-01    0.143E-01
RMM:   7    -0.413806415746E+03    0.57374E-03   -0.45340E-03  5575   0.784E-02    0.855E-02
RMM:   8    -0.413806338214E+03    0.77531E-04   -0.11708E-03  5292   0.422E-02    0.533E-02
RMM:   9    -0.413806337188E+03    0.10267E-05   -0.37503E-04  4955   0.247E-02    0.223E-02
RMM:  10    -0.413806347097E+03   -0.99098E-05   -0.14655E-04  6012   0.132E-02    0.152E-02
RMM:  11    -0.413806349495E+03   -0.23975E-05   -0.35653E-05  5212   0.676E-03    0.872E-03
RMM:  12    -0.413806354686E+03   -0.51907E-05   -0.11486E-05  4108   0.481E-03    0.363E-03
RMM:  13    -0.413806358691E+03   -0.40054E-05   -0.26671E-06  2723   0.243E-03    0.225E-03
RMM:  14    -0.413806363543E+03   -0.48522E-05   -0.11809E-06  2559   0.174E-03    0.917E-04
RMM:  15    -0.413806366320E+03   -0.27763E-05   -0.63876E-07  2325   0.119E-03    0.551E-04
RMM:  16    -0.413806369199E+03   -0.28797E-05   -0.49725E-07  1893   0.976E-04    0.305E-04
RMM:  17    -0.413806371642E+03   -0.24432E-05   -0.39624E-07  1786   0.886E-04    0.187E-04
RMM:  18    -0.413806374257E+03   -0.26146E-05   -0.39988E-07  1770   0.833E-04    0.171E-04
RMM:  19    -0.413806375854E+03   -0.15969E-05   -0.22406E-07  1380   0.682E-04    0.133E-04
RMM:  20    -0.413806377213E+03   -0.13594E-05   -0.14892E-07  1208   0.624E-04    0.884E-05
RMM:  21    -0.413806378201E+03   -0.98750E-06   -0.92419E-08  1074   0.580E-04
  145 T=   192. E= -.41286240E+03 F= -.41380638E+03 E0= -.41378344E+03  EK= 0.94398E+00 SP= 0.00E+00 SK= 0.00E+00
       N       E                     dE             d eps       ncg     rms          rms(c)
RMM:   1    -0.414149871499E+03   -0.34349E+00   -0.26154E+01  4297   0.914E+00    0.172E+00
RMM:   2    -0.413938752281E+03    0.21112E+00   -0.65814E-01  5355   0.959E-01    0.141E+00
RMM:   3    -0.414077448254E+03   -0.13870E+00   -0.24000E-01  5593   0.513E-01    0.189E+00
RMM:   4    -0.413937344231E+03    0.14010E+00   -0.15082E-01  5085   0.433E-01    0.669E-01
RMM:   5    -0.413928829916E+03    0.85143E-02   -0.84167E-02  5034   0.365E-01    0.293E-01
RMM:   6    -0.413925222514E+03    0.36074E-02   -0.20637E-02  5213   0.180E-01    0.169E-01
RMM:   7    -0.413924079625E+03    0.11429E-02   -0.21859E-03  4586   0.711E-02    0.849E-02
RMM:   8    -0.413924041439E+03    0.38185E-04   -0.16602E-03  5550   0.481E-02    0.495E-02
RMM:   9    -0.413924057339E+03   -0.15900E-04   -0.42259E-04  5366   0.252E-02    0.311E-02
RMM:  10    -0.413924047478E+03    0.98611E-05   -0.13881E-04  5463   0.146E-02    0.138E-02
RMM:  11    -0.413924061931E+03   -0.14453E-04   -0.66975E-05  5625   0.929E-03    0.109E-02
RMM:  12    -0.413924070304E+03   -0.83733E-05   -0.14326E-05  4221   0.524E-03    0.424E-03
RMM:  13    -0.413924076201E+03   -0.58966E-05   -0.50650E-06  3081   0.304E-03    0.180E-03
RMM:  14    -0.413924081650E+03   -0.54492E-05   -0.17866E-06  2608   0.212E-03    0.897E-04
RMM:  15    -0.413924085652E+03   -0.40022E-05   -0.12136E-06  2502   0.160E-03    0.610E-04
RMM:  16    -0.413924088292E+03   -0.26393E-05   -0.88850E-07  2301   0.127E-03    0.385E-04
RMM:  17    -0.413924090082E+03   -0.17904E-05   -0.81938E-07  2198   0.114E-03    0.249E-04
RMM:  18    -0.413924090726E+03   -0.64414E-06   -0.48586E-07  1809   0.908E-04
  146 T=   210. E= -.41289425E+03 F= -.41392409E+03 E0= -.41390242E+03  EK= 0.10298E+01 SP= 0.00E+00 SK= 0.00E+00
       N       E                     dE             d eps       ncg     rms          rms(c)
RMM:   1    -0.414083341236E+03   -0.15925E+00   -0.26608E+01  4304   0.972E+00    0.183E+00
RMM:   2    -0.413906647203E+03    0.17669E+00   -0.70572E-01  5368   0.102E+00    0.166E+00
RMM:   3    -0.413951437458E+03   -0.44790E-01   -0.21712E-01  5554   0.499E-01    0.177E+00
RMM:   4    -0.413867386589E+03    0.84051E-01   -0.12664E-01  5126   0.407E-01    0.794E-01
RMM:   5    -0.413865513786E+03    0.18728E-02   -0.10655E-01  5005   0.398E-01    0.437E-01
RMM:   6    -0.413857979026E+03    0.75348E-02   -0.39535E-02  5093   0.245E-01    0.218E-01
RMM:   7    -0.413856125322E+03    0.18537E-02   -0.34946E-03  4560   0.943E-02    0.110E-01
RMM:   8    -0.413856020856E+03    0.10447E-03   -0.19516E-03  5615   0.520E-02    0.623E-02
RMM:   9    -0.413856036266E+03   -0.15411E-04   -0.67241E-04  4763   0.320E-02    0.244E-02
RMM:  10    -0.413856064596E+03   -0.28329E-04   -0.15225E-04  5645   0.150E-02    0.147E-02
RMM:  11    -0.413856092431E+03   -0.27835E-04   -0.46089E-05  4814   0.911E-03    0.923E-03
RMM:  12    -0.413856112860E+03   -0.20429E-04   -0.15088E-05  3976   0.528E-03    0.484E-03
RMM:  13    -0.413856124942E+03   -0.12082E-04   -0.76341E-06  3294   0.372E-03    0.211E-03
RMM:  14    -0.413856133335E+03   -0.83933E-05   -0.41952E-06  2880   0.279E-03    0.142E-03
RMM:  15    -0.413856137759E+03   -0.44245E-05   -0.34767E-06  2795   0.235E-03    0.835E-04
RMM:  16    -0.413856138398E+03   -0.63845E-06   -0.23698E-06  2557   0.176E-03
  147 T=   197. E= -.41289040E+03 F= -.41385614E+03 E0= -.41383568E+03  EK= 0.96574E+00 SP= 0.00E+00 SK= 0.00E+00
       N       E                     dE             d eps       ncg     rms          rms(c)
RMM:   1    -0.413670011165E+03    0.18613E+00   -0.20002E+01  4305   0.865E+00    0.113E+00
RMM:   2    -0.413608059265E+03    0.61952E-01   -0.54320E-01  5368   0.841E-01    0.119E+00
RMM:   3    -0.413594559958E+03    0.13499E-01   -0.11484E-01  5573   0.365E-01    0.109E+00
RMM:   4    -0.413566940722E+03    0.27619E-01   -0.35075E-02  5116   0.223E-01    0.627E-01
RMM:   5    -0.413568905305E+03   -0.19646E-02   -0.53937E-02  5049   0.269E-01    0.439E-01
RMM:   6    -0.413564257306E+03    0.46480E-02   -0.39443E-02  5190   0.227E-01    0.222E-01
RMM:   7    -0.413562993351E+03    0.12640E-02   -0.48000E-03  5418   0.951E-02    0.151E-01
RMM:   8    -0.413562477426E+03    0.51593E-03   -0.16898E-03  4946   0.496E-02    0.735E-02
RMM:   9    -0.413562516703E+03   -0.39277E-04   -0.15017E-03  4999   0.414E-02    0.213E-02
RMM:  10    -0.413562558479E+03   -0.41776E-04   -0.13982E-04  5607   0.147E-02    0.151E-02
RMM:  11    -0.413562586791E+03   -0.28311E-04   -0.45100E-05  4515   0.899E-03    0.844E-03
RMM:  12    -0.413562615363E+03   -0.28573E-04   -0.20852E-05  3897   0.602E-03    0.519E-03
RMM:  13    -0.413562633932E+03   -0.18569E-04   -0.97154E-06  3383   0.431E-03    0.254E-03
RMM:  14    -0.413562644466E+03   -0.10534E-04   -0.70530E-06  3089   0.337E-03    0.213E-03
RMM:  15    -0.413562647834E+03   -0.33678E-05   -0.65240E-06  3052   0.301E-03    0.120E-03
RMM:  16    -0.413562645862E+03    0.19722E-05   -0.61956E-06  2997   0.274E-03    0.766E-04
RMM:  17    -0.413562639246E+03    0.66156E-05   -0.39215E-06  2694   0.204E-03    0.529E-04
RMM:  18    -0.413562632904E+03    0.63416E-05   -0.14838E-06  2221   0.132E-03    0.409E-04
RMM:  19    -0.413562626058E+03    0.68463E-05   -0.82170E-07  2041   0.107E-03    0.216E-04
RMM:  20    -0.413562620440E+03    0.56179E-05   -0.43301E-07  1760   0.859E-04    0.151E-04
RMM:  21    -0.413562617035E+03    0.34052E-05   -0.24173E-07  1465   0.713E-04    0.945E-05
RMM:  22    -0.413562615024E+03    0.20107E-05   -0.14234E-07  1257   0.631E-04    0.844E-05
RMM:  23    -0.413562613558E+03    0.14665E-05   -0.93337E-08  1140   0.596E-04    0.583E-05
RMM:  24    -0.413562613168E+03    0.38954E-06   -0.47447E-08   952   0.550E-04
  148 T=   140. E= -.41287441E+03 F= -.41356261E+03 E0= -.41354262E+03  EK= 0.68820E+00 SP= 0.00E+00 SK= 0.00E+00
       N       E                     dE             d eps       ncg     rms          rms(c)
RMM:   1    -0.413269753926E+03    0.29286E+00   -0.11616E+01  4305   0.669E+00    0.704E-01
RMM:   2    -0.413266172011E+03    0.35819E-02   -0.28624E-01  5379   0.579E-01    0.757E-01
RMM:   3    -0.413259530798E+03    0.66412E-02   -0.51301E-02  5591   0.238E-01    0.690E-01
RMM:   4    -0.413248390752E+03    0.11140E-01   -0.11525E-02  5039   0.130E-01    0.425E-01
RMM:   5    -0.413249422412E+03   -0.10317E-02   -0.26535E-02  5152   0.182E-01    0.306E-01
RMM:   6    -0.413247121676E+03    0.23007E-02   -0.22176E-02  5245   0.165E-01    0.168E-01
RMM:   7    -0.413246606372E+03    0.51530E-03   -0.24789E-03  5610   0.651E-02    0.132E-01
RMM:   8    -0.413246150798E+03    0.45557E-03   -0.14284E-03  4472   0.435E-02    0.509E-02
RMM:   9    -0.413246255778E+03   -0.10498E-03   -0.11680E-03  5422   0.338E-02    0.194E-02
RMM:  10    -0.413246274538E+03   -0.18760E-04   -0.69331E-05  5058   0.109E-02    0.122E-02
RMM:  11    -0.413246299204E+03   -0.24666E-04   -0.34611E-05  4256   0.756E-03    0.569E-03
RMM:  12    -0.413246318856E+03   -0.19652E-04   -0.12121E-05  3512   0.455E-03    0.338E-03
RMM:  13    -0.413246337145E+03   -0.18289E-04   -0.77077E-06  3178   0.380E-03    0.280E-03
RMM:  14    -0.413246343849E+03   -0.67048E-05   -0.64074E-06  3069   0.307E-03    0.171E-03
RMM:  15    -0.413246344370E+03   -0.52085E-06   -0.60740E-06  3045   0.278E-03
  149 T=    77. E= -.41286651E+03 F= -.41324634E+03 E0= -.41322639E+03  EK= 0.37984E+00 SP= 0.00E+00 SK= 0.00E+00
       N       E                     dE             d eps       ncg     rms          rms(c)
RMM:   1    -0.413030678097E+03    0.21567E+00   -0.50115E+00  4303   0.443E+00    0.412E-01
RMM:   2    -0.413035139478E+03   -0.44614E-02   -0.10127E-01  5357   0.342E-01    0.396E-01
RMM:   3    -0.413035958514E+03   -0.81904E-03   -0.16732E-02  5657   0.131E-01    0.405E-01
RMM:   4    -0.413031899845E+03    0.40587E-02   -0.40860E-03  4997   0.763E-02    0.237E-01
RMM:   5    -0.413032592296E+03   -0.69245E-03   -0.11149E-02  5196   0.119E-01    0.164E-01
RMM:   6    -0.413031597006E+03    0.99529E-03   -0.58079E-03  5280   0.869E-02    0.916E-02
RMM:   7    -0.413031458293E+03    0.13871E-03   -0.67225E-04  5636   0.336E-02    0.709E-02
RMM:   8    -0.413031362504E+03    0.95788E-04   -0.61626E-04  4475   0.279E-02    0.198E-02
RMM:   9    -0.413031415864E+03   -0.53360E-04   -0.28008E-04  5614   0.168E-02    0.141E-02
RMM:  10    -0.413031416226E+03   -0.36196E-06   -0.22072E-05  4205   0.616E-03    0.758E-03
RMM:  11    -0.413031426305E+03   -0.10079E-04   -0.17455E-05  3930   0.493E-03    0.310E-03
RMM:  12    -0.413031434094E+03   -0.77887E-05   -0.40169E-06  2922   0.283E-03    0.193E-03
RMM:  13    -0.413031441625E+03   -0.75317E-05   -0.39911E-06  2880   0.263E-03    0.151E-03
RMM:  14    -0.413031442310E+03   -0.68479E-06   -0.38012E-06  2801   0.229E-03
  150 T=    34. E= -.41286324E+03 F= -.41303144E+03 E0= -.41301144E+03  EK= 0.16820E+00 SP= 0.00E+00 SK= 0.00E+00
