       N       E                     dE             d eps       ncg     rms          rms(c)
RMM:   1     0.220074878857E+04    0.22007E+04   -0.52444E+04  2132   0.654E+02
RMM:   2     0.705149363975E+03   -0.14956E+04   -0.16261E+04  2132   0.177E+02
RMM:   3     0.137633113428E+03   -0.56752E+03   -0.65702E+03  2132   0.117E+02
RMM:   4    -0.159022288343E+03   -0.29666E+03   -0.27849E+03  2132   0.936E+01
RMM:   5    -0.287465220151E+03   -0.12844E+03   -0.11444E+03  2132   0.595E+01
RMM:   6    -0.349838791501E+03   -0.62374E+02   -0.55169E+02  2132   0.423E+01
RMM:   7    -0.382765460041E+03   -0.32927E+02   -0.30446E+02  2132   0.293E+01
RMM:   8    -0.404260864005E+03   -0.21495E+02   -0.18429E+02  2132   0.233E+01
RMM:   9    -0.436007547312E+03   -0.31747E+02   -0.30678E+02  6103   0.173E+01
RMM:  10    -0.441306875157E+03   -0.52993E+01   -0.63241E+01  6388   0.538E+00
RMM:  11    -0.442497535181E+03   -0.11907E+01   -0.11009E+01  6226   0.173E+00
RMM:  12    -0.442870135258E+03   -0.37260E+00   -0.26228E+00  6379   0.597E-01    0.134E+02
RMM:  13    -0.425597688963E+03    0.17272E+02   -0.80908E+01  4677   0.119E+01    0.712E+01
RMM:  14    -0.499570017823E+03   -0.73972E+02   -0.54116E+02  5418   0.232E+01    0.307E+01
RMM:  15    -0.415049875658E+03    0.84520E+02   -0.19726E+02  5072   0.163E+01    0.648E+00
RMM:  16    -0.414006817148E+03    0.10431E+01   -0.38959E+01  6072   0.605E+00    0.424E+00
RMM:  17    -0.413212115541E+03    0.79470E+00   -0.24283E+00  5367   0.184E+00    0.243E+00
RMM:  18    -0.413169891339E+03    0.42224E-01   -0.80637E-01  5968   0.919E-01    0.162E+00
RMM:  19    -0.413166687904E+03    0.32034E-02   -0.29740E-01  5679   0.584E-01    0.847E-01
RMM:  20    -0.413180988918E+03   -0.14301E-01   -0.21075E-01  5459   0.493E-01    0.524E-01
RMM:  21    -0.413166796937E+03    0.14192E-01   -0.34046E-02  5009   0.223E-01    0.246E-01
RMM:  22    -0.413165373941E+03    0.14230E-02   -0.14505E-02  6114   0.100E-01    0.148E-01
RMM:  23    -0.413164004770E+03    0.13692E-02   -0.57974E-03  5845   0.700E-02    0.844E-02
RMM:  24    -0.413162822110E+03    0.11827E-02   -0.16864E-03  5421   0.408E-02    0.408E-02
RMM:  25    -0.413162591216E+03    0.23089E-03   -0.82306E-04  5594   0.259E-02    0.314E-02
RMM:  26    -0.413162807841E+03   -0.21663E-03   -0.73666E-04  5841   0.282E-02    0.333E-02
RMM:  27    -0.413163234315E+03   -0.42647E-03   -0.18580E-04  4562   0.198E-02    0.182E-02
RMM:  28    -0.413163699501E+03   -0.46519E-03   -0.18793E-04  5376   0.193E-02    0.970E-03
RMM:  29    -0.413164080443E+03   -0.38094E-03   -0.10018E-04  4427   0.150E-02    0.463E-03
RMM:  30    -0.413164309012E+03   -0.22857E-03   -0.76996E-05  4186   0.102E-02    0.325E-03
RMM:  31    -0.413164417412E+03   -0.10840E-03   -0.44523E-05  3154   0.590E-03    0.292E-03
RMM:  32    -0.413164446480E+03   -0.29068E-04   -0.18671E-05  2924   0.305E-03    0.132E-03
RMM:  33    -0.413164457894E+03   -0.11415E-04   -0.82172E-06  2786   0.214E-03    0.512E-04
RMM:  34    -0.413164461936E+03   -0.40419E-05   -0.45513E-06  2672   0.174E-03    0.102E-03
RMM:  35    -0.413164461805E+03    0.13102E-06   -0.20989E-06  2298   0.115E-03
    1 T=    61. E= -.41286665E+03 F= -.41316446E+03 E0= -.41314196E+03  EK= 0.29781E+00 SP= 0.00E+00 SK= 0.00E+00
       N       E                     dE             d eps       ncg     rms          rms(c)
RMM:   1    -0.413154362508E+03    0.10099E-01   -0.11197E+01  3993   0.700E-01    0.887E-01
RMM:   2    -0.413165475093E+03   -0.11113E-01   -0.13814E-01  3885   0.991E-02    0.640E-01
RMM:   3    -0.413163973655E+03    0.15014E-02   -0.61781E-03  4542   0.344E-02    0.152E-01
RMM:   4    -0.413173161949E+03   -0.91883E-02   -0.97944E-03  5221   0.833E-02    0.404E-01
RMM:   5    -0.413163801579E+03    0.93604E-02   -0.46623E-03  4868   0.671E-02    0.211E-02
RMM:   6    -0.413163848671E+03   -0.47092E-04   -0.75078E-04  5853   0.261E-02    0.131E-02
RMM:   7    -0.413163859205E+03   -0.10533E-04   -0.93446E-05  5400   0.861E-03    0.929E-03
RMM:   8    -0.413163866532E+03   -0.73272E-05   -0.11292E-05  3365   0.352E-03    0.518E-03
RMM:   9    -0.413163873934E+03   -0.74019E-05   -0.25555E-06  2633   0.215E-03    0.318E-03
RMM:  10    -0.413163881542E+03   -0.76086E-05   -0.13707E-06  2530   0.164E-03    0.168E-03
RMM:  11    -0.413163888225E+03   -0.66822E-05   -0.99311E-07  2469   0.135E-03    0.675E-04
RMM:  12    -0.413163891136E+03   -0.29117E-05   -0.52049E-07  2080   0.981E-04    0.291E-04
RMM:  13    -0.413163893055E+03   -0.19183E-05   -0.33473E-07  1509   0.779E-04    0.173E-04
RMM:  14    -0.413163895295E+03   -0.22402E-05   -0.28471E-07  1399   0.732E-04    0.124E-04
RMM:  15    -0.413163896613E+03   -0.13181E-05   -0.21575E-07  1257   0.673E-04    0.606E-05
RMM:  16    -0.413163897291E+03   -0.67818E-06   -0.16389E-07  1153   0.626E-04
    2 T=    61. E= -.41286620E+03 F= -.41316390E+03 E0= -.41314140E+03  EK= 0.29770E+00 SP= 0.00E+00 SK= 0.00E+00
       N       E                     dE             d eps       ncg     rms          rms(c)
RMM:   1    -0.413155587207E+03    0.83094E-02   -0.11231E+01  4196   0.708E-01    0.911E-01
RMM:   2    -0.413165417876E+03   -0.98307E-02   -0.13534E-01  3954   0.973E-02    0.633E-01
RMM:   3    -0.413164901126E+03    0.51675E-03   -0.67657E-03  4911   0.388E-02    0.172E-01
RMM:   4    -0.413195664534E+03   -0.30763E-01   -0.31245E-02  5185   0.148E-01    0.730E-01
RMM:   5    -0.413164471821E+03    0.31193E-01   -0.15090E-02  4827   0.122E-01    0.376E-02
RMM:   6    -0.413164652180E+03   -0.18036E-03   -0.24441E-03  5801   0.476E-02    0.183E-02
RMM:   7    -0.413164666577E+03   -0.14397E-04   -0.28752E-04  5893   0.139E-02    0.137E-02
RMM:   8    -0.413164667386E+03   -0.80918E-06   -0.36521E-05  4355   0.518E-03    0.879E-03
RMM:   9    -0.413164666552E+03    0.83402E-06   -0.54990E-06  2914   0.266E-03
    3 T=    61. E= -.41286672E+03 F= -.41316467E+03 E0= -.41314217E+03  EK= 0.29795E+00 SP= 0.00E+00 SK= 0.00E+00
       N       E                     dE             d eps       ncg     rms          rms(c)
RMM:   1    -0.413155044322E+03    0.96231E-02   -0.11144E+01  4226   0.707E-01    0.894E-01
RMM:   2    -0.413165482595E+03   -0.10438E-01   -0.13421E-01  4195   0.980E-02    0.627E-01
RMM:   3    -0.413167599308E+03   -0.21167E-02   -0.88417E-03  5173   0.638E-02    0.287E-01
RMM:   4    -0.413195491034E+03   -0.27892E-01   -0.41458E-02  5142   0.172E-01    0.734E-01
RMM:   5    -0.413164273565E+03    0.31217E-01   -0.13333E-02  4743   0.123E-01    0.535E-02
RMM:   6    -0.413164330554E+03   -0.56989E-04   -0.22197E-03  5596   0.468E-02    0.158E-02
RMM:   7    -0.413164356081E+03   -0.25526E-04   -0.30920E-04  6041   0.150E-02    0.117E-02
RMM:   8    -0.413164359219E+03   -0.31387E-05   -0.38511E-05  4605   0.540E-03    0.748E-03
RMM:   9    -0.413164361127E+03   -0.19079E-05   -0.64485E-06  3023   0.350E-03    0.358E-03
RMM:  10    -0.413164362929E+03   -0.18017E-05   -0.19982E-06  2555   0.221E-03    0.213E-03
RMM:  11    -0.413164364857E+03   -0.19281E-05   -0.97527E-07  2536   0.154E-03    0.962E-04
RMM:  12    -0.413164365879E+03   -0.10223E-05   -0.45764E-07  2071   0.103E-03    0.438E-04
RMM:  13    -0.413164366987E+03   -0.11079E-05   -0.37246E-07  1803   0.893E-04    0.230E-04
RMM:  14    -0.413164367490E+03   -0.50235E-06   -0.20536E-07  1379   0.729E-04
    4 T=    61. E= -.41286646E+03 F= -.41316437E+03 E0= -.41314188E+03  EK= 0.29791E+00 SP= 0.00E+00 SK= 0.00E+00
       N       E                     dE             d eps       ncg     rms          rms(c)
RMM:   1    -0.413154801677E+03    0.95653E-02   -0.11182E+01  4236   0.711E-01    0.884E-01
RMM:   2    -0.413165803735E+03   -0.11002E-01   -0.13839E-01  3886   0.946E-02    0.639E-01
RMM:   3    -0.413164766015E+03    0.10377E-02   -0.62873E-03  4942   0.366E-02    0.167E-01
RMM:   4    -0.413196810083E+03   -0.32044E-01   -0.32743E-02  5160   0.151E-01    0.745E-01
RMM:   5    -0.413164248783E+03    0.32561E-01   -0.15809E-02  4822   0.124E-01    0.367E-02
RMM:   6    -0.413164434289E+03   -0.18551E-03   -0.25054E-03  5789   0.482E-02    0.163E-02
RMM:   7    -0.413164454887E+03   -0.20598E-04   -0.29298E-04  5877   0.139E-02    0.128E-02
RMM:   8    -0.413164459881E+03   -0.49949E-05   -0.35892E-05  4301   0.511E-03    0.824E-03
RMM:   9    -0.413164464168E+03   -0.42863E-05   -0.54070E-06  2877   0.265E-03    0.568E-03
RMM:  10    -0.413164471210E+03   -0.70419E-05   -0.22871E-06  2577   0.219E-03    0.267E-03
RMM:  11    -0.413164476621E+03   -0.54110E-05   -0.14252E-06  2538   0.177E-03    0.136E-03
RMM:  12    -0.413164479831E+03   -0.32100E-05   -0.72219E-07  2428   0.132E-03    0.489E-04
RMM:  13    -0.413164481255E+03   -0.14239E-05   -0.33496E-07  2006   0.934E-04    0.300E-04
RMM:  14    -0.413164482873E+03   -0.16186E-05   -0.23717E-07  1555   0.791E-04    0.183E-04
RMM:  15    -0.413164484381E+03   -0.15082E-05   -0.20842E-07  1502   0.746E-04    0.137E-04
RMM:  16    -0.413164484718E+03   -0.33618E-06   -0.10253E-07  1131   0.637E-04
    5 T=    61. E= -.41286641E+03 F= -.41316448E+03 E0= -.41314201E+03  EK= 0.29807E+00 SP= 0.00E+00 SK= 0.00E+00
       N       E                     dE             d eps       ncg     rms          rms(c)
RMM:   1    -0.413155821419E+03    0.86630E-02   -0.11240E+01  4249   0.717E-01    0.907E-01
RMM:   2    -0.413166107467E+03   -0.10286E-01   -0.13528E-01  4020   0.968E-02    0.635E-01
RMM:   3    -0.413165346545E+03    0.76092E-03   -0.65502E-03  4837   0.380E-02    0.168E-01
RMM:   4    -0.413193067168E+03   -0.27721E-01   -0.27977E-02  5163   0.139E-01    0.694E-01
RMM:   5    -0.413164942807E+03    0.28124E-01   -0.13766E-02  4819   0.115E-01    0.350E-02
RMM:   6    -0.413165108133E+03   -0.16533E-03   -0.21801E-03  5789   0.448E-02    0.176E-02
RMM:   7    -0.413165119884E+03   -0.11751E-04   -0.25366E-04  5839   0.131E-02    0.131E-02
RMM:   8    -0.413165120818E+03   -0.93421E-06   -0.31780E-05  4234   0.494E-03    0.840E-03
RMM:   9    -0.413165120366E+03    0.45176E-06   -0.50235E-06  2855   0.260E-03
    6 T=    61. E= -.41286665E+03 F= -.41316512E+03 E0= -.41314266E+03  EK= 0.29847E+00 SP= 0.00E+00 SK= 0.00E+00
       N       E                     dE             d eps       ncg     rms          rms(c)
RMM:   1    -0.413155497982E+03    0.96228E-02   -0.11183E+01  4269   0.723E-01    0.902E-01
RMM:   2    -0.413165446021E+03   -0.99480E-02   -0.13469E-01  4238   0.999E-02    0.628E-01
RMM:   3    -0.413167472711E+03   -0.20267E-02   -0.87192E-03  5137   0.609E-02    0.275E-01
RMM:   4    -0.413197448155E+03   -0.29975E-01   -0.42241E-02  5133   0.172E-01    0.753E-01
RMM:   5    -0.413164517773E+03    0.32930E-01   -0.14320E-02  4763   0.125E-01    0.532E-02
RMM:   6    -0.413164589724E+03   -0.71951E-04   -0.23427E-03  5609   0.480E-02    0.158E-02
RMM:   7    -0.413164615144E+03   -0.25420E-04   -0.31842E-04  6036   0.151E-02    0.119E-02
RMM:   8    -0.413164617142E+03   -0.19979E-05   -0.39227E-05  4595   0.544E-03    0.764E-03
RMM:   9    -0.413164615666E+03    0.14758E-05   -0.61373E-06  2931   0.338E-03    0.356E-03
RMM:  10    -0.413164615621E+03    0.45144E-07   -0.21103E-06  2550   0.222E-03
    7 T=    61. E= -.41286613E+03 F= -.41316462E+03 E0= -.41314217E+03  EK= 0.29849E+00 SP= 0.00E+00 SK= 0.00E+00
       N       E                     dE             d eps       ncg     rms          rms(c)
RMM:   1    -0.413155546603E+03    0.90691E-02   -0.11179E+01  4272   0.725E-01    0.883E-01
RMM:   2    -0.413166642259E+03   -0.11096E-01   -0.13767E-01  4103   0.953E-02    0.636E-01
RMM:   3    -0.413165995950E+03    0.64631E-03   -0.65192E-03  5034   0.414E-02    0.184E-01
RMM:   4    -0.413208287271E+03   -0.42291E-01   -0.44579E-02  5156   0.175E-01    0.854E-01
RMM:   5    -0.413165164725E+03    0.43123E-01   -0.20808E-02  4803   0.143E-01    0.441E-02
RMM:   6    -0.413165377067E+03   -0.21234E-03   -0.32261E-03  5769   0.553E-02    0.164E-02
RMM:   7    -0.413165406493E+03   -0.29426E-04   -0.38947E-04  5931   0.158E-02    0.136E-02
RMM:   8    -0.413165411053E+03   -0.45597E-05   -0.45659E-05  4435   0.559E-03    0.872E-03
RMM:   9    -0.413165414097E+03   -0.30441E-05   -0.66901E-06  2959   0.275E-03    0.589E-03
RMM:  10    -0.413165419520E+03   -0.54232E-05   -0.27021E-06  2594   0.233E-03    0.269E-03
RMM:  11    -0.413165423595E+03   -0.40745E-05   -0.15001E-06  2536   0.181E-03    0.126E-03
RMM:  12    -0.413165426015E+03   -0.24205E-05   -0.82731E-07  2454   0.137E-03    0.428E-04
RMM:  13    -0.413165427316E+03   -0.13007E-05   -0.39066E-07  2045   0.976E-04    0.301E-04
RMM:  14    -0.413165428556E+03   -0.12406E-05   -0.30613E-07  1697   0.836E-04    0.213E-04
RMM:  15    -0.413165429245E+03   -0.68816E-06   -0.20778E-07  1452   0.738E-04
    8 T=    61. E= -.41286660E+03 F= -.41316543E+03 E0= -.41314300E+03  EK= 0.29883E+00 SP= 0.00E+00 SK= 0.00E+00
       N       E                     dE             d eps       ncg     rms          rms(c)
RMM:   1    -0.413156075279E+03    0.93533E-02   -0.11249E+01  4284   0.730E-01    0.901E-01
RMM:   2    -0.413166553285E+03   -0.10478E-01   -0.13682E-01  4171   0.102E-01    0.638E-01
RMM:   3    -0.413165712217E+03    0.84107E-03   -0.65035E-03  4850   0.386E-02    0.168E-01
RMM:   4    -0.413195188739E+03   -0.29477E-01   -0.29958E-02  5154   0.144E-01    0.716E-01
RMM:   5    -0.413165206448E+03    0.29982E-01   -0.14649E-02  4806   0.119E-01    0.353E-02
RMM:   6    -0.413165384350E+03   -0.17790E-03   -0.23315E-03  5789   0.463E-02    0.172E-02
RMM:   7    -0.413165397853E+03   -0.13503E-04   -0.27119E-04  5848   0.135E-02    0.131E-02
RMM:   8    -0.413165399316E+03   -0.14631E-05   -0.33777E-05  4274   0.508E-03    0.856E-03
RMM:   9    -0.413165399192E+03    0.12421E-06   -0.52522E-06  2874   0.266E-03
    9 T=    61. E= -.41286637E+03 F= -.41316540E+03 E0= -.41314299E+03  EK= 0.29903E+00 SP= 0.00E+00 SK= 0.00E+00
       N       E                     dE             d eps       ncg     rms          rms(c)
RMM:   1    -0.413156463547E+03    0.89358E-02   -0.11232E+01  4290   0.735E-01    0.910E-01
RMM:   2    -0.413166210037E+03   -0.97465E-02   -0.13489E-01  4276   0.996E-02    0.629E-01
RMM:   3    -0.413168956744E+03   -0.27467E-02   -0.93290E-03  5138   0.650E-02    0.293E-01
RMM:   4    -0.413195059560E+03   -0.26103E-01   -0.40028E-02  5117   0.168E-01    0.716E-01
RMM:   5    -0.413165542435E+03    0.29517E-01   -0.12555E-02  4728   0.119E-01    0.525E-02
RMM:   6    -0.413165597232E+03   -0.54797E-04   -0.20961E-03  5602   0.451E-02    0.165E-02
RMM:   7    -0.413165617083E+03   -0.19851E-04   -0.28709E-04  6025   0.145E-02    0.119E-02
RMM:   8    -0.413165617298E+03   -0.21543E-06   -0.35255E-05  4527   0.527E-03    0.752E-03
RMM:   9    -0.413165613212E+03    0.40862E-05   -0.64126E-06  2988   0.348E-03    0.354E-03
RMM:  10    -0.413165611558E+03    0.16544E-05   -0.19474E-06  2549   0.217E-03    0.207E-03
RMM:  11    -0.413165609818E+03    0.17393E-05   -0.92828E-07  2521   0.152E-03    0.940E-04
RMM:  12    -0.413165608883E+03    0.93577E-06   -0.43163E-07  2055   0.102E-03
   10 T=    61. E= -.41286634E+03 F= -.41316561E+03 E0= -.41314322E+03  EK= 0.29927E+00 SP= 0.00E+00 SK= 0.00E+00
       N       E                     dE             d eps       ncg     rms          rms(c)
RMM:   1    -0.413156636690E+03    0.89731E-02   -0.11184E+01  4287   0.736E-01    0.884E-01
RMM:   2    -0.413167737469E+03   -0.11101E-01   -0.13660E-01  4195   0.959E-02    0.634E-01
RMM:   3    -0.413166661551E+03    0.10759E-02   -0.61470E-03  4849   0.377E-02    0.166E-01
RMM:   4    -0.413194529311E+03   -0.27868E-01   -0.28364E-02  5152   0.140E-01    0.697E-01
RMM:   5    -0.413166147466E+03    0.28382E-01   -0.13929E-02  4809   0.116E-01    0.337E-02
RMM:   6    -0.413166316418E+03   -0.16895E-03   -0.22046E-03  5812   0.447E-02    0.167E-02
RMM:   7    -0.413166330225E+03   -0.13807E-04   -0.25054E-04  5824   0.130E-02    0.127E-02
RMM:   8    -0.413166332295E+03   -0.20699E-05   -0.32210E-05  4268   0.500E-03    0.848E-03
RMM:   9    -0.413166332630E+03   -0.33550E-06   -0.51225E-06  2877   0.266E-03
   11 T=    61. E= -.41286662E+03 F= -.41316633E+03 E0= -.41314397E+03  EK= 0.29971E+00 SP= 0.00E+00 SK= 0.00E+00
       N       E                     dE             d eps       ncg     rms          rms(c)
RMM:   1    -0.413156684351E+03    0.96479E-02   -0.11264E+01  4289   0.744E-01    0.896E-01
RMM:   2    -0.413167329793E+03   -0.10645E-01   -0.13830E-01  4281   0.979E-02    0.641E-01
RMM:   3    -0.413169591446E+03   -0.22617E-02   -0.90376E-03  5139   0.648E-02    0.294E-01
RMM:   4    -0.413199706192E+03   -0.30115E-01   -0.45012E-02  5116   0.178E-01    0.760E-01
RMM:   5    -0.413166016188E+03    0.33690E-01   -0.14453E-02  4733   0.126E-01    0.534E-02
RMM:   6    -0.413166095967E+03   -0.79779E-04   -0.24067E-03  5613   0.481E-02    0.143E-02
RMM:   7    -0.413166123161E+03   -0.27194E-04   -0.32283E-04  6034   0.152E-02    0.115E-02
RMM:   8    -0.413166126434E+03   -0.32728E-05   -0.38980E-05  4601   0.543E-03    0.736E-03
RMM:   9    -0.413166128281E+03   -0.18466E-05   -0.65281E-06  2999   0.351E-03    0.371E-03
RMM:  10    -0.413166129995E+03   -0.17141E-05   -0.22049E-06  2558   0.227E-03    0.221E-03
RMM:  11    -0.413166131440E+03   -0.14451E-05   -0.11184E-06  2544   0.158E-03    0.960E-04
RMM:  12    -0.413166132049E+03   -0.60899E-06   -0.47859E-07  2125   0.105E-03
   12 T=    61. E= -.41286616E+03 F= -.41316613E+03 E0= -.41314380E+03  EK= 0.29997E+00 SP= 0.00E+00 SK= 0.00E+00
       N       E                     dE             d eps       ncg     rms          rms(c)
RMM:   1    -0.413157748880E+03    0.83826E-02   -0.11292E+01  4299   0.748E-01    0.915E-01
RMM:   2    -0.413167587902E+03   -0.98390E-02   -0.13498E-01  4209   0.933E-02    0.631E-01
RMM:   3    -0.413167086173E+03    0.50173E-03   -0.67263E-03  4926   0.358E-02    0.172E-01
RMM:   4    -0.413195616428E+03   -0.28530E-01   -0.28904E-02  5150   0.141E-01    0.704E-01
RMM:   5    -0.413166702478E+03    0.28914E-01   -0.14315E-02  4811   0.117E-01    0.353E-02
RMM:   6    -0.413166864042E+03   -0.16156E-03   -0.21421E-03  5811   0.449E-02    0.185E-02
RMM:   7    -0.413166872976E+03   -0.89342E-05   -0.24879E-04  5823   0.132E-02    0.133E-02
RMM:   8    -0.413166871619E+03    0.13573E-05   -0.33290E-05  4332   0.509E-03    0.885E-03
RMM:   9    -0.413166867378E+03    0.42410E-05   -0.52097E-06  2883   0.267E-03    0.605E-03
RMM:  10    -0.413166862848E+03    0.45297E-05   -0.20717E-06  2552   0.216E-03    0.287E-03
RMM:  11    -0.413166859509E+03    0.33388E-05   -0.14918E-06  2537   0.183E-03    0.140E-03
RMM:  12    -0.413166857006E+03    0.25033E-05   -0.70560E-07  2426   0.135E-03    0.488E-04
RMM:  13    -0.413166856102E+03    0.90384E-06   -0.30833E-07  2007   0.925E-04
   13 T=    61. E= -.41286630E+03 F= -.41316686E+03 E0= -.41314455E+03  EK= 0.30056E+00 SP= 0.00E+00 SK= 0.00E+00
       N       E                     dE             d eps       ncg     rms          rms(c)
RMM:   1    -0.413158132314E+03    0.87247E-02   -0.11211E+01  4296   0.759E-01    0.889E-01
RMM:   2    -0.413168428292E+03   -0.10296E-01   -0.13705E-01  4225   0.961E-02    0.632E-01
RMM:   3    -0.413167629348E+03    0.79894E-03   -0.62529E-03  4877   0.360E-02    0.168E-01
RMM:   4    -0.413195207734E+03   -0.27578E-01   -0.28138E-02  5143   0.140E-01    0.693E-01
RMM:   5    -0.413167123889E+03    0.28084E-01   -0.13885E-02  4808   0.115E-01    0.333E-02
RMM:   6    -0.413167282540E+03   -0.15865E-03   -0.20818E-03  5804   0.442E-02    0.167E-02
RMM:   7    -0.413167292684E+03   -0.10144E-04   -0.24183E-04  5811   0.130E-02    0.125E-02
RMM:   8    -0.413167292993E+03   -0.30864E-06   -0.31765E-05  4245   0.494E-03    0.831E-03
RMM:   9    -0.413167291304E+03    0.16890E-05   -0.48385E-06  2841   0.259E-03    0.574E-03
RMM:  10    -0.413167290396E+03    0.90793E-06   -0.20649E-06  2557   0.213E-03
   14 T=    61. E= -.41286626E+03 F= -.41316729E+03 E0= -.41314502E+03  EK= 0.30103E+00 SP= 0.00E+00 SK= 0.00E+00
       N       E                     dE             d eps       ncg     rms          rms(c)
RMM:   1    -0.413157740434E+03    0.95509E-02   -0.11299E+01  4306   0.758E-01    0.892E-01
RMM:   2    -0.413169142803E+03   -0.11402E-01   -0.13963E-01  4297   0.996E-02    0.643E-01
RMM:   3    -0.413170766120E+03   -0.16233E-02   -0.87131E-03  5114   0.642E-02    0.285E-01
RMM:   4    -0.413203811036E+03   -0.33045E-01   -0.46908E-02  5107   0.181E-01    0.788E-01
RMM:   5    -0.413167467355E+03    0.36344E-01   -0.15752E-02  4743   0.130E-01    0.508E-02
RMM:   6    -0.413167571296E+03   -0.10394E-03   -0.25372E-03  5638   0.494E-02    0.137E-02
RMM:   7    -0.413167598318E+03   -0.27021E-04   -0.32368E-04  6012   0.150E-02    0.114E-02
RMM:   8    -0.413167601543E+03   -0.32252E-05   -0.38952E-05  4525   0.535E-03    0.707E-03
RMM:   9    -0.413167603000E+03   -0.14574E-05   -0.56699E-06  2844   0.310E-03    0.347E-03
RMM:  10    -0.413167604670E+03   -0.16697E-05   -0.23506E-06  2567   0.218E-03    0.201E-03
RMM:  11    -0.413167605721E+03   -0.10515E-05   -0.10175E-06  2527   0.148E-03    0.811E-04
RMM:  12    -0.413167606221E+03   -0.49955E-06   -0.48387E-07  1950   0.102E-03
   15 T=    61. E= -.41286620E+03 F= -.41316761E+03 E0= -.41314537E+03  EK= 0.30140E+00 SP= 0.00E+00 SK= 0.00E+00
       N       E                     dE             d eps       ncg     rms          rms(c)
RMM:   1    -0.413159418376E+03    0.81873E-02   -0.11346E+01  4303   0.765E-01    0.917E-01
RMM:   2    -0.413169435784E+03   -0.10017E-01   -0.13647E-01  4248   0.100E-01    0.635E-01
RMM:   3    -0.413168859810E+03    0.57597E-03   -0.67632E-03  4908   0.395E-02    0.175E-01
RMM:   4    -0.413200478175E+03   -0.31618E-01   -0.32290E-02  5144   0.149E-01    0.741E-01
RMM:   5    -0.413168296350E+03    0.32182E-01   -0.15772E-02  4810   0.123E-01    0.372E-02
RMM:   6    -0.413168478998E+03   -0.18265E-03   -0.24667E-03  5805   0.477E-02    0.187E-02
RMM:   7    -0.413168487649E+03   -0.86510E-05   -0.27965E-04  5842   0.141E-02    0.138E-02
RMM:   8    -0.413168484992E+03    0.26574E-05   -0.36615E-05  4430   0.529E-03    0.929E-03
RMM:   9    -0.413168479673E+03    0.53183E-05   -0.55461E-06  2905   0.272E-03    0.644E-03
RMM:  10    -0.413168473797E+03    0.58760E-05   -0.21749E-06  2555   0.223E-03    0.305E-03
RMM:  11    -0.413168469544E+03    0.42535E-05   -0.15830E-06  2535   0.189E-03    0.148E-03
RMM:  12    -0.413168466613E+03    0.29308E-05   -0.71748E-07  2438   0.139E-03    0.515E-04
RMM:  13    -0.413168465490E+03    0.11226E-05   -0.32163E-07  2061   0.949E-04    0.326E-04
RMM:  14    -0.413168464001E+03    0.14894E-05   -0.19470E-07  1588   0.773E-04    0.187E-04
RMM:  15    -0.413168461469E+03    0.25326E-05   -0.19487E-07  1608   0.759E-04    0.164E-04
RMM:  16    -0.413168460760E+03    0.70830E-06   -0.78928E-08  1065   0.611E-04
   16 T=    61. E= -.41286641E+03 F= -.41316846E+03 E0= -.41314626E+03  EK= 0.30205E+00 SP= 0.00E+00 SK= 0.00E+00
       N       E                     dE             d eps       ncg     rms          rms(c)
RMM:   1    -0.413159441360E+03    0.90201E-02   -0.11257E+01  4294   0.762E-01    0.896E-01
RMM:   2    -0.413170023279E+03   -0.10582E-01   -0.13731E-01  4254   0.999E-02    0.631E-01
RMM:   3    -0.413169260361E+03    0.76292E-03   -0.64265E-03  4902   0.421E-02    0.178E-01
RMM:   4    -0.413204693847E+03   -0.35433E-01   -0.36446E-02  5140   0.158E-01    0.782E-01
RMM:   5    -0.413168697126E+03    0.35997E-01   -0.17705E-02  4796   0.131E-01    0.387E-02
RMM:   6    -0.413168899298E+03   -0.20217E-03   -0.27692E-03  5791   0.503E-02    0.183E-02
RMM:   7    -0.413168912483E+03   -0.13185E-04   -0.31601E-04  5869   0.147E-02    0.139E-02
RMM:   8    -0.413168911225E+03    0.12580E-05   -0.39764E-05  4414   0.538E-03    0.929E-03
RMM:   9    -0.413168907509E+03    0.37161E-05   -0.59616E-06  2925   0.271E-03    0.649E-03
RMM:  10    -0.413168903764E+03    0.37446E-05   -0.23084E-06  2565   0.228E-03    0.303E-03
RMM:  11    -0.413168901361E+03    0.24032E-05   -0.15521E-06  2522   0.189E-03    0.150E-03
RMM:  12    -0.413168899554E+03    0.18070E-05   -0.75044E-07  2445   0.141E-03    0.511E-04
RMM:  13    -0.413168898878E+03    0.67601E-06   -0.33858E-07  2104   0.973E-04
   17 T=    62. E= -.41286632E+03 F= -.41316890E+03 E0= -.41314674E+03  EK= 0.30258E+00 SP= 0.00E+00 SK= 0.00E+00
       N       E                     dE             d eps       ncg     rms          rms(c)
RMM:   1    -0.413159590439E+03    0.93091E-02   -0.11339E+01  4298   0.769E-01    0.890E-01
RMM:   2    -0.413171075658E+03   -0.11485E-01   -0.14004E-01  4264   0.100E-01    0.644E-01
RMM:   3    -0.413169800746E+03    0.12749E-02   -0.62164E-03  4897   0.382E-02    0.170E-01
RMM:   4    -0.413202107874E+03   -0.32307E-01   -0.33212E-02  5141   0.151E-01    0.748E-01
RMM:   5    -0.413169222386E+03    0.32885E-01   -0.16210E-02  4799   0.125E-01    0.361E-02
RMM:   6    -0.413169414622E+03   -0.19224E-03   -0.25399E-03  5796   0.479E-02    0.169E-02
RMM:   7    -0.413169429509E+03   -0.14888E-04   -0.28657E-04  5841   0.140E-02    0.131E-02
RMM:   8    -0.413169430634E+03   -0.11247E-05   -0.36947E-05  4380   0.522E-03    0.879E-03
RMM:   9    -0.413169429697E+03    0.93695E-06   -0.55927E-06  2909   0.269E-03
   18 T=    62. E= -.41286618E+03 F= -.41316943E+03 E0= -.41314731E+03  EK= 0.30325E+00 SP= 0.00E+00 SK= 0.00E+00
       N       E                     dE             d eps       ncg     rms          rms(c)
RMM:   1    -0.413161386154E+03    0.80445E-02   -0.11403E+01  4296   0.776E-01    0.915E-01
RMM:   2    -0.413171418866E+03   -0.10033E-01   -0.13851E-01  4325   0.991E-02    0.639E-01
RMM:   3    -0.413174261357E+03   -0.28425E-02   -0.95285E-03  5129   0.668E-02    0.307E-01
RMM:   4    -0.413200232016E+03   -0.25971E-01   -0.41651E-02  5095   0.171E-01    0.718E-01
RMM:   5    -0.413170398395E+03    0.29834E-01   -0.12551E-02  4720   0.119E-01    0.518E-02
RMM:   6    -0.413170453631E+03   -0.55237E-04   -0.21017E-03  5584   0.445E-02    0.159E-02
RMM:   7    -0.413170471217E+03   -0.17585E-04   -0.28351E-04  6025   0.146E-02    0.117E-02
RMM:   8    -0.413170470129E+03    0.10880E-05   -0.35175E-05  4522   0.523E-03    0.742E-03
RMM:   9    -0.413170463167E+03    0.69617E-05   -0.60830E-06  2917   0.350E-03    0.365E-03
RMM:  10    -0.413170459438E+03    0.37285E-05   -0.19694E-06  2534   0.219E-03    0.207E-03
RMM:  11    -0.413170455347E+03    0.40915E-05   -0.93432E-07  2520   0.153E-03    0.926E-04
RMM:  12    -0.413170453207E+03    0.21400E-05   -0.42593E-07  2085   0.103E-03    0.454E-04
RMM:  13    -0.413170450315E+03    0.28917E-05   -0.33795E-07  1873   0.902E-04    0.249E-04
RMM:  14    -0.413170448813E+03    0.15019E-05   -0.18232E-07  1390   0.721E-04    0.157E-04
RMM:  15    -0.413170445762E+03    0.30509E-05   -0.21623E-07  1578   0.768E-04    0.957E-05
RMM:  16    -0.413170444202E+03    0.15599E-05   -0.11930E-07  1292   0.649E-04    0.882E-05
RMM:  17    -0.413170441605E+03    0.25970E-05   -0.12167E-07  1338   0.647E-04    0.385E-05
RMM:  18    -0.413170440470E+03    0.11352E-05   -0.62233E-08   978   0.548E-04    0.238E-05
RMM:  19    -0.413170439644E+03    0.82602E-06   -0.36308E-08   828   0.520E-04
   19 T=    62. E= -.41286620E+03 F= -.41317044E+03 E0= -.41314836E+03  EK= 0.30424E+00 SP= 0.00E+00 SK= 0.00E+00
       N       E                     dE             d eps       ncg     rms          rms(c)
RMM:   1    -0.413161594080E+03    0.88464E-02   -0.11358E+01  4298   0.784E-01    0.905E-01
RMM:   2    -0.413172040431E+03   -0.10446E-01   -0.13753E-01  4258   0.991E-02    0.632E-01
RMM:   3    -0.413171579568E+03    0.46086E-03   -0.66120E-03  4975   0.409E-02    0.187E-01
RMM:   4    -0.413211510185E+03   -0.39931E-01   -0.41854E-02  5140   0.169E-01    0.829E-01
RMM:   5    -0.413170853155E+03    0.40657E-01   -0.19853E-02  4798   0.139E-01    0.424E-02
RMM:   6    -0.413171071133E+03   -0.21798E-03   -0.31611E-03  5790   0.533E-02    0.190E-02
RMM:   7    -0.413171085194E+03   -0.14061E-04   -0.35759E-04  5848   0.156E-02    0.145E-02
RMM:   8    -0.413171082870E+03    0.23236E-05   -0.44824E-05  4523   0.565E-03    0.965E-03
RMM:   9    -0.413171077452E+03    0.54183E-05   -0.66501E-06  2976   0.278E-03    0.666E-03
RMM:  10    -0.413171071310E+03    0.61423E-05   -0.24305E-06  2563   0.233E-03    0.306E-03
RMM:  11    -0.413171067319E+03    0.39912E-05   -0.14872E-06  2515   0.189E-03    0.152E-03
RMM:  12    -0.413171064363E+03    0.29560E-05   -0.77295E-07  2448   0.144E-03    0.501E-04
RMM:  13    -0.413171063248E+03    0.11145E-05   -0.34145E-07  2142   0.992E-04    0.333E-04
RMM:  14    -0.413171061973E+03    0.12747E-05   -0.19010E-07  1656   0.778E-04    0.198E-04
RMM:  15    -0.413171059586E+03    0.23874E-05   -0.16971E-07  1558   0.742E-04    0.141E-04
RMM:  16    -0.413171059022E+03    0.56433E-06   -0.70829E-08  1044   0.609E-04
   20 T=    62. E= -.41286596E+03 F= -.41317106E+03 E0= -.41314903E+03  EK= 0.30510E+00 SP= 0.00E+00 SK= 0.00E+00
       N       E                     dE             d eps       ncg     rms          rms(c)
RMM:   1    -0.413162151969E+03    0.89076E-02   -0.11405E+01  4296   0.786E-01    0.891E-01
RMM:   2    -0.413173410739E+03   -0.11259E-01   -0.14197E-01  4265   0.102E-01    0.644E-01
RMM:   3    -0.413172392347E+03    0.10184E-02   -0.63367E-03  4953   0.394E-02    0.178E-01
RMM:   4    -0.413210008561E+03   -0.37616E-01   -0.39145E-02  5136   0.164E-01    0.806E-01
RMM:   5    -0.413171635948E+03    0.38373E-01   -0.18857E-02  4796   0.135E-01    0.392E-02
RMM:   6    -0.413171852059E+03   -0.21611E-03   -0.30017E-03  5798   0.519E-02    0.175E-02
RMM:   7    -0.413171869959E+03   -0.17901E-04   -0.33697E-04  5855   0.152E-02    0.138E-02
RMM:   8    -0.413171870298E+03   -0.33897E-06   -0.42906E-05  4493   0.556E-03    0.937E-03
RMM:   9    -0.413171868043E+03    0.22553E-05   -0.63829E-06  2959   0.277E-03    0.662E-03
RMM:  10    -0.413171866668E+03    0.13751E-05   -0.24463E-06  2576   0.236E-03    0.312E-03
RMM:  11    -0.413171865961E+03    0.70698E-06   -0.16965E-06  2536   0.197E-03
   21 T=    62. E= -.41286591E+03 F= -.41317187E+03 E0= -.41314988E+03  EK= 0.30596E+00 SP= 0.00E+00 SK= 0.00E+00
       N       E                     dE             d eps       ncg     rms          rms(c)
RMM:   1    -0.413163461414E+03    0.84053E-02   -0.11484E+01  4296   0.791E-01    0.913E-01
RMM:   2    -0.413174169987E+03   -0.10709E-01   -0.14069E-01  4288   0.991E-02    0.643E-01
RMM:   3    -0.413174235524E+03   -0.65536E-04   -0.70930E-03  5037   0.477E-02    0.212E-01
RMM:   4    -0.413219880113E+03   -0.45645E-01   -0.50812E-02  5132   0.187E-01    0.889E-01
RMM:   5    -0.413172922330E+03    0.46958E-01   -0.22505E-02  4787   0.149E-01    0.464E-02
RMM:   6    -0.413173140997E+03   -0.21867E-03   -0.34831E-03  5774   0.571E-02    0.183E-02
RMM:   7    -0.413173161306E+03   -0.20309E-04   -0.41162E-04  5950   0.166E-02    0.148E-02
RMM:   8    -0.413173159810E+03    0.14958E-05   -0.51186E-05  4653   0.595E-03    0.982E-03
RMM:   9    -0.413173154582E+03    0.52280E-05   -0.70411E-06  2988   0.285E-03    0.642E-03
RMM:  10    -0.413173148674E+03    0.59083E-05   -0.27379E-06  2584   0.244E-03    0.285E-03
RMM:  11    -0.413173144591E+03    0.40823E-05   -0.14719E-06  2514   0.188E-03    0.134E-03
RMM:  12    -0.413173141386E+03    0.32057E-05   -0.77134E-07  2459   0.141E-03    0.450E-04
RMM:  13    -0.413173139738E+03    0.16479E-05   -0.33758E-07  2104   0.981E-04    0.320E-04
RMM:  14    -0.413173137287E+03    0.24506E-05   -0.22569E-07  1722   0.810E-04    0.222E-04
RMM:  15    -0.413173135043E+03    0.22442E-05   -0.14910E-07  1437   0.710E-04    0.107E-04
RMM:  16    -0.413173134173E+03    0.86993E-06   -0.78964E-08  1145   0.620E-04
   22 T=    62. E= -.41286627E+03 F= -.41317313E+03 E0= -.41315119E+03  EK= 0.30686E+00 SP= 0.00E+00 SK= 0.00E+00
       N       E                     dE             d eps       ncg     rms          rms(c)
RMM:   1    -0.413164381127E+03    0.87539E-02   -0.11475E+01  4297   0.792E-01    0.916E-01
RMM:   2    -0.413174662501E+03   -0.10281E-01   -0.13916E-01  4271   0.107E-01    0.635E-01
RMM:   3    -0.413174161387E+03    0.50111E-03   -0.67215E-03  4882   0.431E-02    0.184E-01
RMM:   4    -0.413210817267E+03   -0.36656E-01   -0.37793E-02  5141   0.161E-01    0.795E-01
RMM:   5    -0.413173520387E+03    0.37297E-01   -0.18317E-02  4798   0.133E-01    0.396E-02
RMM:   6    -0.413173717061E+03   -0.19667E-03   -0.29084E-03  5797   0.513E-02    0.195E-02
RMM:   7    -0.413173725712E+03   -0.86511E-05   -0.31805E-04  5878   0.149E-02    0.145E-02
RMM:   8    -0.413173721924E+03    0.37882E-05   -0.41497E-05  4527   0.557E-03    0.989E-03
RMM:   9    -0.413173714702E+03    0.72218E-05   -0.64033E-06  2966   0.284E-03    0.684E-03
RMM:  10    -0.413173706375E+03    0.83269E-05   -0.23662E-06  2564   0.237E-03    0.325E-03
RMM:  11    -0.413173699893E+03    0.64815E-05   -0.16267E-06  2522   0.199E-03    0.162E-03
RMM:  12    -0.413173695514E+03    0.43800E-05   -0.75992E-07  2452   0.146E-03    0.542E-04
RMM:  13    -0.413173693829E+03    0.16843E-05   -0.34130E-07  2132   0.992E-04    0.344E-04
RMM:  14    -0.413173691434E+03    0.23956E-05   -0.19898E-07  1692   0.794E-04    0.199E-04
RMM:  15    -0.413173687877E+03    0.35570E-05   -0.15698E-07  1520   0.736E-04    0.142E-04
RMM:  16    -0.413173687155E+03    0.72114E-06   -0.70845E-08  1062   0.613E-04
   23 T=    63. E= -.41286603E+03 F= -.41317369E+03 E0= -.41315179E+03  EK= 0.30766E+00 SP= 0.00E+00 SK= 0.00E+00
       N       E                     dE             d eps       ncg     rms          rms(c)
RMM:   1    -0.413165038771E+03    0.86491E-02   -0.11465E+01  4294   0.797E-01    0.894E-01
RMM:   2    -0.413176816131E+03   -0.11777E-01   -0.14278E-01  4272   0.106E-01    0.643E-01
RMM:   3    -0.413175557668E+03    0.12585E-02   -0.61552E-03  4781   0.406E-02    0.172E-01
RMM:   4    -0.413202964917E+03   -0.27407E-01   -0.27807E-02  5148   0.139E-01    0.690E-01
RMM:   5    -0.413175147567E+03    0.27817E-01   -0.13797E-02  4805   0.114E-01    0.325E-02
RMM:   6    -0.413175303936E+03   -0.15637E-03   -0.21728E-03  5806   0.438E-02    0.165E-02
RMM:   7    -0.413175313835E+03   -0.98991E-05   -0.22618E-04  5738   0.126E-02    0.119E-02
RMM:   8    -0.413175313213E+03    0.62238E-06   -0.31053E-05  4285   0.491E-03    0.867E-03
RMM:   9    -0.413175309174E+03    0.40391E-05   -0.51952E-06  2897   0.272E-03    0.597E-03
RMM:  10    -0.413175306068E+03    0.31059E-05   -0.19071E-06  2541   0.215E-03    0.294E-03
RMM:  11    -0.413175303826E+03    0.22414E-05   -0.14973E-06  2525   0.186E-03    0.150E-03
RMM:  12    -0.413175302146E+03    0.16799E-05   -0.66588E-07  2424   0.134E-03    0.547E-04
RMM:  13    -0.413175301475E+03    0.67121E-06   -0.28531E-07  1995   0.912E-04
   24 T=    63. E= -.41286645E+03 F= -.41317530E+03 E0= -.41315345E+03  EK= 0.30886E+00 SP= 0.00E+00 SK= 0.00E+00
       N       E                     dE             d eps       ncg     rms          rms(c)
RMM:   1    -0.413166501070E+03    0.88011E-02   -0.11582E+01  4297   0.806E-01    0.910E-01
RMM:   2    -0.413177853968E+03   -0.11353E-01   -0.14238E-01  4271   0.107E-01    0.648E-01
RMM:   3    -0.413176599326E+03    0.12546E-02   -0.63396E-03  4812   0.412E-02    0.174E-01
RMM:   4    -0.413205103928E+03   -0.28505E-01   -0.28826E-02  5148   0.142E-01    0.702E-01
RMM:   5    -0.413176201682E+03    0.28902E-01   -0.14250E-02  4809   0.117E-01    0.336E-02
RMM:   6    -0.413176362226E+03   -0.16054E-03   -0.22783E-03  5815   0.450E-02    0.171E-02
RMM:   7    -0.413176370520E+03   -0.82940E-05   -0.23706E-04  5764   0.130E-02    0.124E-02
RMM:   8    -0.413176368323E+03    0.21963E-05   -0.32366E-05  4336   0.502E-03    0.896E-03
RMM:   9    -0.413176362867E+03    0.54569E-05   -0.52997E-06  2903   0.275E-03    0.617E-03
RMM:  10    -0.413176357721E+03    0.51457E-05   -0.19766E-06  2545   0.223E-03    0.301E-03
RMM:  11    -0.413176353828E+03    0.38934E-05   -0.15062E-06  2525   0.188E-03    0.153E-03
RMM:  12    -0.413176351122E+03    0.27060E-05   -0.66639E-07  2423   0.136E-03    0.543E-04
RMM:  13    -0.413176349955E+03    0.11668E-05   -0.29596E-07  2008   0.924E-04    0.314E-04
RMM:  14    -0.413176348032E+03    0.19228E-05   -0.18968E-07  1648   0.780E-04    0.192E-04
RMM:  15    -0.413176345795E+03    0.22374E-05   -0.13528E-07  1439   0.708E-04    0.149E-04
RMM:  16    -0.413176345125E+03    0.66947E-06   -0.61082E-08   998   0.601E-04
   25 T=    63. E= -.41286640E+03 F= -.41317635E+03 E0= -.41315455E+03  EK= 0.30994E+00 SP= 0.00E+00 SK= 0.00E+00
       N       E                     dE             d eps       ncg     rms          rms(c)
RMM:   1    -0.413167839397E+03    0.85064E-02   -0.11610E+01  4294   0.813E-01    0.925E-01
RMM:   2    -0.413178255183E+03   -0.10416E-01   -0.14139E-01  4273   0.108E-01    0.640E-01
RMM:   3    -0.413177647724E+03    0.60746E-03   -0.66389E-03  4803   0.399E-02    0.177E-01
RMM:   4    -0.413204491426E+03   -0.26844E-01   -0.27128E-02  5151   0.137E-01    0.683E-01
RMM:   5    -0.413177292764E+03    0.27199E-01   -0.13572E-02  4808   0.113E-01    0.339E-02
RMM:   6    -0.413177437207E+03   -0.14444E-03   -0.21250E-03  5819   0.434E-02    0.178E-02
RMM:   7    -0.413177442738E+03   -0.55312E-05   -0.21721E-04  5704   0.125E-02    0.121E-02
RMM:   8    -0.413177438664E+03    0.40745E-05   -0.30224E-05  4249   0.483E-03    0.891E-03
RMM:   9    -0.413177431027E+03    0.76366E-05   -0.53563E-06  2920   0.275E-03    0.615E-03
RMM:  10    -0.413177422321E+03    0.87067E-05   -0.18250E-06  2534   0.217E-03    0.302E-03
RMM:  11    -0.413177414836E+03    0.74845E-05   -0.14168E-06  2513   0.186E-03    0.156E-03
RMM:  12    -0.413177409658E+03    0.51779E-05   -0.63238E-07  2408   0.135E-03    0.541E-04
RMM:  13    -0.413177407667E+03    0.19916E-05   -0.28203E-07  2024   0.920E-04    0.318E-04
RMM:  14    -0.413177404663E+03    0.30038E-05   -0.16728E-07  1607   0.758E-04    0.181E-04
RMM:  15    -0.413177400676E+03    0.39872E-05   -0.12936E-07  1469   0.709E-04    0.163E-04
RMM:  16    -0.413177399793E+03    0.88297E-06   -0.54925E-08   961   0.593E-04
   26 T=    63. E= -.41286615E+03 F= -.41317740E+03 E0= -.41315565E+03  EK= 0.31125E+00 SP= 0.00E+00 SK= 0.00E+00
       N       E                     dE             d eps       ncg     rms          rms(c)
RMM:   1    -0.413169288862E+03    0.81118E-02   -0.11585E+01  4296   0.816E-01    0.900E-01
RMM:   2    -0.413180527414E+03   -0.11239E-01   -0.14316E-01  4276   0.103E-01    0.643E-01
RMM:   3    -0.413179685941E+03    0.84147E-03   -0.62675E-03  4782   0.416E-02    0.177E-01
RMM:   4    -0.413207838447E+03   -0.28153E-01   -0.28370E-02  5152   0.140E-01    0.698E-01
RMM:   5    -0.413179309129E+03    0.28529E-01   -0.14249E-02  4813   0.116E-01    0.328E-02
RMM:   6    -0.413179458998E+03   -0.14987E-03   -0.21791E-03  5820   0.446E-02    0.169E-02
RMM:   7    -0.413179467518E+03   -0.85200E-05   -0.22890E-04  5756   0.128E-02    0.121E-02
RMM:   8    -0.413179465461E+03    0.20576E-05   -0.31724E-05  4304   0.495E-03    0.880E-03
RMM:   9    -0.413179460050E+03    0.54109E-05   -0.51495E-06  2907   0.272E-03    0.608E-03
RMM:  10    -0.413179454697E+03    0.53527E-05   -0.19308E-06  2544   0.220E-03    0.295E-03
RMM:  11    -0.413179450754E+03    0.39436E-05   -0.14599E-06  2521   0.186E-03    0.151E-03
RMM:  12    -0.413179447934E+03    0.28192E-05   -0.65715E-07  2421   0.135E-03    0.535E-04
RMM:  13    -0.413179446790E+03    0.11442E-05   -0.28260E-07  2009   0.912E-04    0.319E-04
RMM:  14    -0.413179445200E+03    0.15906E-05   -0.16187E-07  1529   0.748E-04    0.180E-04
RMM:  15    -0.413179442864E+03    0.23360E-05   -0.12854E-07  1482   0.711E-04    0.154E-04
RMM:  16    -0.413179442183E+03    0.68103E-06   -0.54855E-08   977   0.594E-04
   27 T=    64. E= -.41286645E+03 F= -.41317944E+03 E0= -.41315774E+03  EK= 0.31300E+00 SP= 0.00E+00 SK= 0.00E+00
       N       E                     dE             d eps       ncg     rms          rms(c)
RMM:   1    -0.413170890824E+03    0.85520E-02   -0.11728E+01  4295   0.834E-01    0.909E-01
RMM:   2    -0.413181617742E+03   -0.10727E-01   -0.14702E-01  4274   0.110E-01    0.654E-01
RMM:   3    -0.413180585080E+03    0.10327E-02   -0.63613E-03  4708   0.424E-02    0.174E-01
RMM:   4    -0.413204642222E+03   -0.24057E-01   -0.24373E-02  5148   0.131E-01    0.649E-01
RMM:   5    -0.413180107942E+03    0.24534E-01   -0.12207E-02  4809   0.107E-01    0.303E-02
RMM:   6    -0.413180233821E+03   -0.12588E-03   -0.19164E-03  5821   0.412E-02    0.157E-02
RMM:   7    -0.413180241296E+03   -0.74750E-05   -0.18970E-04  5632   0.117E-02    0.108E-02
RMM:   8    -0.413180239784E+03    0.15113E-05   -0.26147E-05  4141   0.455E-03    0.816E-03
RMM:   9    -0.413180235048E+03    0.47358E-05   -0.50353E-06  2919   0.272E-03    0.565E-03
RMM:  10    -0.413180230739E+03    0.43099E-05   -0.17374E-06  2533   0.213E-03    0.282E-03
RMM:  11    -0.413180227043E+03    0.36960E-05   -0.13590E-06  2511   0.180E-03    0.148E-03
RMM:  12    -0.413180224408E+03    0.26347E-05   -0.58263E-07  2393   0.129E-03    0.538E-04
RMM:  13    -0.413180223317E+03    0.10904E-05   -0.25475E-07  1932   0.875E-04    0.309E-04
RMM:  14    -0.413180221499E+03    0.18187E-05   -0.15753E-07  1527   0.743E-04    0.175E-04
RMM:  15    -0.413180219201E+03    0.22978E-05   -0.12030E-07  1436   0.693E-04    0.157E-04
RMM:  16    -0.413180218537E+03    0.66432E-06   -0.47903E-08   904   0.583E-04
   28 T=    64. E= -.41286575E+03 F= -.41318022E+03 E0= -.41315857E+03  EK= 0.31447E+00 SP= 0.00E+00 SK= 0.00E+00
       N       E                     dE             d eps       ncg     rms          rms(c)
RMM:   1    -0.413172875509E+03    0.73437E-02   -0.11805E+01  4291   0.840E-01    0.934E-01
RMM:   2    -0.413183415429E+03   -0.10540E-01   -0.14478E-01  4270   0.109E-01    0.646E-01
RMM:   3    -0.413182712037E+03    0.70339E-03   -0.67442E-03  4571   0.423E-02    0.176E-01
RMM:   4    -0.413199004697E+03   -0.16293E-01   -0.16259E-02  5157   0.107E-01    0.533E-01
RMM:   5    -0.413182606993E+03    0.16398E-01   -0.81777E-03  4819   0.876E-02    0.276E-02
RMM:   6    -0.413182676383E+03   -0.69390E-04   -0.12773E-03  5853   0.332E-02    0.157E-02
RMM:   7    -0.413182678058E+03   -0.16755E-05   -0.12359E-04  5403   0.967E-03    0.102E-02
RMM:   8    -0.413182670969E+03    0.70896E-05   -0.16892E-05  3778   0.398E-03    0.701E-03
RMM:   9    -0.413182664782E+03    0.61870E-05   -0.40141E-06  2811   0.266E-03    0.468E-03
RMM:  10    -0.413182656444E+03    0.83380E-05   -0.13009E-06  2512   0.195E-03    0.231E-03
RMM:  11    -0.413182649419E+03    0.70245E-05   -0.99104E-07  2496   0.157E-03    0.120E-03
RMM:  12    -0.413182644279E+03    0.51398E-05   -0.43433E-07  2329   0.115E-03    0.414E-04
RMM:  13    -0.413182642420E+03    0.18597E-05   -0.18781E-07  1681   0.791E-04    0.249E-04
RMM:  14    -0.413182639542E+03    0.28777E-05   -0.11008E-07  1335   0.688E-04    0.137E-04
RMM:  15    -0.413182635578E+03    0.39637E-05   -0.94089E-08  1383   0.677E-04    0.134E-04
RMM:  16    -0.413182634008E+03    0.15701E-05   -0.45605E-08   980   0.586E-04    0.894E-05
RMM:  17    -0.413182630521E+03    0.34872E-05   -0.60923E-08  1238   0.620E-04    0.529E-05
RMM:  18    -0.413182628913E+03    0.16078E-05   -0.34383E-08   944   0.552E-04    0.224E-05
RMM:  19    -0.413182628410E+03    0.50317E-06   -0.15333E-08   723   0.515E-04
   29 T=    64. E= -.41286626E+03 F= -.41318263E+03 E0= -.41316103E+03  EK= 0.31637E+00 SP= 0.00E+00 SK= 0.00E+00
       N       E                     dE             d eps       ncg     rms          rms(c)
RMM:   1    -0.413174382358E+03    0.82466E-02   -0.11767E+01  4290   0.851E-01    0.911E-01
RMM:   2    -0.413185485131E+03   -0.11103E-01   -0.14746E-01  4267   0.110E-01    0.646E-01
RMM:   3    -0.413184393786E+03    0.10913E-02   -0.63558E-03  4453   0.429E-02    0.173E-01
RMM:   4    -0.413192315797E+03   -0.79220E-02   -0.83892E-03  5148   0.799E-02    0.376E-01
RMM:   5    -0.413184261086E+03    0.80547E-02   -0.39651E-03  4822   0.613E-02    0.206E-02
RMM:   6    -0.413184281937E+03   -0.20851E-04   -0.61392E-04  5838   0.233E-02    0.134E-02
RMM:   7    -0.413184280236E+03    0.17013E-05   -0.70878E-05  5241   0.802E-03    0.884E-03
RMM:   8    -0.413184273437E+03    0.67987E-05   -0.81693E-06  3130   0.337E-03    0.478E-03
RMM:   9    -0.413184268049E+03    0.53884E-05   -0.18906E-06  2575   0.215E-03    0.275E-03
RMM:  10    -0.413184262471E+03    0.55778E-05   -0.91599E-07  2495   0.155E-03    0.139E-03
RMM:  11    -0.413184258422E+03    0.40494E-05   -0.50606E-07  2326   0.116E-03    0.595E-04
RMM:  12    -0.413184255492E+03    0.29295E-05   -0.26194E-07  1878   0.880E-04    0.237E-04
RMM:  13    -0.413184253241E+03    0.22507E-05   -0.14310E-07  1344   0.716E-04    0.139E-04
RMM:  14    -0.413184250601E+03    0.26400E-05   -0.10425E-07  1276   0.676E-04    0.100E-04
RMM:  15    -0.413184247771E+03    0.28302E-05   -0.86531E-08  1269   0.653E-04    0.666E-05
RMM:  16    -0.413184246192E+03    0.15791E-05   -0.51856E-08  1036   0.593E-04    0.482E-05
RMM:  17    -0.413184243959E+03    0.22332E-05   -0.52990E-08  1114   0.589E-04    0.224E-05
RMM:  18    -0.413184243304E+03    0.65479E-06   -0.23603E-08   779   0.525E-04
   30 T=    65. E= -.41286625E+03 F= -.41318424E+03 E0= -.41316269E+03  EK= 0.31799E+00 SP= 0.00E+00 SK= 0.00E+00
       N       E                     dE             d eps       ncg     rms          rms(c)
RMM:   1    -0.413177066556E+03    0.71774E-02   -0.11908E+01  4288   0.878E-01    0.912E-01
RMM:   2    -0.413188051021E+03   -0.10984E-01   -0.15258E-01  4281   0.124E-01    0.660E-01
RMM:   3    -0.413186082143E+03    0.19689E-02   -0.61695E-03  4257   0.413E-02    0.170E-01
RMM:   4    -0.413187440418E+03   -0.13583E-02   -0.22495E-03  5096   0.395E-02    0.157E-01
RMM:   5    -0.413186056783E+03    0.13836E-02   -0.66286E-04  4789   0.258E-02    0.152E-02
RMM:   6    -0.413186052569E+03    0.42138E-05   -0.12931E-04  5559   0.117E-02    0.112E-02
RMM:   7    -0.413186049028E+03    0.35405E-05   -0.21285E-05  4253   0.530E-03    0.486E-03
RMM:   8    -0.413186044537E+03    0.44920E-05   -0.38327E-06  2801   0.283E-03    0.226E-03
RMM:   9    -0.413186042577E+03    0.19594E-05   -0.76535E-07  2471   0.158E-03    0.110E-03
RMM:  10    -0.413186040044E+03    0.25333E-05   -0.44724E-07  2249   0.106E-03    0.644E-04
RMM:  11    -0.413186038001E+03    0.20429E-05   -0.25409E-07  1641   0.815E-04    0.305E-04
RMM:  12    -0.413186035603E+03    0.23981E-05   -0.19622E-07  1537   0.759E-04    0.143E-04
RMM:  13    -0.413186033758E+03    0.18448E-05   -0.11849E-07  1233   0.665E-04    0.822E-05
RMM:  14    -0.413186031913E+03    0.18446E-05   -0.86397E-08  1153   0.628E-04    0.491E-05
RMM:  15    -0.413186030361E+03    0.15519E-05   -0.58059E-08   998   0.585E-04    0.323E-05
RMM:  16    -0.413186029020E+03    0.13410E-05   -0.40094E-08   881   0.558E-04    0.219E-05
RMM:  17    -0.413186028374E+03    0.64691E-06   -0.20946E-08   692   0.527E-04
   31 T=    65. E= -.41286632E+03 F= -.41318603E+03 E0= -.41316453E+03  EK= 0.31971E+00 SP= 0.00E+00 SK= 0.00E+00
       N       E                     dE             d eps       ncg     rms          rms(c)
RMM:   1    -0.413185872316E+03    0.15670E-03   -0.12078E+01  4288   0.920E-01    0.939E-01
RMM:   2    -0.413189692737E+03   -0.38204E-02   -0.15351E-01  4267   0.119E-01    0.654E-01
RMM:   3    -0.413188579832E+03    0.11129E-02   -0.67272E-03  4179   0.458E-02    0.179E-01
RMM:   4    -0.413188749045E+03   -0.16921E-03   -0.10609E-03  4599   0.299E-02    0.324E-02
RMM:   5    -0.413188720639E+03    0.28406E-04   -0.53801E-05  4715   0.822E-03    0.233E-02
RMM:   6    -0.413188697599E+03    0.23040E-04   -0.47599E-05  5007   0.744E-03    0.131E-02
RMM:   7    -0.413188684633E+03    0.12966E-04   -0.13622E-05  3537   0.496E-03    0.409E-03
RMM:   8    -0.413188676457E+03    0.81760E-05   -0.22765E-06  2496   0.251E-03    0.205E-03
RMM:   9    -0.413188671199E+03    0.52584E-05   -0.54868E-07  2203   0.133E-03    0.107E-03
RMM:  10    -0.413188666531E+03    0.46684E-05   -0.23146E-07  1549   0.811E-04    0.477E-04
RMM:  11    -0.413188661054E+03    0.54768E-05   -0.13282E-07  1252   0.693E-04    0.181E-04
RMM:  12    -0.413188656210E+03    0.48443E-05   -0.76533E-08  1162   0.635E-04    0.125E-04
RMM:  13    -0.413188652795E+03    0.34145E-05   -0.50720E-08   981   0.559E-04    0.935E-05
RMM:  14    -0.413188647355E+03    0.54401E-05   -0.61543E-08  1118   0.602E-04    0.617E-05
RMM:  15    -0.413188644920E+03    0.24355E-05   -0.30376E-08   792   0.511E-04    0.415E-05
RMM:  16    -0.413188643757E+03    0.11623E-05   -0.18341E-08   622   0.471E-04    0.210E-05
RMM:  17    -0.413188642894E+03    0.86375E-06   -0.13369E-08   577   0.461E-04
   32 T=    66. E= -.41286683E+03 F= -.41318864E+03 E0= -.41316719E+03  EK= 0.32181E+00 SP= 0.00E+00 SK= 0.00E+00
       N       E                     dE             d eps       ncg     rms          rms(c)
RMM:   1    -0.413187044017E+03    0.15997E-02   -0.12040E+01  4283   0.934E-01    0.925E-01
RMM:   2    -0.413191965827E+03   -0.49218E-02   -0.15588E-01  4271   0.130E-01    0.651E-01
RMM:   3    -0.413190598150E+03    0.13677E-02   -0.62518E-03  4290   0.404E-02    0.182E-01
RMM:   4    -0.413192195201E+03   -0.15971E-02   -0.24400E-03  5105   0.435E-02    0.171E-01
RMM:   5    -0.413190583948E+03    0.16113E-02   -0.77694E-04  4783   0.281E-02    0.184E-02
RMM:   6    -0.413190572309E+03    0.11638E-04   -0.15918E-04  5573   0.131E-02    0.127E-02
RMM:   7    -0.413190563591E+03    0.87186E-05   -0.25933E-05  4363   0.558E-03    0.548E-03
RMM:   8    -0.413190555502E+03    0.80882E-05   -0.43859E-06  2873   0.295E-03    0.266E-03
RMM:   9    -0.413190550043E+03    0.54591E-05   -0.84249E-07  2463   0.168E-03    0.120E-03
RMM:  10    -0.413190544618E+03    0.54254E-05   -0.44860E-07  2281   0.110E-03    0.664E-04
RMM:  11    -0.413190540355E+03    0.42628E-05   -0.24641E-07  1757   0.842E-04    0.341E-04
RMM:  12    -0.413190534904E+03    0.54509E-05   -0.18585E-07  1543   0.765E-04    0.144E-04
RMM:  13    -0.413190532136E+03    0.27686E-05   -0.96494E-08  1143   0.648E-04    0.957E-05
RMM:  14    -0.413190527864E+03    0.42717E-05   -0.86511E-08  1206   0.644E-04    0.548E-05
RMM:  15    -0.413190524575E+03    0.32893E-05   -0.64201E-08  1079   0.606E-04    0.479E-05
RMM:  16    -0.413190522816E+03    0.17585E-05   -0.35553E-08   806   0.557E-04    0.244E-05
RMM:  17    -0.413190521510E+03    0.13059E-05   -0.27332E-08   740   0.544E-04    0.140E-05
RMM:  18    -0.413190521160E+03    0.34964E-06   -0.14855E-08   570   0.516E-04
   33 T=    66. E= -.41286667E+03 F= -.41319052E+03 E0= -.41316912E+03  EK= 0.32385E+00 SP= 0.00E+00 SK= 0.00E+00
       N       E                     dE             d eps       ncg     rms          rms(c)
RMM:   1    -0.413183671275E+03    0.68502E-02   -0.12115E+01  4292   0.920E-01    0.916E-01
RMM:   2    -0.413194602094E+03   -0.10931E-01   -0.15743E-01  4263   0.126E-01    0.664E-01
RMM:   3    -0.413193255459E+03    0.13466E-02   -0.61934E-03  4545   0.455E-02    0.182E-01
RMM:   4    -0.413207492265E+03   -0.14237E-01   -0.14321E-02  5166   0.103E-01    0.500E-01
RMM:   5    -0.413193211194E+03    0.14281E-01   -0.70530E-03  4811   0.823E-02    0.250E-02
RMM:   6    -0.413193204714E+03    0.64795E-05   -0.11042E-03  5838   0.322E-02    0.137E-02
RMM:   7    -0.413193210422E+03   -0.57078E-05   -0.12220E-04  5486   0.100E-02    0.102E-02
RMM:   8    -0.413193205727E+03    0.46950E-05   -0.15135E-05  3705   0.398E-03    0.636E-03
RMM:   9    -0.413193202032E+03    0.36946E-05   -0.29500E-06  2671   0.255E-03    0.361E-03
RMM:  10    -0.413193197381E+03    0.46513E-05   -0.13075E-06  2510   0.187E-03    0.164E-03
RMM:  11    -0.413193194096E+03    0.32853E-05   -0.75920E-07  2467   0.138E-03    0.850E-04
RMM:  12    -0.413193191368E+03    0.27277E-05   -0.38655E-07  2220   0.103E-03    0.379E-04
RMM:  13    -0.413193189954E+03    0.14141E-05   -0.18021E-07  1481   0.759E-04    0.195E-04
RMM:  14    -0.413193187998E+03    0.19555E-05   -0.11851E-07  1235   0.688E-04    0.119E-04
RMM:  15    -0.413193185952E+03    0.20461E-05   -0.88414E-08  1183   0.655E-04    0.687E-05
RMM:  16    -0.413193185146E+03    0.80643E-06   -0.50204E-08   951   0.599E-04
   34 T=    66. E= -.41286670E+03 F= -.41319319E+03 E0= -.41317183E+03  EK= 0.32648E+00 SP= 0.00E+00 SK= 0.00E+00
       N       E                     dE             d eps       ncg     rms          rms(c)
RMM:   1    -0.413188156398E+03    0.50296E-02   -0.12271E+01  4300   0.966E-01    0.943E-01
RMM:   2    -0.413197154323E+03   -0.89979E-02   -0.15965E-01  4259   0.136E-01    0.664E-01
RMM:   3    -0.413195983782E+03    0.11705E-02   -0.64352E-03  4465   0.423E-02    0.185E-01
RMM:   4    -0.413201007191E+03   -0.50234E-02   -0.57546E-03  5156   0.654E-02    0.304E-01
RMM:   5    -0.413195821677E+03    0.51855E-02   -0.26000E-03  4810   0.500E-02    0.209E-02
RMM:   6    -0.413195808818E+03    0.12859E-04   -0.42936E-04  5742   0.205E-02    0.132E-02
RMM:   7    -0.413195804524E+03    0.42938E-05   -0.56188E-05  4941   0.725E-03    0.727E-03
RMM:   8    -0.413195796667E+03    0.78570E-05   -0.72306E-06  3126   0.327E-03    0.372E-03
RMM:   9    -0.413195789894E+03    0.67731E-05   -0.14222E-06  2524   0.197E-03    0.183E-03
RMM:  10    -0.413195783062E+03    0.68319E-05   -0.70653E-07  2449   0.135E-03    0.972E-04
RMM:  11    -0.413195777355E+03    0.57076E-05   -0.39925E-07  2190   0.103E-03    0.445E-04
RMM:  12    -0.413195771965E+03    0.53897E-05   -0.23763E-07  1727   0.839E-04    0.158E-04
RMM:  13    -0.413195768628E+03    0.33369E-05   -0.13396E-07  1286   0.706E-04    0.116E-04
RMM:  14    -0.413195764432E+03    0.41956E-05   -0.10183E-07  1278   0.678E-04    0.721E-05
RMM:  15    -0.413195759309E+03    0.51232E-05   -0.95823E-08  1406   0.671E-04    0.659E-05
RMM:  16    -0.413195758097E+03    0.12119E-05   -0.46233E-08   935   0.569E-04    0.449E-05
RMM:  17    -0.413195755361E+03    0.27360E-05   -0.46445E-08  1055   0.579E-04    0.188E-05
RMM:  18    -0.413195755091E+03    0.27011E-06   -0.20362E-08   712   0.519E-04
   35 T=    67. E= -.41286644E+03 F= -.41319576E+03 E0= -.41317445E+03  EK= 0.32931E+00 SP= 0.00E+00 SK= 0.00E+00
       N       E                     dE             d eps       ncg     rms          rms(c)
RMM:   1    -0.413189528258E+03    0.62271E-02   -0.12310E+01  4298   0.967E-01    0.943E-01
RMM:   2    -0.413199115058E+03   -0.95868E-02   -0.15814E-01  4254   0.119E-01    0.657E-01
RMM:   3    -0.413198349708E+03    0.76535E-03   -0.67206E-03  4813   0.438E-02    0.197E-01
RMM:   4    -0.413228539779E+03   -0.30190E-01   -0.30339E-02  5156   0.146E-01    0.724E-01
RMM:   5    -0.413198029875E+03    0.30510E-01   -0.15368E-02  4797   0.121E-01    0.360E-02
RMM:   6    -0.413198068426E+03   -0.38552E-04   -0.24106E-03  5849   0.462E-02    0.177E-02
RMM:   7    -0.413198081402E+03   -0.12976E-04   -0.25101E-04  5740   0.132E-02    0.127E-02
RMM:   8    -0.413198075478E+03    0.59246E-05   -0.30761E-05  4251   0.492E-03    0.897E-03
RMM:   9    -0.413198069705E+03    0.57728E-05   -0.65682E-06  3089   0.308E-03    0.600E-03
RMM:  10    -0.413198059235E+03    0.10470E-04   -0.22635E-06  2559   0.253E-03    0.258E-03
RMM:  11    -0.413198051522E+03    0.77124E-05   -0.13652E-06  2502   0.188E-03    0.138E-03
RMM:  12    -0.413198044927E+03    0.65951E-05   -0.63467E-07  2432   0.141E-03    0.524E-04
RMM:  13    -0.413198042467E+03    0.24605E-05   -0.27833E-07  2081   0.938E-04    0.353E-04
RMM:  14    -0.413198039603E+03    0.28634E-05   -0.13642E-07  1491   0.729E-04    0.205E-04
RMM:  15    -0.413198033904E+03    0.56990E-05   -0.10783E-07  1510   0.707E-04    0.165E-04
RMM:  16    -0.413198032667E+03    0.12371E-05   -0.43974E-08   933   0.585E-04    0.996E-05
RMM:  17    -0.413198028325E+03    0.43427E-05   -0.56899E-08  1224   0.623E-04    0.797E-05
RMM:  18    -0.413198026264E+03    0.20604E-05   -0.31269E-08   944   0.562E-04    0.257E-05
RMM:  19    -0.413198025442E+03    0.82211E-06   -0.19672E-08   792   0.539E-04
   36 T=    68. E= -.41286627E+03 F= -.41319803E+03 E0= -.41317676E+03  EK= 0.33175E+00 SP= 0.00E+00 SK= 0.00E+00
       N       E                     dE             d eps       ncg     rms          rms(c)
RMM:   1    -0.413190520901E+03    0.75054E-02   -0.12364E+01  4300   0.990E-01    0.925E-01
RMM:   2    -0.413202633774E+03   -0.12113E-01   -0.16483E-01  4254   0.135E-01    0.670E-01
RMM:   3    -0.413201338491E+03    0.12953E-02   -0.64953E-03  4826   0.508E-02    0.207E-01
RMM:   4    -0.413243571758E+03   -0.42233E-01   -0.43093E-02  5160   0.174E-01    0.853E-01
RMM:   5    -0.413200649147E+03    0.42923E-01   -0.21508E-02  4793   0.143E-01    0.407E-02
RMM:   6    -0.413200757432E+03   -0.10828E-03   -0.34110E-03  5851   0.545E-02    0.187E-02
RMM:   7    -0.413200776842E+03   -0.19410E-04   -0.33438E-04  5735   0.151E-02    0.130E-02
RMM:   8    -0.413200774116E+03    0.27257E-05   -0.36704E-05  3945   0.489E-03    0.910E-03
RMM:   9    -0.413200766389E+03    0.77269E-05   -0.63980E-06  2905   0.319E-03    0.408E-03
RMM:  10    -0.413200763497E+03    0.28921E-05   -0.29420E-06  2625   0.237E-03    0.283E-03
RMM:  11    -0.413200757992E+03    0.55052E-05   -0.13591E-06  2496   0.199E-03    0.134E-03
RMM:  12    -0.413200754433E+03    0.35586E-05   -0.61656E-07  2417   0.135E-03    0.545E-04
RMM:  13    -0.413200753220E+03    0.12134E-05   -0.28549E-07  2001   0.925E-04    0.363E-04
RMM:  14    -0.413200750198E+03    0.30220E-05   -0.17927E-07  1660   0.785E-04    0.221E-04
RMM:  15    -0.413200747492E+03    0.27059E-05   -0.10384E-07  1261   0.679E-04    0.972E-05
RMM:  16    -0.413200745777E+03    0.17151E-05   -0.63682E-08  1077   0.627E-04    0.702E-05
RMM:  17    -0.413200743717E+03    0.20595E-05   -0.52684E-08  1089   0.616E-04    0.370E-05
RMM:  18    -0.413200741501E+03    0.22162E-05   -0.47205E-08  1110   0.607E-04    0.375E-05
RMM:  19    -0.413200740990E+03    0.51073E-06   -0.19806E-08   806   0.551E-04
   37 T=    68. E= -.41286638E+03 F= -.41320074E+03 E0= -.41317952E+03  EK= 0.33436E+00 SP= 0.00E+00 SK= 0.00E+00
       N       E                     dE             d eps       ncg     rms          rms(c)
RMM:   1    -0.413206842553E+03   -0.61011E-02   -0.12666E+01  4305   0.108E+00    0.947E-01
RMM:   2    -0.413205492537E+03    0.13500E-02   -0.16347E-01  4256   0.128E-01    0.673E-01
RMM:   3    -0.413204091001E+03    0.14015E-02   -0.67743E-03  4787   0.499E-02    0.202E-01
RMM:   4    -0.413240012186E+03   -0.35921E-01   -0.36302E-02  5156   0.159E-01    0.789E-01
RMM:   5    -0.413203582117E+03    0.36430E-01   -0.18400E-02  4801   0.132E-01    0.381E-02
RMM:   6    -0.413203657923E+03   -0.75805E-04   -0.28892E-03  5837   0.501E-02    0.180E-02
RMM:   7    -0.413203675004E+03   -0.17081E-04   -0.29182E-04  5750   0.142E-02    0.130E-02
RMM:   8    -0.413203670220E+03    0.47838E-05   -0.34678E-05  4265   0.505E-03    0.921E-03
RMM:   9    -0.413203666266E+03    0.39537E-05   -0.80619E-06  3245   0.315E-03    0.650E-03
RMM:  10    -0.413203657557E+03    0.87094E-05   -0.23906E-06  2548   0.256E-03    0.283E-03
RMM:  11    -0.413203651318E+03    0.62383E-05   -0.15768E-06  2510   0.199E-03    0.157E-03
RMM:  12    -0.413203646205E+03    0.51133E-05   -0.71069E-07  2445   0.147E-03    0.570E-04
RMM:  13    -0.413203644273E+03    0.19321E-05   -0.30757E-07  2157   0.982E-04    0.394E-04
RMM:  14    -0.413203641954E+03    0.23186E-05   -0.15074E-07  1573   0.750E-04    0.219E-04
RMM:  15    -0.413203636936E+03    0.50180E-05   -0.12400E-07  1598   0.726E-04    0.195E-04
RMM:  16    -0.413203636176E+03    0.76034E-06   -0.45420E-08   934   0.582E-04
   38 T=    69. E= -.41286677E+03 F= -.41320364E+03 E0= -.41318245E+03  EK= 0.33686E+00 SP= 0.00E+00 SK= 0.00E+00
       N       E                     dE             d eps       ncg     rms          rms(c)
RMM:   1    -0.413202278510E+03    0.13584E-02   -0.12656E+01  4304   0.109E+00    0.960E-01
RMM:   2    -0.413206922766E+03   -0.46443E-02   -0.16887E-01  4265   0.127E-01    0.667E-01
RMM:   3    -0.413206483471E+03    0.43929E-03   -0.73673E-03  5009   0.545E-02    0.236E-01
RMM:   4    -0.413258243593E+03   -0.51760E-01   -0.55541E-02  5132   0.196E-01    0.945E-01
RMM:   5    -0.413205336695E+03    0.52907E-01   -0.26204E-02  4789   0.159E-01    0.479E-02
RMM:   6    -0.413205476424E+03   -0.13973E-03   -0.40809E-03  5834   0.603E-02    0.207E-02
RMM:   7    -0.413205497936E+03   -0.21512E-04   -0.42194E-04  5847   0.171E-02    0.147E-02
RMM:   8    -0.413205496730E+03    0.12058E-05   -0.56863E-05  4694   0.613E-03    0.113E-02
RMM:   9    -0.413205487576E+03    0.91547E-05   -0.95935E-06  3342   0.338E-03    0.729E-03
RMM:  10    -0.413205476054E+03    0.11522E-04   -0.34749E-06  2663   0.291E-03    0.316E-03
RMM:  11    -0.413205467227E+03    0.88264E-05   -0.16661E-06  2503   0.213E-03    0.163E-03
RMM:  12    -0.413205459183E+03    0.80442E-05   -0.86380E-07  2466   0.161E-03    0.563E-04
RMM:  13    -0.413205455538E+03    0.36453E-05   -0.35608E-07  2242   0.107E-03    0.429E-04
RMM:  14    -0.413205451861E+03    0.36767E-05   -0.18088E-07  1774   0.792E-04    0.335E-04
RMM:  15    -0.413205444107E+03    0.77544E-05   -0.13814E-07  1694   0.748E-04    0.226E-04
RMM:  16    -0.413205443436E+03    0.67063E-06   -0.54439E-08  1003   0.583E-04
   39 T=    69. E= -.41286621E+03 F= -.41320544E+03 E0= -.41318430E+03  EK= 0.33923E+00 SP= 0.00E+00 SK= 0.00E+00
       N       E                     dE             d eps       ncg     rms          rms(c)
RMM:   1    -0.413207013823E+03   -0.15697E-02   -0.12701E+01  4310   0.115E+00    0.937E-01
RMM:   2    -0.413210621658E+03   -0.36078E-02   -0.16848E-01  4263   0.133E-01    0.673E-01
RMM:   3    -0.413210112995E+03    0.50866E-03   -0.71311E-03  5024   0.551E-02    0.242E-01
RMM:   4    -0.413264466339E+03   -0.54353E-01   -0.59640E-02  5131   0.202E-01    0.968E-01
RMM:   5    -0.413208702864E+03    0.55763E-01   -0.27341E-02  4786   0.163E-01    0.495E-02
RMM:   6    -0.413208856562E+03   -0.15370E-03   -0.43805E-03  5814   0.618E-02    0.200E-02
RMM:   7    -0.413208882972E+03   -0.26410E-04   -0.45680E-04  5903   0.175E-02    0.149E-02
RMM:   8    -0.413208883338E+03   -0.36534E-06   -0.61249E-05  4808   0.637E-03    0.114E-02
RMM:   9    -0.413208875710E+03    0.76279E-05   -0.93998E-06  3293   0.336E-03    0.712E-03
RMM:  10    -0.413208867705E+03    0.80049E-05   -0.35772E-06  2672   0.287E-03    0.310E-03
RMM:  11    -0.413208861759E+03    0.59460E-05   -0.17071E-06  2509   0.211E-03    0.156E-03
RMM:  12    -0.413208856468E+03    0.52913E-05   -0.86929E-07  2462   0.158E-03    0.560E-04
RMM:  13    -0.413208854098E+03    0.23698E-05   -0.36465E-07  2219   0.106E-03    0.414E-04
RMM:  14    -0.413208851406E+03    0.26919E-05   -0.19406E-07  1775   0.803E-04    0.312E-04
RMM:  15    -0.413208846489E+03    0.49172E-05   -0.13610E-07  1540   0.729E-04    0.173E-04
RMM:  16    -0.413208845801E+03    0.68743E-06   -0.62617E-08  1053   0.601E-04
   40 T=    70. E= -.41286688E+03 F= -.41320885E+03 E0= -.41318774E+03  EK= 0.34197E+00 SP= 0.00E+00 SK= 0.00E+00
       N       E                     dE             d eps       ncg     rms          rms(c)
RMM:   1    -0.413204913594E+03    0.39329E-02   -0.12833E+01  4303   0.119E+00    0.949E-01
RMM:   2    -0.413211907592E+03   -0.69940E-02   -0.17560E-01  4269   0.139E-01    0.683E-01
RMM:   3    -0.413211672916E+03    0.23468E-03   -0.74200E-03  5055   0.560E-02    0.260E-01
RMM:   4    -0.413267840386E+03   -0.56167E-01   -0.63102E-02  5130   0.208E-01    0.986E-01
RMM:   5    -0.413209952060E+03    0.57888E-01   -0.28157E-02  4771   0.167E-01    0.515E-02
RMM:   6    -0.413210118495E+03   -0.16644E-03   -0.45067E-03  5809   0.630E-02    0.199E-02
RMM:   7    -0.413210146168E+03   -0.27673E-04   -0.48233E-04  5917   0.181E-02    0.153E-02
RMM:   8    -0.413210146635E+03   -0.46755E-06   -0.65685E-05  4883   0.662E-03    0.116E-02
RMM:   9    -0.413210138934E+03    0.77017E-05   -0.92980E-06  3245   0.343E-03    0.693E-03
RMM:  10    -0.413210131056E+03    0.78775E-05   -0.38548E-06  2704   0.298E-03    0.297E-03
RMM:  11    -0.413210125070E+03    0.59863E-05   -0.17630E-06  2518   0.215E-03    0.140E-03
RMM:  12    -0.413210120039E+03    0.50309E-05   -0.84772E-07  2458   0.156E-03    0.555E-04
RMM:  13    -0.413210117746E+03    0.22931E-05   -0.36373E-07  2213   0.105E-03    0.417E-04
RMM:  14    -0.413210114631E+03    0.31151E-05   -0.20090E-07  1749   0.808E-04    0.306E-04
RMM:  15    -0.413210110434E+03    0.41966E-05   -0.13372E-07  1460   0.716E-04    0.144E-04
RMM:  16    -0.413210109223E+03    0.12114E-05   -0.67006E-08  1048   0.613E-04    0.715E-05
RMM:  17    -0.413210106885E+03    0.23376E-05   -0.58120E-08  1076   0.612E-04    0.441E-05
RMM:  18    -0.413210103401E+03    0.34839E-05   -0.60374E-08  1204   0.629E-04    0.419E-05
RMM:  19    -0.413210102955E+03    0.44679E-06   -0.24377E-08   795   0.553E-04
   41 T=    70. E= -.41286613E+03 F= -.41321010E+03 E0= -.41318903E+03  EK= 0.34397E+00 SP= 0.00E+00 SK= 0.00E+00
       N       E                     dE             d eps       ncg     rms          rms(c)
RMM:   1    -0.413214493545E+03   -0.43901E-02   -0.12982E+01  4310   0.127E+00    0.973E-01
RMM:   2    -0.413213851539E+03    0.64201E-03   -0.17962E-01  4291   0.146E-01    0.676E-01
RMM:   3    -0.413216729506E+03   -0.28780E-02   -0.99410E-03  5128   0.730E-02    0.338E-01
RMM:   4    -0.413250060685E+03   -0.33331E-01   -0.49518E-02  5091   0.187E-01    0.806E-01
RMM:   5    -0.413212826074E+03    0.37235E-01   -0.16687E-02  4728   0.135E-01    0.490E-02
RMM:   6    -0.413212864452E+03   -0.38378E-04   -0.27314E-03  5747   0.497E-02    0.175E-02
RMM:   7    -0.413212877966E+03   -0.13515E-04   -0.31937E-04  5900   0.153E-02    0.136E-02
RMM:   8    -0.413212875731E+03    0.22352E-05   -0.47096E-05  4709   0.582E-03    0.921E-03
RMM:   9    -0.413212864585E+03    0.11146E-04   -0.66523E-06  3060   0.352E-03    0.459E-03
RMM:  10    -0.413212854406E+03    0.10179E-04   -0.26318E-06  2568   0.255E-03    0.233E-03
RMM:  11    -0.413212846237E+03    0.81694E-05   -0.10056E-06  2503   0.165E-03    0.948E-04
RMM:  12    -0.413212841223E+03    0.50139E-05   -0.39986E-07  2316   0.110E-03    0.529E-04
RMM:  13    -0.413212836156E+03    0.50665E-05   -0.24378E-07  1678   0.852E-04    0.245E-04
RMM:  14    -0.413212832165E+03    0.39910E-05   -0.15810E-07  1417   0.748E-04    0.149E-04
RMM:  15    -0.413212827148E+03    0.50168E-05   -0.12523E-07  1406   0.712E-04    0.109E-04
RMM:  16    -0.413212822200E+03    0.49486E-05   -0.96617E-08  1371   0.667E-04    0.559E-05
RMM:  17    -0.413212818453E+03    0.37469E-05   -0.73834E-08  1292   0.623E-04    0.524E-05
RMM:  18    -0.413212817269E+03    0.11841E-05   -0.42112E-08   941   0.549E-04    0.356E-05
RMM:  19    -0.413212816378E+03    0.89045E-06   -0.29086E-08   843   0.535E-04
   42 T=    70. E= -.41286665E+03 F= -.41321282E+03 E0= -.41319177E+03  EK= 0.34617E+00 SP= 0.00E+00 SK= 0.00E+00
       N       E                     dE             d eps       ncg     rms          rms(c)
RMM:   1    -0.413214531545E+03   -0.17143E-02   -0.12942E+01  4309   0.134E+00    0.949E-01
RMM:   2    -0.413215904734E+03   -0.13732E-02   -0.17873E-01  4297   0.156E-01    0.676E-01
RMM:   3    -0.413219688015E+03   -0.37833E-02   -0.10554E-02  5112   0.803E-02    0.367E-01
RMM:   4    -0.413248744482E+03   -0.29056E-01   -0.48151E-02  5069   0.185E-01    0.772E-01
RMM:   5    -0.413214795154E+03    0.33949E-01   -0.14904E-02  4707   0.129E-01    0.478E-02
RMM:   6    -0.413214817416E+03   -0.22262E-04   -0.24588E-03  5724   0.473E-02    0.165E-02
RMM:   7    -0.413214828135E+03   -0.10719E-04   -0.28012E-04  5897   0.148E-02    0.131E-02
RMM:   8    -0.413214826270E+03    0.18655E-05   -0.42449E-05  4632   0.565E-03    0.858E-03
RMM:   9    -0.413214817052E+03    0.92177E-05   -0.65431E-06  3084   0.365E-03    0.431E-03
RMM:  10    -0.413214809251E+03    0.78006E-05   -0.25530E-06  2576   0.256E-03    0.239E-03
RMM:  11    -0.413214803377E+03    0.58746E-05   -0.10242E-06  2511   0.163E-03    0.100E-03
RMM:  12    -0.413214799988E+03    0.33890E-05   -0.42548E-07  2328   0.110E-03    0.537E-04
RMM:  13    -0.413214795680E+03    0.43079E-05   -0.29520E-07  1777   0.900E-04    0.266E-04
RMM:  14    -0.413214793317E+03    0.23634E-05   -0.17253E-07  1374   0.747E-04    0.142E-04
RMM:  15    -0.413214789740E+03    0.35765E-05   -0.13096E-07  1274   0.706E-04    0.100E-04
RMM:  16    -0.413214786056E+03    0.36837E-05   -0.99032E-08  1202   0.675E-04    0.466E-05
RMM:  17    -0.413214782963E+03    0.30932E-05   -0.85553E-08  1326   0.654E-04    0.450E-05
RMM:  18    -0.413214781525E+03    0.14381E-05   -0.49983E-08   998   0.578E-04    0.346E-05
RMM:  19    -0.413214780427E+03    0.10979E-05   -0.35327E-08   868   0.549E-04    0.160E-05
RMM:  20    -0.413214780092E+03    0.33538E-06   -0.21673E-08   743   0.528E-04
   43 T=    71. E= -.41286667E+03 F= -.41321478E+03 E0= -.41319376E+03  EK= 0.34811E+00 SP= 0.00E+00 SK= 0.00E+00
       N       E                     dE             d eps       ncg     rms          rms(c)
RMM:   1    -0.413243257503E+03   -0.28477E-01   -0.13357E+01  4310   0.153E+00    0.951E-01
RMM:   2    -0.413217232857E+03    0.26025E-01   -0.20290E-01  4296   0.176E-01    0.693E-01
RMM:   3    -0.413222500624E+03   -0.52678E-02   -0.11916E-02  5112   0.907E-02    0.420E-01
RMM:   4    -0.413247228920E+03   -0.24728E-01   -0.48505E-02  5059   0.187E-01    0.748E-01
RMM:   5    -0.413215885193E+03    0.31344E-01   -0.13540E-02  4675   0.127E-01    0.500E-02
RMM:   6    -0.413215885826E+03   -0.63335E-06   -0.22978E-03  5682   0.457E-02    0.169E-02
RMM:   7    -0.413215896405E+03   -0.10579E-04   -0.26933E-04  5921   0.148E-02    0.135E-02
RMM:   8    -0.413215894373E+03    0.20324E-05   -0.39409E-05  4632   0.560E-03    0.864E-03
RMM:   9    -0.413215885936E+03    0.84365E-05   -0.76870E-06  3252   0.406E-03    0.452E-03
RMM:  10    -0.413215879424E+03    0.65121E-05   -0.28399E-06  2612   0.271E-03    0.275E-03
RMM:  11    -0.413215874984E+03    0.44406E-05   -0.12522E-06  2528   0.178E-03    0.113E-03
RMM:  12    -0.413215872609E+03    0.23745E-05   -0.52047E-07  2427   0.122E-03    0.651E-04
RMM:  13    -0.413215868856E+03    0.37530E-05   -0.40551E-07  2065   0.103E-03    0.430E-04
RMM:  14    -0.413215867476E+03    0.13800E-05   -0.20333E-07  1462   0.782E-04    0.216E-04
RMM:  15    -0.413215864970E+03    0.25065E-05   -0.14752E-07  1256   0.721E-04    0.138E-04
RMM:  16    -0.413215862142E+03    0.28275E-05   -0.11595E-07  1237   0.687E-04    0.577E-05
RMM:  17    -0.413215860497E+03    0.16458E-05   -0.74706E-08  1057   0.638E-04    0.416E-05
RMM:  18    -0.413215858295E+03    0.22020E-05   -0.66888E-08  1127   0.630E-04    0.466E-05
RMM:  19    -0.413215857277E+03    0.10176E-05   -0.44248E-08   957   0.581E-04    0.413E-05
RMM:  20    -0.413215857034E+03    0.24266E-06   -0.25473E-08   755   0.546E-04
   44 T=    71. E= -.41286634E+03 F= -.41321586E+03 E0= -.41319486E+03  EK= 0.34952E+00 SP= 0.00E+00 SK= 0.00E+00
       N       E                     dE             d eps       ncg     rms          rms(c)
RMM:   1    -0.413245843194E+03   -0.29986E-01   -0.13452E+01  4307   0.160E+00    0.981E-01
RMM:   2    -0.413218022542E+03    0.27821E-01   -0.19352E-01  4372   0.182E-01    0.684E-01
RMM:   3    -0.413231249854E+03   -0.13227E-01   -0.19006E-02  5131   0.119E-01    0.546E-01
RMM:   4    -0.413232455483E+03   -0.12056E-02   -0.37309E-02  5011   0.168E-01    0.536E-01
RMM:   5    -0.413217780884E+03    0.14675E-01   -0.57312E-03  4553   0.938E-02    0.421E-02
RMM:   6    -0.413217730749E+03    0.50135E-04   -0.97969E-04  5295   0.310E-02    0.155E-02
RMM:   7    -0.413217730204E+03    0.54437E-06   -0.10824E-04  5635   0.100E-02    0.117E-02
RMM:   8    -0.413217726213E+03    0.39909E-05   -0.22507E-05  4471   0.467E-03    0.780E-03
RMM:   9    -0.413217710297E+03    0.15916E-04   -0.63564E-06  3145   0.409E-03    0.418E-03
RMM:  10    -0.413217703102E+03    0.71956E-05   -0.14413E-06  2528   0.219E-03    0.177E-03
RMM:  11    -0.413217696983E+03    0.61181E-05   -0.94700E-07  2496   0.153E-03    0.818E-04
RMM:  12    -0.413217692527E+03    0.44562E-05   -0.43739E-07  2395   0.114E-03    0.497E-04
RMM:  13    -0.413217687326E+03    0.52015E-05   -0.25206E-07  1751   0.852E-04    0.283E-04
RMM:  14    -0.413217684465E+03    0.28609E-05   -0.13228E-07  1200   0.694E-04    0.181E-04
RMM:  15    -0.413217679872E+03    0.45931E-05   -0.10546E-07  1219   0.676E-04    0.802E-05
RMM:  16    -0.413217675774E+03    0.40976E-05   -0.82229E-08  1161   0.642E-04    0.876E-05
RMM:  17    -0.413217672577E+03    0.31976E-05   -0.61685E-08  1085   0.602E-04    0.619E-05
RMM:  18    -0.413217669882E+03    0.26950E-05   -0.50585E-08  1051   0.578E-04    0.398E-05
RMM:  19    -0.413217669458E+03    0.42341E-06   -0.21802E-08   685   0.517E-04
   45 T=    71. E= -.41286669E+03 F= -.41321767E+03 E0= -.41319670E+03  EK= 0.35098E+00 SP= 0.00E+00 SK= 0.00E+00
       N       E                     dE             d eps       ncg     rms          rms(c)
RMM:   1    -0.413246479674E+03   -0.28810E-01   -0.13382E+01  4307   0.169E+00    0.963E-01
RMM:   2    -0.413218324818E+03    0.28155E-01   -0.18876E-01  4376   0.193E-01    0.681E-01
RMM:   3    -0.413234448010E+03   -0.16123E-01   -0.21494E-02  5133   0.129E-01    0.590E-01
RMM:   4    -0.413230391972E+03    0.40560E-02   -0.36805E-02  4988   0.169E-01    0.496E-01
RMM:   5    -0.413218043053E+03    0.12349E-01   -0.49059E-03  4535   0.904E-02    0.422E-02
RMM:   6    -0.413217971697E+03    0.71356E-04   -0.72554E-04  5028   0.280E-02    0.152E-02
RMM:   7    -0.413217972827E+03   -0.11296E-05   -0.93481E-05  5657   0.913E-03    0.101E-02
RMM:   8    -0.413217966433E+03    0.63937E-05   -0.17766E-05  4282   0.478E-03    0.638E-03
RMM:   9    -0.413217954886E+03    0.11547E-04   -0.78852E-06  3433   0.377E-03    0.438E-03
RMM:  10    -0.413217949942E+03    0.49441E-05   -0.18158E-06  2513   0.228E-03    0.170E-03
RMM:  11    -0.413217944721E+03    0.52211E-05   -0.12259E-06  2447   0.177E-03    0.981E-04
RMM:  12    -0.413217940683E+03    0.40379E-05   -0.51564E-07  2344   0.128E-03    0.644E-04
RMM:  13    -0.413217936597E+03    0.40862E-05   -0.24470E-07  1822   0.880E-04    0.349E-04
RMM:  14    -0.413217933352E+03    0.32447E-05   -0.12756E-07  1211   0.684E-04    0.202E-04
RMM:  15    -0.413217928415E+03    0.49365E-05   -0.11113E-07  1287   0.670E-04    0.108E-04
RMM:  16    -0.413217924852E+03    0.35638E-05   -0.70967E-08  1030   0.599E-04    0.116E-04
RMM:  17    -0.413217921738E+03    0.31136E-05   -0.52869E-08   932   0.571E-04    0.610E-05
RMM:  18    -0.413217919693E+03    0.20448E-05   -0.36741E-08   841   0.547E-04    0.366E-05
RMM:  19    -0.413217918756E+03    0.93706E-06   -0.20441E-08   669   0.522E-04
   46 T=    72. E= -.41286637E+03 F= -.41321792E+03 E0= -.41319696E+03  EK= 0.35155E+00 SP= 0.00E+00 SK= 0.00E+00
       N       E                     dE             d eps       ncg     rms          rms(c)
RMM:   1    -0.413267242861E+03   -0.49323E-01   -0.13665E+01  4310   0.185E+00    0.949E-01
RMM:   2    -0.413218745178E+03    0.48498E-01   -0.23079E-01  4401   0.214E-01    0.699E-01
RMM:   3    -0.413233964941E+03   -0.15220E-01   -0.20759E-02  5136   0.129E-01    0.611E-01
RMM:   4    -0.413231827101E+03    0.21378E-02   -0.38978E-02  5003   0.173E-01    0.542E-01
RMM:   5    -0.413217795693E+03    0.14031E-01   -0.63381E-03  4544   0.991E-02    0.484E-02
RMM:   6    -0.413217708818E+03    0.86875E-04   -0.90348E-04  5112   0.314E-02    0.173E-02
RMM:   7    -0.413217709200E+03   -0.38218E-06   -0.12503E-04  5816   0.105E-02    0.122E-02
RMM:   8    -0.413217706875E+03    0.23248E-05   -0.26005E-05  4692   0.488E-03    0.863E-03
RMM:   9    -0.413217695182E+03    0.11693E-04   -0.10836E-05  3839   0.461E-03    0.529E-03
RMM:  10    -0.413217689763E+03    0.54188E-05   -0.20834E-06  2518   0.240E-03    0.243E-03
RMM:  11    -0.413217685668E+03    0.40951E-05   -0.19623E-06  2554   0.209E-03    0.131E-03
RMM:  12    -0.413217683113E+03    0.25549E-05   -0.57967E-07  2400   0.142E-03    0.803E-04
RMM:  13    -0.413217680706E+03    0.24071E-05   -0.28476E-07  2104   0.935E-04    0.445E-04
RMM:  14    -0.413217678081E+03    0.26256E-05   -0.15613E-07  1292   0.708E-04    0.229E-04
RMM:  15    -0.413217675615E+03    0.24654E-05   -0.11050E-07  1140   0.654E-04    0.111E-04
RMM:  16    -0.413217673206E+03    0.24094E-05   -0.91208E-08  1152   0.642E-04    0.103E-04
RMM:  17    -0.413217671447E+03    0.17584E-05   -0.61839E-08  1015   0.592E-04    0.110E-04
RMM:  18    -0.413217670320E+03    0.11277E-05   -0.36097E-08   797   0.542E-04    0.451E-05
RMM:  19    -0.413217669816E+03    0.50381E-06   -0.20980E-08   670   0.525E-04
   47 T=    72. E= -.41286637E+03 F= -.41321767E+03 E0= -.41319673E+03  EK= 0.35130E+00 SP= 0.00E+00 SK= 0.00E+00
       N       E                     dE             d eps       ncg     rms          rms(c)
RMM:   1    -0.413267343307E+03   -0.49673E-01   -0.13679E+01  4305   0.198E+00    0.978E-01
RMM:   2    -0.413217117496E+03    0.50226E-01   -0.21508E-01  4509   0.216E-01    0.692E-01
RMM:   3    -0.413243320654E+03   -0.26203E-01   -0.30949E-02  5156   0.158E-01    0.736E-01
RMM:   4    -0.413224499085E+03    0.18822E-01   -0.37748E-02  4948   0.175E-01    0.425E-01
RMM:   5    -0.413216832837E+03    0.76662E-02   -0.46449E-03  4619   0.911E-02    0.581E-02
RMM:   6    -0.413216631333E+03    0.20150E-03   -0.44209E-04  4673   0.286E-02    0.217E-02
RMM:   7    -0.413216631591E+03   -0.25761E-06   -0.10925E-04  5809   0.106E-02    0.140E-02
RMM:   8    -0.413216624028E+03    0.75626E-05   -0.18862E-05  4340   0.469E-03    0.103E-02
RMM:   9    -0.413216608976E+03    0.15052E-04   -0.76673E-06  3337   0.414E-03    0.542E-03
RMM:  10    -0.413216600488E+03    0.84884E-05   -0.30947E-06  2710   0.289E-03    0.236E-03
RMM:  11    -0.413216593896E+03    0.65916E-05   -0.26598E-06  2669   0.243E-03    0.153E-03
RMM:  12    -0.413216588627E+03    0.52698E-05   -0.81984E-07  2434   0.163E-03    0.833E-04
RMM:  13    -0.413216585112E+03    0.35146E-05   -0.36609E-07  2331   0.105E-03    0.522E-04
RMM:  14    -0.413216580968E+03    0.41442E-05   -0.18802E-07  1591   0.764E-04    0.248E-04
RMM:  15    -0.413216575613E+03    0.53545E-05   -0.15534E-07  1517   0.730E-04    0.157E-04
RMM:  16    -0.413216573081E+03    0.25319E-05   -0.76950E-08  1112   0.618E-04    0.128E-04
RMM:  17    -0.413216570402E+03    0.26796E-05   -0.59742E-08  1041   0.596E-04    0.708E-05
RMM:  18    -0.413216568483E+03    0.19188E-05   -0.43733E-08   978   0.578E-04    0.360E-05
RMM:  19    -0.413216567567E+03    0.91579E-06   -0.23113E-08   780   0.548E-04
   48 T=    71. E= -.41286647E+03 F= -.41321657E+03 E0= -.41319563E+03  EK= 0.35010E+00 SP= 0.00E+00 SK= 0.00E+00
       N       E                     dE             d eps       ncg     rms          rms(c)
RMM:   1    -0.413270184814E+03   -0.53616E-01   -0.13590E+01  4305   0.211E+00    0.969E-01
RMM:   2    -0.413213918174E+03    0.56267E-01   -0.21442E-01  4509   0.231E-01    0.682E-01
RMM:   3    -0.413246129239E+03   -0.32211E-01   -0.36469E-02  5162   0.172E-01    0.805E-01
RMM:   4    -0.413219109176E+03    0.27020E-01   -0.38001E-02  4923   0.178E-01    0.382E-01
[...]
RMM:  12    -0.413675048278E+03   -0.86815E-05   -0.69782E-06  3286   0.382E-03    0.369E-03
RMM:  13    -0.413675052190E+03   -0.39125E-05   -0.35900E-06  2859   0.274E-03    0.187E-03
RMM:  14    -0.413675054383E+03   -0.21927E-05   -0.22212E-06  2667   0.216E-03    0.110E-03
RMM:  15    -0.413675054603E+03   -0.21956E-06   -0.17543E-06  2567   0.173E-03
  138 T=   133. E= -.41301968E+03 F= -.41367505E+03 E0= -.41365439E+03  EK= 0.65537E+00 SP= 0.00E+00 SK= 0.00E+00
       N       E                     dE             d eps       ncg     rms          rms(c)
RMM:   1    -0.413726172694E+03   -0.51118E-01   -0.14586E+01  4291   0.727E+00    0.108E+00
RMM:   2    -0.413681028591E+03    0.45144E-01   -0.40751E-01  5432   0.780E-01    0.113E+00
RMM:   3    -0.413677595739E+03    0.34329E-02   -0.93426E-02  5608   0.332E-01    0.106E+00
RMM:   4    -0.413652232941E+03    0.25363E-01   -0.42707E-02  5270   0.247E-01    0.565E-01
RMM:   5    -0.413651758561E+03    0.47438E-03   -0.29539E-02  4722   0.231E-01    0.242E-01
RMM:   6    -0.413650039597E+03    0.17190E-02   -0.14860E-02  5078   0.146E-01    0.134E-01
RMM:   7    -0.413649085169E+03    0.95443E-03   -0.19581E-03  4748   0.644E-02    0.667E-02
RMM:   8    -0.413649043253E+03    0.41916E-04   -0.49344E-04  5211   0.283E-02    0.386E-02
RMM:   9    -0.413649053976E+03   -0.10723E-04   -0.26359E-04  4635   0.214E-02    0.131E-02
RMM:  10    -0.413649067165E+03   -0.13189E-04   -0.71940E-05  5766   0.101E-02    0.102E-02
RMM:  11    -0.413649072900E+03   -0.57349E-05   -0.17933E-05  4348   0.552E-03    0.507E-03
RMM:  12    -0.413649078691E+03   -0.57912E-05   -0.62205E-06  3235   0.353E-03    0.314E-03
RMM:  13    -0.413649082161E+03   -0.34700E-05   -0.28952E-06  2795   0.252E-03    0.171E-03
RMM:  14    -0.413649082868E+03   -0.70757E-06   -0.18162E-06  2604   0.191E-03
  139 T=   129. E= -.41301722E+03 F= -.41364908E+03 E0= -.41362840E+03  EK= 0.63186E+00 SP= 0.00E+00 SK= 0.00E+00
       N       E                     dE             d eps       ncg     rms          rms(c)
RMM:   1    -0.413668608493E+03   -0.19526E-01   -0.13449E+01  4280   0.685E+00    0.916E-01
RMM:   2    -0.413611105766E+03    0.57503E-01   -0.35830E-01  5408   0.721E-01    0.907E-01
RMM:   3    -0.413622616186E+03   -0.11510E-01   -0.71199E-02  5687   0.285E-01    0.941E-01
RMM:   4    -0.413600950962E+03    0.21665E-01   -0.28376E-02  5248   0.200E-01    0.523E-01
RMM:   5    -0.413600040717E+03    0.91024E-03   -0.21907E-02  4523   0.206E-01    0.190E-01
RMM:   6    -0.413599105863E+03    0.93485E-03   -0.87999E-03  5078   0.114E-01    0.112E-01
RMM:   7    -0.413598461870E+03    0.64399E-03   -0.16430E-03  5002   0.547E-02    0.584E-02
RMM:   8    -0.413598406799E+03    0.55071E-04   -0.35615E-04  4983   0.246E-02    0.325E-02
RMM:   9    -0.413598410211E+03   -0.34122E-05   -0.22267E-04  4671   0.195E-02    0.124E-02
RMM:  10    -0.413598415621E+03   -0.54095E-05   -0.52950E-05  5589   0.836E-03    0.915E-03
RMM:  11    -0.413598416226E+03   -0.60519E-06   -0.13035E-05  4092   0.475E-03    0.394E-03
RMM:  12    -0.413598417825E+03   -0.15987E-05   -0.34237E-06  2832   0.273E-03    0.235E-03
RMM:  13    -0.413598418347E+03   -0.52178E-06   -0.14869E-06  2564   0.190E-03
  140 T=   119. E= -.41301421E+03 F= -.41359842E+03 E0= -.41357800E+03  EK= 0.58421E+00 SP= 0.00E+00 SK= 0.00E+00
       N       E                     dE             d eps       ncg     rms          rms(c)
RMM:   1    -0.413622865761E+03   -0.24448E-01   -0.12263E+01  4264   0.648E+00    0.828E-01
RMM:   2    -0.413569215084E+03    0.53651E-01   -0.30610E-01  5348   0.654E-01    0.744E-01
RMM:   3    -0.413590298702E+03   -0.21084E-01   -0.60542E-02  5701   0.259E-01    0.859E-01
RMM:   4    -0.413568580022E+03    0.21719E-01   -0.26533E-02  5197   0.186E-01    0.450E-01
RMM:   5    -0.413566963340E+03    0.16167E-02   -0.18102E-02  4608   0.184E-01    0.157E-01
RMM:   6    -0.413566143727E+03    0.81961E-03   -0.32601E-03  4927   0.778E-02    0.725E-02
RMM:   7    -0.413565992081E+03    0.15165E-03   -0.95005E-04  5415   0.383E-02    0.438E-02
RMM:   8    -0.413565939365E+03    0.52716E-04   -0.27459E-04  5087   0.214E-02    0.251E-02
RMM:   9    -0.413565940300E+03   -0.93539E-06   -0.13039E-04  4952   0.147E-02    0.142E-02
RMM:  10    -0.413565937505E+03    0.27947E-05   -0.31087E-05  5056   0.679E-03    0.737E-03
RMM:  11    -0.413565936018E+03    0.14877E-05   -0.10105E-05  3882   0.402E-03    0.360E-03
RMM:  12    -0.413565935009E+03    0.10089E-05   -0.15325E-06  2553   0.216E-03    0.181E-03
RMM:  13    -0.413565934234E+03    0.77454E-06   -0.83662E-07  2471   0.150E-03
  141 T=   113. E= -.41301191E+03 F= -.41356593E+03 E0= -.41354583E+03  EK= 0.55403E+00 SP= 0.00E+00 SK= 0.00E+00
       N       E                     dE             d eps       ncg     rms          rms(c)
RMM:   1    -0.413627128250E+03   -0.61193E-01   -0.11986E+01  4264   0.647E+00    0.806E-01
RMM:   2    -0.413580334036E+03    0.46794E-01   -0.28675E-01  5268   0.626E-01    0.670E-01
RMM:   3    -0.413610153564E+03   -0.29820E-01   -0.64310E-02  5652   0.267E-01    0.887E-01
RMM:   4    -0.413580619671E+03    0.29534E-01   -0.29470E-02  5083   0.200E-01    0.362E-01
RMM:   5    -0.413579247724E+03    0.13719E-02   -0.16311E-02  4873   0.169E-01    0.142E-01
RMM:   6    -0.413578606561E+03    0.64116E-03   -0.19206E-03  4854   0.629E-02    0.544E-02
RMM:   7    -0.413578605497E+03    0.10640E-05   -0.72125E-04  5670   0.303E-02    0.328E-02
RMM:   8    -0.413578595546E+03    0.99505E-05   -0.32850E-04  5659   0.200E-02    0.264E-02
RMM:   9    -0.413578582743E+03    0.12803E-04   -0.81396E-05  5135   0.116E-02    0.148E-02
RMM:  10    -0.413578579932E+03    0.28109E-05   -0.39026E-05  5424   0.738E-03    0.642E-03
RMM:  11    -0.413578580852E+03   -0.91958E-06   -0.95232E-06  3641   0.369E-03
  142 T=   115. E= -.41301219E+03 F= -.41357858E+03 E0= -.41355860E+03  EK= 0.56639E+00 SP= 0.00E+00 SK= 0.00E+00
       N       E                     dE             d eps       ncg     rms          rms(c)
RMM:   1    -0.413680123745E+03   -0.10154E+00   -0.13057E+01  4265   0.678E+00    0.970E-01
RMM:   2    -0.413629127058E+03    0.50997E-01   -0.35267E-01  5342   0.694E-01    0.823E-01
RMM:   3    -0.413665404955E+03   -0.36278E-01   -0.82336E-02  5589   0.305E-01    0.104E+00
RMM:   4    -0.413626704677E+03    0.38700E-01   -0.42630E-02  5093   0.242E-01    0.434E-01
RMM:   5    -0.413623848024E+03    0.28567E-02   -0.15412E-02  4541   0.177E-01    0.119E-01
RMM:   6    -0.413623672312E+03    0.17571E-03   -0.26543E-03  5390   0.661E-02    0.657E-02
RMM:   7    -0.413623610968E+03    0.61344E-04   -0.64251E-04  5369   0.301E-02    0.394E-02
RMM:   8    -0.413623619145E+03   -0.81769E-05   -0.38537E-04  5517   0.231E-02    0.277E-02
RMM:   9    -0.413623597529E+03    0.21616E-04   -0.13694E-04  5577   0.138E-02    0.196E-02
RMM:  10    -0.413623595597E+03    0.19323E-05   -0.50671E-05  5356   0.887E-03    0.835E-03
RMM:  11    -0.413623600569E+03   -0.49724E-05   -0.26407E-05  5080   0.577E-03    0.611E-03
RMM:  12    -0.413623606766E+03   -0.61966E-05   -0.44429E-06  3021   0.341E-03    0.247E-03
RMM:  13    -0.413623612583E+03   -0.58170E-05   -0.21449E-06  2624   0.227E-03    0.140E-03
RMM:  14    -0.413623619609E+03   -0.70258E-05   -0.11480E-06  2506   0.172E-03    0.676E-04
RMM:  15    -0.413623625857E+03   -0.62484E-05   -0.92661E-07  2389   0.136E-03    0.550E-04
RMM:  16    -0.413623633341E+03   -0.74834E-05   -0.11450E-06  2357   0.135E-03    0.382E-04
RMM:  17    -0.413623638877E+03   -0.55362E-05   -0.82900E-07  2148   0.109E-03    0.292E-04
RMM:  18    -0.413623643467E+03   -0.45906E-05   -0.65868E-07  1974   0.977E-04    0.168E-04
RMM:  19    -0.413623646340E+03   -0.28726E-05   -0.36292E-07  1607   0.780E-04    0.123E-04
RMM:  20    -0.413623647999E+03   -0.16591E-05   -0.16424E-07  1210   0.639E-04    0.837E-05
RMM:  21    -0.413623649515E+03   -0.15154E-05   -0.10619E-07  1116   0.601E-04    0.462E-05
RMM:  22    -0.413623650332E+03   -0.81788E-06   -0.61691E-08  1003   0.568E-04
  143 T=   123. E= -.41301748E+03 F= -.41362365E+03 E0= -.41360362E+03  EK= 0.60618E+00 SP= 0.00E+00 SK= 0.00E+00
       N       E                     dE             d eps       ncg     rms          rms(c)
RMM:   1    -0.413713823223E+03   -0.90174E-01   -0.14487E+01  4269   0.695E+00    0.119E+00
RMM:   2    -0.413640480056E+03    0.73343E-01   -0.44775E-01  5396   0.784E-01    0.104E+00
RMM:   3    -0.413688363744E+03   -0.47884E-01   -0.10955E-01  5567   0.355E-01    0.122E+00
RMM:   4    -0.413638661469E+03    0.49702E-01   -0.61169E-02  5176   0.278E-01    0.594E-01
RMM:   5    -0.413632533911E+03    0.61276E-02   -0.22278E-02  4406   0.215E-01    0.138E-01
RMM:   6    -0.413632254353E+03    0.27956E-03   -0.39572E-03  5330   0.821E-02    0.806E-02
RMM:   7    -0.413632120494E+03    0.13386E-03   -0.12367E-03  5332   0.409E-02    0.545E-02
RMM:   8    -0.413632060498E+03    0.59997E-04   -0.43946E-04  5174   0.260E-02    0.330E-02
RMM:   9    -0.413632042444E+03    0.18054E-04   -0.21356E-04  5155   0.189E-02    0.212E-02
RMM:  10    -0.413632037828E+03    0.46154E-05   -0.50049E-05  5250   0.931E-03    0.105E-02
RMM:  11    -0.413632041475E+03   -0.36466E-05   -0.31106E-05  5196   0.651E-03    0.602E-03
RMM:  12    -0.413632046241E+03   -0.47661E-05   -0.42460E-06  2917   0.315E-03    0.291E-03
RMM:  13    -0.413632051327E+03   -0.50857E-05   -0.26444E-06  2705   0.248E-03    0.161E-03
RMM:  14    -0.413632056763E+03   -0.54359E-05   -0.11372E-06  2512   0.179E-03    0.821E-04
RMM:  15    -0.413632061520E+03   -0.47571E-05   -0.75581E-07  2337   0.130E-03    0.531E-04
RMM:  16    -0.413632067128E+03   -0.56078E-05   -0.84765E-07  2331   0.124E-03    0.341E-04
RMM:  17    -0.413632071912E+03   -0.47842E-05   -0.73111E-07  2075   0.107E-03    0.224E-04
RMM:  18    -0.413632075547E+03   -0.36352E-05   -0.56489E-07  1895   0.940E-04    0.165E-04
RMM:  19    -0.413632078367E+03   -0.28202E-05   -0.37991E-07  1691   0.813E-04    0.128E-04
RMM:  20    -0.413632080011E+03   -0.16432E-05   -0.18894E-07  1300   0.662E-04    0.890E-05
RMM:  21    -0.413632081277E+03   -0.12665E-05   -0.11398E-07  1138   0.605E-04    0.544E-05
RMM:  22    -0.413632082057E+03   -0.77980E-06   -0.68296E-08  1007   0.571E-04
  144 T=   124. E= -.41302291E+03 F= -.41363208E+03 E0= -.41361198E+03  EK= 0.60917E+00 SP= 0.00E+00 SK= 0.00E+00
       N       E                     dE             d eps       ncg     rms          rms(c)
RMM:   1    -0.413635787070E+03   -0.37058E-02   -0.14133E+01  4265   0.657E+00    0.134E+00
RMM:   2    -0.413551447355E+03    0.84340E-01   -0.47879E-01  5450   0.804E-01    0.120E+00
RMM:   3    -0.413588974447E+03   -0.37527E-01   -0.10485E-01  5524   0.357E-01    0.118E+00
RMM:   4    -0.413564770900E+03    0.24204E-01   -0.76923E-02  5255   0.291E-01    0.817E-01
RMM:   5    -0.413545244208E+03    0.19527E-01   -0.37773E-02  4396   0.269E-01    0.185E-01
RMM:   6    -0.413544240830E+03    0.10034E-02   -0.60515E-03  5173   0.106E-01    0.983E-02
RMM:   7    -0.413543939232E+03    0.30160E-03   -0.16014E-03  5151   0.494E-02    0.637E-02
RMM:   8    -0.413543841864E+03    0.97368E-04   -0.50100E-04  4973   0.297E-02    0.357E-02
RMM:   9    -0.413543835404E+03    0.64602E-05   -0.30445E-04  5346   0.222E-02    0.236E-02
RMM:  10    -0.413543828685E+03    0.67194E-05   -0.65349E-05  5327   0.106E-02    0.119E-02
RMM:  11    -0.413543830648E+03   -0.19638E-05   -0.38050E-05  5389   0.716E-03    0.685E-03
RMM:  12    -0.413543833051E+03   -0.24027E-05   -0.47338E-06  2971   0.321E-03    0.344E-03
RMM:  13    -0.413543836320E+03   -0.32693E-05   -0.27483E-06  2697   0.259E-03    0.181E-03
RMM:  14    -0.413543839908E+03   -0.35876E-05   -0.11645E-06  2493   0.186E-03    0.862E-04
RMM:  15    -0.413543842641E+03   -0.27326E-05   -0.62374E-07  2318   0.129E-03    0.518E-04
RMM:  16    -0.413543845351E+03   -0.27102E-05   -0.46360E-07  2130   0.104E-03    0.343E-04
RMM:  17    -0.413543847949E+03   -0.25984E-05   -0.38037E-07  1832   0.890E-04    0.195E-04
RMM:  18    -0.413543850522E+03   -0.25732E-05   -0.38348E-07  1867   0.870E-04    0.147E-04
RMM:  19    -0.413543852468E+03   -0.19455E-05   -0.25543E-07  1544   0.737E-04    0.105E-04
RMM:  20    -0.413543853869E+03   -0.14011E-05   -0.16957E-07  1345   0.657E-04    0.836E-05
RMM:  21    -0.413543854588E+03   -0.71861E-06   -0.88906E-08  1057   0.583E-04
  145 T=   106. E= -.41302487E+03 F= -.41354385E+03 E0= -.41352380E+03  EK= 0.51898E+00 SP= 0.00E+00 SK= 0.00E+00
       N       E                     dE             d eps       ncg     rms          rms(c)
RMM:   1    -0.413417690301E+03    0.12616E+00   -0.10695E+01  4264   0.573E+00    0.148E+00
RMM:   2    -0.413375463130E+03    0.42227E-01   -0.37539E-01  5457   0.715E-01    0.132E+00
RMM:   3    -0.413405603682E+03   -0.30141E-01   -0.95611E-02  5365   0.350E-01    0.111E+00
RMM:   4    -0.413423842388E+03   -0.18239E-01   -0.12136E-01  5261   0.344E-01    0.106E+00
RMM:   5    -0.413369821760E+03    0.54021E-01   -0.50616E-02  4584   0.299E-01    0.228E-01
RMM:   6    -0.413368716077E+03    0.11057E-02   -0.89505E-03  5476   0.117E-01    0.929E-02
RMM:   7    -0.413368575829E+03    0.14025E-03   -0.15303E-03  5284   0.459E-02    0.569E-02
RMM:   8    -0.413368555516E+03    0.20313E-04   -0.77046E-04  5409   0.327E-02    0.363E-02
RMM:   9    -0.413368522812E+03    0.32704E-04   -0.30807E-04  5459   0.212E-02    0.246E-02
RMM:  10    -0.413368514698E+03    0.81140E-05   -0.75898E-05  5561   0.112E-02    0.107E-02
RMM:  11    -0.413368516175E+03   -0.14764E-05   -0.36711E-05  5469   0.671E-03    0.739E-03
RMM:  12    -0.413368516044E+03    0.13069E-06   -0.43715E-06  2934   0.329E-03
  146 T=    72. E= -.41301632E+03 F= -.41336852E+03 E0= -.41334872E+03  EK= 0.35219E+00 SP= 0.00E+00 SK= 0.00E+00
       N       E                     dE             d eps       ncg     rms          rms(c)
RMM:   1    -0.413267376401E+03    0.10114E+00   -0.58583E+00  4271   0.469E+00    0.101E+00
RMM:   2    -0.413271253161E+03   -0.38768E-02   -0.20557E-01  5455   0.519E-01    0.901E-01
RMM:   3    -0.413299639507E+03   -0.28386E-01   -0.68185E-02  5466   0.271E-01    0.104E+00
RMM:   4    -0.413265851143E+03    0.33788E-01   -0.47766E-02  5199   0.246E-01    0.468E-01
RMM:   5    -0.413263299797E+03    0.25513E-02   -0.22661E-02  4858   0.197E-01    0.168E-01
RMM:   6    -0.413261735509E+03    0.15643E-02   -0.74453E-03  5072   0.108E-01    0.858E-02
RMM:   7    -0.413261401350E+03    0.33416E-03   -0.62469E-04  4547   0.397E-02    0.423E-02
RMM:   8    -0.413261386485E+03    0.14865E-04   -0.28866E-04  5173   0.216E-02    0.221E-02
RMM:   9    -0.413261389826E+03   -0.33415E-05   -0.11323E-04  5502   0.126E-02    0.129E-02
RMM:  10    -0.413261388745E+03    0.10812E-05   -0.25938E-05  4961   0.618E-03    0.633E-03
RMM:  11    -0.413261390934E+03   -0.21894E-05   -0.10976E-05  4019   0.404E-03    0.372E-03
RMM:  12    -0.413261392068E+03   -0.11332E-05   -0.16728E-06  2591   0.225E-03    0.181E-03
RMM:  13    -0.413261392530E+03   -0.46208E-06   -0.87760E-07  2485   0.151E-03
  147 T=    52. E= -.41300500E+03 F= -.41326139E+03 E0= -.41324194E+03  EK= 0.25639E+00 SP= 0.00E+00 SK= 0.00E+00
       N       E                     dE             d eps       ncg     rms          rms(c)
RMM:   1    -0.413360648301E+03   -0.99256E-01   -0.57520E+00  4296   0.477E+00    0.101E+00
RMM:   2    -0.413388160724E+03   -0.27512E-01   -0.18329E-01  5419   0.493E-01    0.102E+00
RMM:   3    -0.413371752104E+03    0.16409E-01   -0.63204E-02  5332   0.274E-01    0.873E-01
RMM:   4    -0.413359584094E+03    0.12168E-01   -0.55339E-02  5330   0.264E-01    0.442E-01
RMM:   5    -0.413355448065E+03    0.41360E-02   -0.32186E-02  5017   0.218E-01    0.198E-01
RMM:   6    -0.413353463574E+03    0.19845E-02   -0.86274E-03  5125   0.120E-01    0.853E-02
RMM:   7    -0.413353260137E+03    0.20344E-03   -0.63005E-04  4673   0.389E-02    0.384E-02
RMM:   8    -0.413353244708E+03    0.15429E-04   -0.19091E-04  5112   0.183E-02    0.210E-02
RMM:   9    -0.413353258400E+03   -0.13692E-04   -0.11008E-04  5406   0.126E-02    0.150E-02
RMM:  10    -0.413353258555E+03   -0.15499E-06   -0.23640E-05  4834   0.610E-03    0.749E-03
RMM:  11    -0.413353262968E+03   -0.44136E-05   -0.19523E-05  4768   0.511E-03    0.442E-03
RMM:  12    -0.413353267009E+03   -0.40413E-05   -0.33565E-06  2796   0.294E-03    0.269E-03
RMM:  13    -0.413353268256E+03   -0.12465E-05   -0.12579E-06  2535   0.183E-03    0.147E-03
RMM:  14    -0.413353269211E+03   -0.95536E-06   -0.10663E-06  2477   0.158E-03
  148 T=    68. E= -.41302099E+03 F= -.41335327E+03 E0= -.41333394E+03  EK= 0.33228E+00 SP= 0.00E+00 SK= 0.00E+00
       N       E                     dE             d eps       ncg     rms          rms(c)
RMM:   1    -0.413477608059E+03   -0.12434E+00   -0.90102E+00  4298   0.574E+00    0.136E+00
RMM:   2    -0.413498828203E+03   -0.21220E-01   -0.27933E-01  5392   0.639E-01    0.140E+00
RMM:   3    -0.413469938994E+03    0.28889E-01   -0.98651E-02  5356   0.348E-01    0.118E+00
RMM:   4    -0.413452052012E+03    0.17887E-01   -0.83239E-02  5313   0.328E-01    0.569E-01
RMM:   5    -0.413447954414E+03    0.40976E-02   -0.63485E-02  5049   0.301E-01    0.287E-01
RMM:   6    -0.413442826315E+03    0.51281E-02   -0.15304E-02  5007   0.163E-01    0.107E-01
RMM:   7    -0.413442558632E+03    0.26768E-03   -0.13952E-03  5227   0.551E-02    0.485E-02
RMM:   8    -0.413442527527E+03    0.31105E-04   -0.32011E-04  5112   0.238E-02    0.294E-02
RMM:   9    -0.413442544391E+03   -0.16864E-04   -0.17191E-04  5323   0.165E-02    0.185E-02
RMM:  10    -0.413442546174E+03   -0.17829E-05   -0.47605E-05  5398   0.864E-03    0.967E-03
RMM:  11    -0.413442550202E+03   -0.40282E-05   -0.25056E-05  5072   0.583E-03    0.518E-03
RMM:  12    -0.413442556187E+03   -0.59846E-05   -0.71059E-06  3523   0.390E-03    0.346E-03
RMM:  13    -0.413442558746E+03   -0.25594E-05   -0.25483E-06  2678   0.255E-03    0.210E-03
RMM:  14    -0.413442559876E+03   -0.11298E-05   -0.13830E-06  2564   0.182E-03    0.765E-04
RMM:  15    -0.413442560045E+03   -0.16922E-06   -0.83125E-07  2283   0.128E-03
  149 T=    85. E= -.41302535E+03 F= -.41344256E+03 E0= -.41342314E+03  EK= 0.41721E+00 SP= 0.00E+00 SK= 0.00E+00
       N       E                     dE             d eps       ncg     rms          rms(c)
RMM:   1    -0.413471033487E+03   -0.28474E-01   -0.96315E+00  4298   0.583E+00    0.989E-01
RMM:   2    -0.413469894435E+03    0.11391E-02   -0.26797E-01  5409   0.625E-01    0.111E+00
RMM:   3    -0.413446445161E+03    0.23449E-01   -0.65520E-02  5531   0.286E-01    0.902E-01
RMM:   4    -0.413434820174E+03    0.11625E-01   -0.32338E-02  5324   0.214E-01    0.499E-01
RMM:   5    -0.413436548793E+03   -0.17286E-02   -0.35509E-02  5012   0.230E-01    0.280E-01
RMM:   6    -0.413432418478E+03    0.41303E-02   -0.14402E-02  4942   0.148E-01    0.109E-01
RMM:   7    -0.413432069487E+03    0.34899E-03   -0.14560E-03  5201   0.561E-02    0.529E-02
RMM:   8    -0.413432041099E+03    0.28388E-04   -0.32374E-04  5291   0.231E-02    0.350E-02
RMM:   9    -0.413432044584E+03   -0.34851E-05   -0.14855E-04  4502   0.163E-02    0.131E-02
RMM:  10    -0.413432050756E+03   -0.61723E-05   -0.49797E-05  5459   0.863E-03    0.808E-03
RMM:  11    -0.413432053058E+03   -0.23015E-05   -0.12958E-05  4160   0.438E-03    0.456E-03
RMM:  12    -0.413432058666E+03   -0.56076E-05   -0.56610E-06  3205   0.366E-03    0.304E-03
RMM:  13    -0.413432061675E+03   -0.30091E-05   -0.19806E-06  2634   0.227E-03    0.175E-03
RMM:  14    -0.413432063040E+03   -0.13655E-05   -0.11588E-06  2527   0.158E-03    0.857E-04
RMM:  15    -0.413432063359E+03   -0.31861E-06   -0.76031E-07  2308   0.121E-03
  150 T=    85. E= -.41301700E+03 F= -.41343206E+03 E0= -.41341251E+03  EK= 0.41506E+00 SP= 0.00E+00 SK= 0.00E+00
