       N       E                     dE             d eps       ncg     rms          rms(c)
RMM:   1     0.220120457852E+04    0.22012E+04   -0.52438E+04  2132   0.654E+02
RMM:   2     0.705401432499E+03   -0.14958E+04   -0.16260E+04  2132   0.177E+02
RMM:   3     0.137338463165E+03   -0.56806E+03   -0.65701E+03  2132   0.117E+02
RMM:   4    -0.159187095436E+03   -0.29653E+03   -0.27849E+03  2132   0.936E+01
RMM:   5    -0.287479088420E+03   -0.12829E+03   -0.11450E+03  2132   0.595E+01
RMM:   6    -0.349819738621E+03   -0.62341E+02   -0.55137E+02  2132   0.423E+01
RMM:   7    -0.382780054498E+03   -0.32960E+02   -0.30439E+02  2132   0.293E+01
RMM:   8    -0.404273973865E+03   -0.21494E+02   -0.18441E+02  2132   0.233E+01
RMM:   9    -0.436005083834E+03   -0.31731E+02   -0.30654E+02  6102   0.173E+01
RMM:  10    -0.441318323908E+03   -0.53132E+01   -0.63068E+01  6392   0.538E+00
RMM:  11    -0.442501561934E+03   -0.11832E+01   -0.10855E+01  6217   0.172E+00
RMM:  12    -0.442882507663E+03   -0.38095E+00   -0.26074E+00  6374   0.599E-01    0.134E+02
RMM:  13    -0.425645481142E+03    0.17237E+02   -0.81054E+01  4671   0.119E+01    0.712E+01
RMM:  14    -0.499941862631E+03   -0.74296E+02   -0.54445E+02  5421   0.233E+01    0.308E+01
RMM:  15    -0.414235107931E+03    0.85707E+02   -0.19669E+02  5057   0.163E+01    0.609E+00
RMM:  16    -0.414065180684E+03    0.16993E+00   -0.39525E+01  6078   0.605E+00    0.430E+00
RMM:  17    -0.413223212716E+03    0.84197E+00   -0.23446E+00  5350   0.182E+00    0.247E+00
RMM:  18    -0.413166365715E+03    0.56847E-01   -0.89553E-01  5947   0.973E-01    0.160E+00
RMM:  19    -0.413167700095E+03   -0.13344E-02   -0.29945E-01  5725   0.577E-01    0.859E-01
RMM:  20    -0.413182800228E+03   -0.15100E-01   -0.20338E-01  5338   0.499E-01    0.543E-01
RMM:  21    -0.413166348043E+03    0.16452E-01   -0.34700E-02  4982   0.233E-01    0.244E-01
RMM:  22    -0.413165344781E+03    0.10033E-02   -0.13236E-02  6118   0.946E-02    0.153E-01
RMM:  23    -0.413163775577E+03    0.15692E-02   -0.61874E-03  5782   0.738E-02    0.825E-02
RMM:  24    -0.413162621602E+03    0.11540E-02   -0.16770E-03  5480   0.401E-02    0.355E-02
RMM:  25    -0.413162466990E+03    0.15461E-03   -0.78945E-04  5786   0.236E-02    0.293E-02
RMM:  26    -0.413162678859E+03   -0.21187E-03   -0.55207E-04  5795   0.243E-02    0.279E-02
RMM:  27    -0.413163135666E+03   -0.45681E-03   -0.18391E-04  4504   0.192E-02    0.163E-02
RMM:  28    -0.413163629036E+03   -0.49337E-03   -0.18752E-04  5166   0.195E-02    0.899E-03
RMM:  29    -0.413163983425E+03   -0.35439E-03   -0.97788E-05  4366   0.141E-02    0.357E-03
RMM:  30    -0.413164192657E+03   -0.20923E-03   -0.76706E-05  4158   0.939E-03    0.303E-03
RMM:  31    -0.413164296965E+03   -0.10431E-03   -0.43556E-05  3092   0.573E-03    0.243E-03
RMM:  32    -0.413164320657E+03   -0.23692E-04   -0.18543E-05  2932   0.274E-03    0.119E-03
RMM:  33    -0.413164330906E+03   -0.10249E-04   -0.81153E-06  2763   0.199E-03    0.534E-04
RMM:  34    -0.413164334320E+03   -0.34141E-05   -0.41071E-06  2590   0.147E-03    0.743E-04
RMM:  35    -0.413164334602E+03   -0.28166E-06   -0.20826E-06  2050   0.105E-03
    1 T=    61. E= -.41286654E+03 F= -.41316433E+03 E0= -.41314184E+03  EK= 0.29780E+00 SP= 0.00E+00 SK= 0.00E+00
       N       E                     dE             d eps       ncg     rms          rms(c)
RMM:   1    -0.413154375812E+03    0.99585E-02   -0.11175E+01  4004   0.702E-01    0.886E-01
RMM:   2    -0.413165383543E+03   -0.11008E-01   -0.13789E-01  3900   0.996E-02    0.640E-01
RMM:   3    -0.413164032595E+03    0.13509E-02   -0.63564E-03  4858   0.375E-02    0.161E-01
RMM:   4    -0.413190880721E+03   -0.26848E-01   -0.28288E-02  5213   0.139E-01    0.682E-01
RMM:   5    -0.413163567329E+03    0.27313E-01   -0.13594E-02  4850   0.115E-01    0.336E-02
RMM:   6    -0.413163736653E+03   -0.16932E-03   -0.21498E-03  5848   0.447E-02    0.165E-02
RMM:   7    -0.413163756546E+03   -0.19893E-04   -0.26563E-04  5871   0.133E-02    0.130E-02
RMM:   8    -0.413163762489E+03   -0.59436E-05   -0.34991E-05  4347   0.511E-03    0.814E-03
RMM:   9    -0.413163768245E+03   -0.57557E-05   -0.61431E-06  2924   0.271E-03    0.548E-03
RMM:  10    -0.413163776762E+03   -0.85168E-05   -0.24035E-06  2591   0.210E-03    0.276E-03
RMM:  11    -0.413163784070E+03   -0.73085E-05   -0.15813E-06  2540   0.176E-03    0.140E-03
RMM:  12    -0.413163788549E+03   -0.44786E-05   -0.86246E-07  2421   0.133E-03    0.492E-04
RMM:  13    -0.413163790352E+03   -0.18033E-05   -0.45469E-07  2013   0.939E-04    0.293E-04
RMM:  14    -0.413163792285E+03   -0.19327E-05   -0.32374E-07  1535   0.780E-04    0.172E-04
RMM:  15    -0.413163794827E+03   -0.25424E-05   -0.29281E-07  1463   0.748E-04    0.129E-04
RMM:  16    -0.413163795378E+03   -0.55032E-06   -0.17987E-07  1112   0.637E-04
    2 T=    61. E= -.41286609E+03 F= -.41316380E+03 E0= -.41314129E+03  EK= 0.29770E+00 SP= 0.00E+00 SK= 0.00E+00
       N       E                     dE             d eps       ncg     rms          rms(c)
RMM:   1    -0.413155528943E+03    0.82659E-02   -0.11211E+01  4193   0.705E-01    0.911E-01
RMM:   2    -0.413165390164E+03   -0.98612E-02   -0.13507E-01  3940   0.960E-02    0.633E-01
RMM:   3    -0.413164749275E+03    0.64089E-03   -0.67881E-03  4882   0.378E-02    0.169E-01
RMM:   4    -0.413193465349E+03   -0.28716E-01   -0.29252E-02  5184   0.143E-01    0.706E-01
RMM:   5    -0.413164364251E+03    0.29101E-01   -0.14223E-02  4831   0.118E-01    0.365E-02
RMM:   6    -0.413164533930E+03   -0.16968E-03   -0.22604E-03  5808   0.459E-02    0.185E-02
RMM:   7    -0.413164546767E+03   -0.12837E-04   -0.26967E-04  5882   0.136E-02    0.136E-02
RMM:   8    -0.413164547686E+03   -0.91824E-06   -0.34976E-05  4378   0.518E-03    0.842E-03
RMM:   9    -0.413164547137E+03    0.54829E-06   -0.56828E-06  2950   0.271E-03
    3 T=    61. E= -.41286654E+03 F= -.41316455E+03 E0= -.41314205E+03  EK= 0.29801E+00 SP= 0.00E+00 SK= 0.00E+00
       N       E                     dE             d eps       ncg     rms          rms(c)
RMM:   1    -0.413155004762E+03    0.95429E-02   -0.11126E+01  4226   0.705E-01    0.895E-01
RMM:   2    -0.413165437582E+03   -0.10433E-01   -0.13396E-01  4166   0.973E-02    0.627E-01
RMM:   3    -0.413167694219E+03   -0.22566E-02   -0.90824E-03  5177   0.649E-02    0.293E-01
RMM:   4    -0.413194305186E+03   -0.26611E-01   -0.41000E-02  5138   0.171E-01    0.722E-01
RMM:   5    -0.413164155368E+03    0.30150E-01   -0.12747E-02  4737   0.120E-01    0.538E-02
RMM:   6    -0.413164206258E+03   -0.50890E-04   -0.21609E-03  5594   0.461E-02    0.163E-02
RMM:   7    -0.413164231147E+03   -0.24889E-04   -0.30348E-04  6042   0.149E-02    0.119E-02
RMM:   8    -0.413164234319E+03   -0.31724E-05   -0.38620E-05  4711   0.554E-03    0.735E-03
RMM:   9    -0.413164236212E+03   -0.18926E-05   -0.69072E-06  3074   0.355E-03    0.356E-03
RMM:  10    -0.413164238023E+03   -0.18108E-05   -0.19066E-06  2556   0.216E-03    0.214E-03
RMM:  11    -0.413164240132E+03   -0.21097E-05   -0.10037E-06  2540   0.155E-03    0.102E-03
RMM:  12    -0.413164241217E+03   -0.10849E-05   -0.47288E-07  2146   0.105E-03    0.466E-04
RMM:  13    -0.413164242358E+03   -0.11404E-05   -0.38240E-07  1788   0.891E-04    0.221E-04
RMM:  14    -0.413164242867E+03   -0.50918E-06   -0.20938E-07  1384   0.733E-04
    4 T=    61. E= -.41286621E+03 F= -.41316424E+03 E0= -.41314176E+03  EK= 0.29803E+00 SP= 0.00E+00 SK= 0.00E+00
       N       E                     dE             d eps       ncg     rms          rms(c)
RMM:   1    -0.413154764297E+03    0.94781E-02   -0.11165E+01  4235   0.710E-01    0.884E-01
RMM:   2    -0.413165721001E+03   -0.10957E-01   -0.13816E-01  3877   0.945E-02    0.639E-01
RMM:   3    -0.413164658684E+03    0.10623E-02   -0.63285E-03  4958   0.356E-02    0.165E-01
RMM:   4    -0.413195482801E+03   -0.30824E-01   -0.31585E-02  5168   0.148E-01    0.732E-01
RMM:   5    -0.413164140474E+03    0.31342E-01   -0.15241E-02  4816   0.122E-01    0.363E-02
RMM:   6    -0.413164322715E+03   -0.18224E-03   -0.24426E-03  5795   0.474E-02    0.167E-02
RMM:   7    -0.413164342782E+03   -0.20067E-04   -0.28502E-04  5866   0.138E-02    0.130E-02
RMM:   8    -0.413164347905E+03   -0.51230E-05   -0.35678E-05  4357   0.519E-03    0.812E-03
RMM:   9    -0.413164352362E+03   -0.44575E-05   -0.57275E-06  2929   0.273E-03    0.552E-03
RMM:  10    -0.413164358986E+03   -0.66242E-05   -0.21348E-06  2562   0.212E-03    0.275E-03
RMM:  11    -0.413164364639E+03   -0.56527E-05   -0.14405E-06  2543   0.175E-03    0.137E-03
RMM:  12    -0.413164367999E+03   -0.33603E-05   -0.72064E-07  2426   0.132E-03    0.489E-04
RMM:  13    -0.413164369310E+03   -0.13101E-05   -0.32737E-07  1994   0.927E-04    0.296E-04
RMM:  14    -0.413164370835E+03   -0.15256E-05   -0.22817E-07  1545   0.782E-04    0.175E-04
RMM:  15    -0.413164372438E+03   -0.16029E-05   -0.21321E-07  1506   0.747E-04    0.136E-04
RMM:  16    -0.413164372728E+03   -0.29011E-06   -0.98038E-08  1096   0.629E-04
    5 T=    61. E= -.41286616E+03 F= -.41316437E+03 E0= -.41314190E+03  EK= 0.29821E+00 SP= 0.00E+00 SK= 0.00E+00
       N       E                     dE             d eps       ncg     rms          rms(c)
RMM:   1    -0.413155790832E+03    0.85816E-02   -0.11222E+01  4249   0.716E-01    0.907E-01
RMM:   2    -0.413166028991E+03   -0.10238E-01   -0.13513E-01  3942   0.951E-02    0.635E-01
RMM:   3    -0.413165213781E+03    0.81521E-03   -0.65832E-03  4856   0.367E-02    0.168E-01
RMM:   4    -0.413193020409E+03   -0.27807E-01   -0.28162E-02  5162   0.140E-01    0.695E-01
RMM:   5    -0.413164811600E+03    0.28209E-01   -0.13798E-02  4817   0.116E-01    0.354E-02
RMM:   6    -0.413164974399E+03   -0.16280E-03   -0.21950E-03  5793   0.449E-02    0.180E-02
RMM:   7    -0.413164986881E+03   -0.12482E-04   -0.25893E-04  5852   0.132E-02    0.133E-02
RMM:   8    -0.413164987828E+03   -0.94747E-06   -0.32452E-05  4327   0.508E-03    0.828E-03
RMM:   9    -0.413164987421E+03    0.40720E-06   -0.54756E-06  2915   0.270E-03
    6 T=    61. E= -.41286644E+03 F= -.41316499E+03 E0= -.41314252E+03  EK= 0.29854E+00 SP= 0.00E+00 SK= 0.00E+00
       N       E                     dE             d eps       ncg     rms          rms(c)
RMM:   1    -0.413155496897E+03    0.94909E-02   -0.11162E+01  4265   0.723E-01    0.902E-01
RMM:   2    -0.413165356935E+03   -0.98600E-02   -0.13447E-01  4240   0.997E-02    0.628E-01
RMM:   3    -0.413167775789E+03   -0.24189E-02   -0.91372E-03  5151   0.635E-02    0.288E-01
RMM:   4    -0.413195005705E+03   -0.27230E-01   -0.40889E-02  5126   0.170E-01    0.727E-01
RMM:   5    -0.413164424707E+03    0.30581E-01   -0.13006E-02  4742   0.121E-01    0.533E-02
RMM:   6    -0.413164482794E+03   -0.58088E-04   -0.21847E-03  5591   0.462E-02    0.165E-02
RMM:   7    -0.413164507217E+03   -0.24423E-04   -0.30307E-04  6034   0.149E-02    0.120E-02
RMM:   8    -0.413164508914E+03   -0.16969E-05   -0.38755E-05  4672   0.554E-03    0.743E-03
RMM:   9    -0.413164507680E+03    0.12346E-05   -0.66699E-06  3006   0.352E-03    0.352E-03
RMM:  10    -0.413164507780E+03   -0.10016E-06   -0.19407E-06  2555   0.216E-03
    7 T=    61. E= -.41286605E+03 F= -.41316451E+03 E0= -.41314206E+03  EK= 0.29846E+00 SP= 0.00E+00 SK= 0.00E+00
       N       E                     dE             d eps       ncg     rms          rms(c)
RMM:   1    -0.413155564878E+03    0.89428E-02   -0.11152E+01  4274   0.724E-01    0.883E-01
RMM:   2    -0.413166603379E+03   -0.11039E-01   -0.13725E-01  4065   0.949E-02    0.636E-01
RMM:   3    -0.413165825564E+03    0.77782E-03   -0.65394E-03  5028   0.405E-02    0.180E-01
RMM:   4    -0.413206894559E+03   -0.41069E-01   -0.43127E-02  5156   0.172E-01    0.841E-01
RMM:   5    -0.413165049877E+03    0.41845E-01   -0.20164E-02  4804   0.141E-01    0.439E-02
RMM:   6    -0.413165266465E+03   -0.21659E-03   -0.32416E-03  5767   0.547E-02    0.169E-02
RMM:   7    -0.413165295880E+03   -0.29415E-04   -0.38743E-04  5945   0.157E-02    0.138E-02
RMM:   8    -0.413165300473E+03   -0.45932E-05   -0.44285E-05  4458   0.561E-03    0.857E-03
RMM:   9    -0.413165303751E+03   -0.32775E-05   -0.70832E-06  3009   0.282E-03    0.574E-03
RMM:  10    -0.413165308988E+03   -0.52368E-05   -0.25676E-06  2581   0.227E-03    0.277E-03
RMM:  11    -0.413165313157E+03   -0.41692E-05   -0.14889E-06  2540   0.179E-03    0.132E-03
RMM:  12    -0.413165315600E+03   -0.24434E-05   -0.82344E-07  2450   0.136E-03    0.431E-04
RMM:  13    -0.413165316846E+03   -0.12459E-05   -0.38923E-07  2053   0.972E-04    0.291E-04
RMM:  14    -0.413165318013E+03   -0.11672E-05   -0.30228E-07  1676   0.827E-04    0.200E-04
RMM:  15    -0.413165318646E+03   -0.63280E-06   -0.20356E-07  1391   0.730E-04
    8 T=    61. E= -.41286662E+03 F= -.41316532E+03 E0= -.41314289E+03  EK= 0.29870E+00 SP= 0.00E+00 SK= 0.00E+00
       N       E                     dE             d eps       ncg     rms          rms(c)
RMM:   1    -0.413156046369E+03    0.92716E-02   -0.11218E+01  4286   0.729E-01    0.901E-01
RMM:   2    -0.413166472714E+03   -0.10426E-01   -0.13646E-01  4141   0.102E-01    0.638E-01
RMM:   3    -0.413165595359E+03    0.87735E-03   -0.65392E-03  4850   0.383E-02    0.167E-01
RMM:   4    -0.413194584492E+03   -0.28989E-01   -0.29506E-02  5157   0.143E-01    0.710E-01
RMM:   5    -0.413165096419E+03    0.29488E-01   -0.14446E-02  4813   0.118E-01    0.353E-02
RMM:   6    -0.413165270128E+03   -0.17371E-03   -0.22897E-03  5794   0.459E-02    0.176E-02
RMM:   7    -0.413165282425E+03   -0.12297E-04   -0.26524E-04  5843   0.135E-02    0.132E-02
RMM:   8    -0.413165283870E+03   -0.14454E-05   -0.33646E-05  4346   0.519E-03    0.840E-03
RMM:   9    -0.413165283648E+03    0.22260E-06   -0.55843E-06  2923   0.276E-03
    9 T=    61. E= -.41286637E+03 F= -.41316528E+03 E0= -.41314288E+03  EK= 0.29891E+00 SP= 0.00E+00 SK= 0.00E+00
       N       E                     dE             d eps       ncg     rms          rms(c)
RMM:   1    -0.413156544409E+03    0.87395E-02   -0.11207E+01  4293   0.733E-01    0.910E-01
RMM:   2    -0.413166184463E+03   -0.96401E-02   -0.13448E-01  4266   0.986E-02    0.629E-01
RMM:   3    -0.413169313642E+03   -0.31292E-02   -0.97861E-03  5141   0.681E-02    0.307E-01
RMM:   4    -0.413192792342E+03   -0.23479E-01   -0.38703E-02  5110   0.166E-01    0.690E-01
RMM:   5    -0.413165463644E+03    0.27329E-01   -0.11412E-02  4726   0.114E-01    0.522E-02
RMM:   6    -0.413165499216E+03   -0.35572E-04   -0.19227E-03  5559   0.433E-02    0.171E-02
RMM:   7    -0.413165517614E+03   -0.18398E-04   -0.27148E-04  6039   0.144E-02    0.121E-02
RMM:   8    -0.413165517909E+03   -0.29468E-06   -0.34688E-05  4638   0.539E-03    0.733E-03
RMM:   9    -0.413165514066E+03    0.38422E-05   -0.68760E-06  3058   0.359E-03    0.356E-03
RMM:  10    -0.413165512810E+03    0.12568E-05   -0.17777E-06  2547   0.211E-03    0.210E-03
RMM:  11    -0.413165511314E+03    0.14960E-05   -0.97385E-07  2530   0.155E-03    0.989E-04
RMM:  12    -0.413165510359E+03    0.95430E-06   -0.45142E-07  2153   0.105E-03
   10 T=    61. E= -.41286628E+03 F= -.41316551E+03 E0= -.41314312E+03  EK= 0.29923E+00 SP= 0.00E+00 SK= 0.00E+00
       N       E                     dE             d eps       ncg     rms          rms(c)
RMM:   1    -0.413156653371E+03    0.88579E-02   -0.11156E+01  4288   0.735E-01    0.885E-01
RMM:   2    -0.413167644760E+03   -0.10991E-01   -0.13622E-01  4186   0.954E-02    0.634E-01
RMM:   3    -0.413166609614E+03    0.10351E-02   -0.62484E-03  4903   0.386E-02    0.168E-01
RMM:   4    -0.413197892015E+03   -0.31282E-01   -0.32039E-02  5152   0.148E-01    0.738E-01
RMM:   5    -0.413166010759E+03    0.31881E-01   -0.15630E-02  4808   0.123E-01    0.363E-02
RMM:   6    -0.413166201510E+03   -0.19075E-03   -0.25011E-03  5796   0.477E-02    0.176E-02
RMM:   7    -0.413166217346E+03   -0.15836E-04   -0.28868E-04  5874   0.139E-02    0.134E-02
RMM:   8    -0.413166219501E+03   -0.21546E-05   -0.36952E-05  4439   0.532E-03    0.875E-03
RMM:   9    -0.413166219877E+03   -0.37592E-06   -0.61201E-06  2980   0.281E-03
   11 T=    61. E= -.41286652E+03 F= -.41316622E+03 E0= -.41314386E+03  EK= 0.29970E+00 SP= 0.00E+00 SK= 0.00E+00
       N       E                     dE             d eps       ncg     rms          rms(c)
RMM:   1    -0.413156651983E+03    0.95675E-02   -0.11237E+01  4296   0.743E-01    0.896E-01
RMM:   2    -0.413167249316E+03   -0.10597E-01   -0.13803E-01  4283   0.984E-02    0.641E-01
RMM:   3    -0.413170098070E+03   -0.28488E-02   -0.96249E-03  5150   0.683E-02    0.312E-01
RMM:   4    -0.413196629370E+03   -0.26531E-01   -0.43292E-02  5111   0.175E-01    0.727E-01
RMM:   5    -0.413165917742E+03    0.30712E-01   -0.12806E-02  4721   0.120E-01    0.534E-02
RMM:   6    -0.413165974279E+03   -0.56538E-04   -0.21802E-03  5584   0.458E-02    0.152E-02
RMM:   7    -0.413165999299E+03   -0.25019E-04   -0.29933E-04  6032   0.149E-02    0.115E-02
RMM:   8    -0.413166002549E+03   -0.32501E-05   -0.37848E-05  4689   0.549E-03    0.714E-03
RMM:   9    -0.413166004803E+03   -0.22544E-05   -0.71609E-06  3130   0.365E-03    0.375E-03
RMM:  10    -0.413166006446E+03   -0.16433E-05   -0.19804E-06  2552   0.218E-03    0.225E-03
RMM:  11    -0.413166008040E+03   -0.15938E-05   -0.11487E-06  2542   0.162E-03    0.104E-03
RMM:  12    -0.413166008750E+03   -0.70929E-06   -0.50520E-07  2271   0.110E-03
   12 T=    61. E= -.41286603E+03 F= -.41316601E+03 E0= -.41314368E+03  EK= 0.29998E+00 SP= 0.00E+00 SK= 0.00E+00
       N       E                     dE             d eps       ncg     rms          rms(c)
RMM:   1    -0.413157729461E+03    0.82786E-02   -0.11265E+01  4299   0.747E-01    0.915E-01
RMM:   2    -0.413167501678E+03   -0.97722E-02   -0.13476E-01  4201   0.931E-02    0.632E-01
RMM:   3    -0.413167078869E+03    0.42281E-03   -0.68494E-03  4973   0.371E-02    0.177E-01
RMM:   4    -0.413200950308E+03   -0.33871E-01   -0.34743E-02  5151   0.155E-01    0.765E-01
RMM:   5    -0.413166548699E+03    0.34402E-01   -0.16825E-02  4797   0.128E-01    0.395E-02
RMM:   6    -0.413166746638E+03   -0.19794E-03   -0.26845E-03  5800   0.496E-02    0.198E-02
RMM:   7    -0.413166758871E+03   -0.12234E-04   -0.30981E-04  5873   0.145E-02    0.145E-02
RMM:   8    -0.413166757150E+03    0.17211E-05   -0.40230E-05  4507   0.556E-03    0.939E-03
RMM:   9    -0.413166752614E+03    0.45364E-05   -0.65691E-06  3013   0.288E-03    0.634E-03
RMM:  10    -0.413166748386E+03    0.42276E-05   -0.22325E-06  2561   0.220E-03    0.315E-03
RMM:  11    -0.413166745109E+03    0.32770E-05   -0.16217E-06  2539   0.191E-03    0.153E-03
RMM:  12    -0.413166742522E+03    0.25876E-05   -0.80922E-07  2447   0.144E-03    0.502E-04
RMM:  13    -0.413166741656E+03    0.86591E-06   -0.34334E-07  2127   0.978E-04
   13 T=    61. E= -.41286621E+03 F= -.41316674E+03 E0= -.41314444E+03  EK= 0.30053E+00 SP= 0.00E+00 SK= 0.00E+00
       N       E                     dE             d eps       ncg     rms          rms(c)
RMM:   1    -0.413158251186E+03    0.84913E-02   -0.11183E+01  4295   0.759E-01    0.889E-01
RMM:   2    -0.413168326375E+03   -0.10075E-01   -0.13655E-01  4215   0.964E-02    0.632E-01
RMM:   3    -0.413167523745E+03    0.80263E-03   -0.63167E-03  4867   0.361E-02    0.167E-01
RMM:   4    -0.413194798886E+03   -0.27275E-01   -0.27845E-02  5143   0.139E-01    0.690E-01
RMM:   5    -0.413167023083E+03    0.27776E-01   -0.13626E-02  4806   0.114E-01    0.340E-02
RMM:   6    -0.413167189305E+03   -0.16622E-03   -0.21763E-03  5807   0.443E-02    0.173E-02
RMM:   7    -0.413167199797E+03   -0.10492E-04   -0.24544E-04  5809   0.131E-02    0.129E-02
RMM:   8    -0.413167199850E+03   -0.52987E-07   -0.32404E-05  4357   0.511E-03    0.835E-03
RMM:   9    -0.413167198144E+03    0.17064E-05   -0.53695E-06  2904   0.275E-03    0.569E-03
RMM:  10    -0.413167197250E+03    0.89395E-06   -0.19311E-06  2547   0.207E-03
   14 T=    61. E= -.41286625E+03 F= -.41316720E+03 E0= -.41314493E+03  EK= 0.30095E+00 SP= 0.00E+00 SK= 0.00E+00
       N       E                     dE             d eps       ncg     rms          rms(c)
RMM:   1    -0.413157790009E+03    0.94081E-02   -0.11266E+01  4306   0.756E-01    0.892E-01
RMM:   2    -0.413169132000E+03   -0.11342E-01   -0.13916E-01  4292   0.991E-02    0.643E-01
RMM:   3    -0.413170776963E+03   -0.16450E-02   -0.88785E-03  5126   0.643E-02    0.288E-01
RMM:   4    -0.413203137823E+03   -0.32361E-01   -0.46679E-02  5112   0.181E-01    0.782E-01
RMM:   5    -0.413167379008E+03    0.35759E-01   -0.15428E-02  4742   0.129E-01    0.509E-02
RMM:   6    -0.413167478638E+03   -0.99630E-04   -0.24959E-03  5641   0.491E-02    0.144E-02
RMM:   7    -0.413167505700E+03   -0.27062E-04   -0.32035E-04  6014   0.150E-02    0.116E-02
RMM:   8    -0.413167509170E+03   -0.34701E-05   -0.39736E-05  4642   0.553E-03    0.699E-03
RMM:   9    -0.413167510861E+03   -0.16906E-05   -0.61585E-06  2879   0.318E-03    0.340E-03
RMM:  10    -0.413167512579E+03   -0.17185E-05   -0.22704E-06  2562   0.212E-03    0.198E-03
RMM:  11    -0.413167513797E+03   -0.12178E-05   -0.10305E-06  2532   0.147E-03    0.867E-04
RMM:  12    -0.413167514388E+03   -0.59065E-06   -0.50400E-07  1958   0.104E-03
   15 T=    61. E= -.41286623E+03 F= -.41316751E+03 E0= -.41314528E+03  EK= 0.30128E+00 SP= 0.00E+00 SK= 0.00E+00
       N       E                     dE             d eps       ncg     rms          rms(c)
RMM:   1    -0.413159495810E+03    0.80180E-02   -0.11310E+01  4304   0.766E-01    0.916E-01
RMM:   2    -0.413169363149E+03   -0.98673E-02   -0.13612E-01  4243   0.100E-01    0.635E-01
RMM:   3    -0.413168784817E+03    0.57833E-03   -0.68256E-03  4919   0.394E-02    0.175E-01
RMM:   4    -0.413201608139E+03   -0.32823E-01   -0.33645E-02  5147   0.152E-01    0.754E-01
RMM:   5    -0.413168195972E+03    0.33412E-01   -0.16295E-02  4802   0.126E-01    0.385E-02
RMM:   6    -0.413168390069E+03   -0.19410E-03   -0.26406E-03  5807   0.488E-02    0.194E-02
RMM:   7    -0.413168400700E+03   -0.10631E-04   -0.29944E-04  5876   0.144E-02    0.143E-02
RMM:   8    -0.413168397993E+03    0.27071E-05   -0.39155E-05  4528   0.554E-03    0.943E-03
RMM:   9    -0.413168392543E+03    0.54502E-05   -0.63551E-06  2984   0.288E-03    0.641E-03
RMM:  10    -0.413168387446E+03    0.50976E-05   -0.21593E-06  2552   0.221E-03    0.323E-03
RMM:  11    -0.413168383316E+03    0.41300E-05   -0.16587E-06  2536   0.193E-03    0.157E-03
RMM:  12    -0.413168380349E+03    0.29669E-05   -0.77591E-07  2445   0.143E-03    0.527E-04
RMM:  13    -0.413168379300E+03    0.10492E-05   -0.33668E-07  2121   0.973E-04    0.326E-04
RMM:  14    -0.413168377873E+03    0.14267E-05   -0.20011E-07  1616   0.779E-04    0.183E-04
RMM:  15    -0.413168375362E+03    0.25103E-05   -0.19579E-07  1575   0.756E-04    0.157E-04
RMM:  16    -0.413168374774E+03    0.58803E-06   -0.77662E-08  1057   0.614E-04
   16 T=    61. E= -.41286646E+03 F= -.41316837E+03 E0= -.41314618E+03  EK= 0.30192E+00 SP= 0.00E+00 SK= 0.00E+00
       N       E                     dE             d eps       ncg     rms          rms(c)
RMM:   1    -0.413159439660E+03    0.89357E-02   -0.11224E+01  4294   0.761E-01    0.896E-01
RMM:   2    -0.413169952336E+03   -0.10513E-01   -0.13684E-01  4245   0.984E-02    0.631E-01
RMM:   3    -0.413169093565E+03    0.85877E-03   -0.64900E-03  4895   0.414E-02    0.176E-01
RMM:   4    -0.413203540853E+03   -0.34447E-01   -0.35364E-02  5145   0.156E-01    0.771E-01
RMM:   5    -0.413168570056E+03    0.34971E-01   -0.17189E-02  4796   0.129E-01    0.386E-02
RMM:   6    -0.413168769683E+03   -0.19963E-03   -0.27369E-03  5792   0.497E-02    0.189E-02
RMM:   7    -0.413168782528E+03   -0.12845E-04   -0.31127E-04  5867   0.147E-02    0.141E-02
RMM:   8    -0.413168781112E+03    0.14161E-05   -0.40160E-05  4504   0.551E-03    0.919E-03
RMM:   9    -0.413168777298E+03    0.38140E-05   -0.65857E-06  3010   0.285E-03    0.629E-03
RMM:  10    -0.413168773970E+03    0.33278E-05   -0.21694E-06  2551   0.220E-03    0.312E-03
RMM:  11    -0.413168771538E+03    0.24326E-05   -0.15783E-06  2531   0.190E-03    0.154E-03
RMM:  12    -0.413168769629E+03    0.19087E-05   -0.76687E-07  2444   0.142E-03    0.516E-04
RMM:  13    -0.413168768943E+03    0.68558E-06   -0.33600E-07  2125   0.974E-04
   17 T=    62. E= -.41286628E+03 F= -.41316877E+03 E0= -.41314661E+03  EK= 0.30249E+00 SP= 0.00E+00 SK= 0.00E+00
       N       E                     dE             d eps       ncg     rms          rms(c)
RMM:   1    -0.413159618593E+03    0.91510E-02   -0.11304E+01  4296   0.769E-01    0.890E-01
RMM:   2    -0.413171009601E+03   -0.11391E-01   -0.13954E-01  4252   0.100E-01    0.644E-01
RMM:   3    -0.413169713683E+03    0.12959E-02   -0.63106E-03  4911   0.385E-02    0.171E-01
RMM:   4    -0.413203074728E+03   -0.33361E-01   -0.34397E-02  5148   0.154E-01    0.760E-01
RMM:   5    -0.413169105443E+03    0.33969E-01   -0.16694E-02  4800   0.127E-01    0.373E-02
RMM:   6    -0.413169305052E+03   -0.19961E-03   -0.26616E-03  5802   0.490E-02    0.177E-02
RMM:   7    -0.413169320530E+03   -0.15478E-04   -0.29947E-04  5858   0.144E-02    0.135E-02
RMM:   8    -0.413169321796E+03   -0.12655E-05   -0.39437E-05  4495   0.547E-03    0.885E-03
RMM:   9    -0.413169320638E+03    0.11578E-05   -0.64876E-06  3005   0.288E-03    0.605E-03
RMM:  10    -0.413169321053E+03   -0.41503E-06   -0.22581E-06  2562   0.220E-03
   18 T=    62. E= -.41286613E+03 F= -.41316932E+03 E0= -.41314720E+03  EK= 0.30319E+00 SP= 0.00E+00 SK= 0.00E+00
       N       E                     dE             d eps       ncg     rms          rms(c)
RMM:   1    -0.413161275284E+03    0.80454E-02   -0.11366E+01  4304   0.772E-01    0.915E-01
RMM:   2    -0.413171361639E+03   -0.10086E-01   -0.13819E-01  4309   0.983E-02    0.639E-01
RMM:   3    -0.413174389501E+03   -0.30279E-02   -0.97747E-03  5129   0.677E-02    0.312E-01
RMM:   4    -0.413199284848E+03   -0.24895E-01   -0.41250E-02  5093   0.171E-01    0.708E-01
RMM:   5    -0.413170298949E+03    0.28986E-01   -0.12067E-02  4703   0.117E-01    0.500E-02
RMM:   6    -0.413170359198E+03   -0.60249E-04   -0.20455E-03  5588   0.439E-02    0.163E-02
RMM:   7    -0.413170374123E+03   -0.14925E-04   -0.26456E-04  6005   0.139E-02    0.116E-02
RMM:   8    -0.413170372622E+03    0.15012E-05   -0.33432E-05  4526   0.528E-03    0.692E-03
RMM:   9    -0.413170365694E+03    0.69281E-05   -0.57351E-06  2834   0.324E-03    0.326E-03
RMM:  10    -0.413170362205E+03    0.34881E-05   -0.18167E-06  2538   0.201E-03    0.186E-03
RMM:  11    -0.413170358552E+03    0.36532E-05   -0.85531E-07  2513   0.144E-03    0.889E-04
RMM:  12    -0.413170356313E+03    0.22387E-05   -0.43316E-07  1963   0.102E-03    0.454E-04
RMM:  13    -0.413170353534E+03    0.27796E-05   -0.33367E-07  1841   0.902E-04    0.233E-04
RMM:  14    -0.413170352068E+03    0.14657E-05   -0.18068E-07  1404   0.724E-04    0.141E-04
RMM:  15    -0.413170349243E+03    0.28252E-05   -0.19932E-07  1571   0.745E-04    0.101E-04
RMM:  16    -0.413170347493E+03    0.17504E-05   -0.12121E-07  1265   0.648E-04    0.869E-05
RMM:  17    -0.413170345483E+03    0.20097E-05   -0.10326E-07  1250   0.630E-04    0.475E-05
RMM:  18    -0.413170343782E+03    0.17010E-05   -0.68497E-08  1029   0.575E-04    0.265E-05
RMM:  19    -0.413170343394E+03    0.38759E-06   -0.33297E-08   818   0.530E-04
   19 T=    62. E= -.41286619E+03 F= -.41317034E+03 E0= -.41314827E+03  EK= 0.30415E+00 SP= 0.00E+00 SK= 0.00E+00
       N       E                     dE             d eps       ncg     rms          rms(c)
RMM:   1    -0.413163542416E+03    0.68014E-02   -0.11341E+01  4296   0.796E-01    0.906E-01
RMM:   2    -0.413171964789E+03   -0.84224E-02   -0.13594E-01  4246   0.986E-02    0.632E-01
RMM:   3    -0.413171470543E+03    0.49425E-03   -0.67041E-03  4981   0.406E-02    0.185E-01
RMM:   4    -0.413211015346E+03   -0.39545E-01   -0.41560E-02  5146   0.169E-01    0.825E-01
RMM:   5    -0.413170742871E+03    0.40272E-01   -0.19666E-02  4792   0.138E-01    0.426E-02
RMM:   6    -0.413170960357E+03   -0.21749E-03   -0.31349E-03  5790   0.535E-02    0.196E-02
RMM:   7    -0.413170972867E+03   -0.12511E-04   -0.35932E-04  5867   0.155E-02    0.148E-02
RMM:   8    -0.413170970369E+03    0.24982E-05   -0.45564E-05  4619   0.581E-03    0.956E-03
RMM:   9    -0.413170964709E+03    0.56602E-05   -0.73009E-06  3062   0.293E-03    0.642E-03
RMM:  10    -0.413170959091E+03    0.56181E-05   -0.23527E-06  2549   0.226E-03    0.312E-03
RMM:  11    -0.413170955089E+03    0.40015E-05   -0.15120E-06  2519   0.189E-03    0.155E-03
RMM:  12    -0.413170952028E+03    0.30617E-05   -0.76249E-07  2449   0.144E-03    0.506E-04
RMM:  13    -0.413170950925E+03    0.11027E-05   -0.34025E-07  2141   0.992E-04    0.324E-04
RMM:  14    -0.413170949686E+03    0.12388E-05   -0.18548E-07  1630   0.773E-04    0.186E-04
RMM:  15    -0.413170947194E+03    0.24924E-05   -0.16778E-07  1501   0.741E-04    0.134E-04
RMM:  16    -0.413170946679E+03    0.51513E-06   -0.72475E-08  1063   0.618E-04
   20 T=    62. E= -.41286600E+03 F= -.41317095E+03 E0= -.41314891E+03  EK= 0.30494E+00 SP= 0.00E+00 SK= 0.00E+00
       N       E                     dE             d eps       ncg     rms          rms(c)
RMM:   1    -0.413162486674E+03    0.84605E-02   -0.11364E+01  4296   0.788E-01    0.891E-01
RMM:   2    -0.413173353066E+03   -0.10866E-01   -0.14135E-01  4253   0.101E-01    0.644E-01
RMM:   3    -0.413172318292E+03    0.10348E-02   -0.64169E-03  4950   0.399E-02    0.177E-01
RMM:   4    -0.413210286770E+03   -0.37968E-01   -0.39599E-02  5141   0.165E-01    0.809E-01
RMM:   5    -0.413171558491E+03    0.38728E-01   -0.19030E-02  4795   0.135E-01    0.399E-02
RMM:   6    -0.413171775630E+03   -0.21714E-03   -0.30398E-03  5803   0.524E-02    0.183E-02
RMM:   7    -0.413171792166E+03   -0.16536E-04   -0.34265E-04  5864   0.153E-02    0.141E-02
RMM:   8    -0.413171792428E+03   -0.26229E-06   -0.44433E-05  4591   0.575E-03    0.931E-03
RMM:   9    -0.413171789984E+03    0.24435E-05   -0.71842E-06  3049   0.294E-03    0.644E-03
RMM:  10    -0.413171788803E+03    0.11820E-05   -0.24097E-06  2566   0.229E-03    0.320E-03
RMM:  11    -0.413171788116E+03    0.68674E-06   -0.16936E-06  2536   0.195E-03
   21 T=    62. E= -.41286606E+03 F= -.41317179E+03 E0= -.41314980E+03  EK= 0.30573E+00 SP= 0.00E+00 SK= 0.00E+00
       N       E                     dE             d eps       ncg     rms          rms(c)
RMM:   1    -0.413163375898E+03    0.84129E-02   -0.11435E+01  4298   0.785E-01    0.912E-01
RMM:   2    -0.413174136685E+03   -0.10761E-01   -0.14007E-01  4273   0.989E-02    0.643E-01
RMM:   3    -0.413174162756E+03   -0.26072E-04   -0.72435E-03  5046   0.484E-02    0.214E-01
RMM:   4    -0.413219623899E+03   -0.45461E-01   -0.51108E-02  5129   0.187E-01    0.888E-01
RMM:   5    -0.413172787895E+03    0.46836E-01   -0.22304E-02  4783   0.149E-01    0.472E-02
RMM:   6    -0.413173004678E+03   -0.21678E-03   -0.35072E-03  5755   0.572E-02    0.188E-02
RMM:   7    -0.413173025712E+03   -0.21034E-04   -0.41884E-04  5952   0.167E-02    0.151E-02
RMM:   8    -0.413173024120E+03    0.15923E-05   -0.51808E-05  4788   0.613E-03    0.962E-03
RMM:   9    -0.413173018656E+03    0.54641E-05   -0.77984E-06  3076   0.300E-03    0.602E-03
RMM:  10    -0.413173013428E+03    0.52282E-05   -0.26472E-06  2568   0.234E-03    0.284E-03
RMM:  11    -0.413173009511E+03    0.39167E-05   -0.14048E-06  2515   0.182E-03    0.137E-03
RMM:  12    -0.413173006368E+03    0.31428E-05   -0.75708E-07  2453   0.139E-03    0.448E-04
RMM:  13    -0.413173004707E+03    0.16611E-05   -0.33471E-07  2096   0.970E-04    0.300E-04
RMM:  14    -0.413173002314E+03    0.23934E-05   -0.22173E-07  1660   0.799E-04    0.196E-04
RMM:  15    -0.413173000071E+03    0.22422E-05   -0.15253E-07  1444   0.714E-04    0.109E-04
RMM:  16    -0.413172999201E+03    0.87035E-06   -0.80892E-08  1124   0.625E-04
   22 T=    62. E= -.41286647E+03 F= -.41317300E+03 E0= -.41315106E+03  EK= 0.30653E+00 SP= 0.00E+00 SK= 0.00E+00
       N       E                     dE             d eps       ncg     rms          rms(c)
RMM:   1    -0.413164443347E+03    0.85567E-02   -0.11426E+01  4295   0.791E-01    0.915E-01
RMM:   2    -0.413174594010E+03   -0.10151E-01   -0.13850E-01  4271   0.108E-01    0.635E-01
RMM:   3    -0.413174086544E+03    0.50747E-03   -0.68049E-03  4894   0.432E-02    0.183E-01
RMM:   4    -0.413210784647E+03   -0.36698E-01   -0.37902E-02  5147   0.162E-01    0.796E-01
RMM:   5    -0.413173428858E+03    0.37356E-01   -0.18316E-02  4797   0.133E-01    0.403E-02
RMM:   6    -0.413173627088E+03   -0.19823E-03   -0.29415E-03  5807   0.516E-02    0.202E-02
RMM:   7    -0.413173635780E+03   -0.86916E-05   -0.32379E-04  5870   0.151E-02    0.148E-02
RMM:   8    -0.413173631764E+03    0.40152E-05   -0.43427E-05  4658   0.582E-03    0.983E-03
RMM:   9    -0.413173624204E+03    0.75606E-05   -0.70749E-06  3053   0.301E-03    0.664E-03
RMM:  10    -0.413173616536E+03    0.76680E-05   -0.22950E-06  2557   0.230E-03    0.334E-03
RMM:  11    -0.413173610204E+03    0.63315E-05   -0.16517E-06  2526   0.198E-03    0.165E-03
RMM:  12    -0.413173605626E+03    0.45785E-05   -0.79260E-07  2455   0.148E-03    0.546E-04
RMM:  13    -0.413173604130E+03    0.14956E-05   -0.34980E-07  2152   0.101E-03    0.351E-04
RMM:  14    -0.413173602470E+03    0.16601E-05   -0.18575E-07  1635   0.776E-04    0.205E-04
RMM:  15    -0.413173598367E+03    0.41027E-05   -0.18659E-07  1708   0.773E-04    0.194E-04
RMM:  16    -0.413173597735E+03    0.63227E-06   -0.70601E-08  1036   0.604E-04
   23 T=    63. E= -.41286623E+03 F= -.41317360E+03 E0= -.41315170E+03  EK= 0.30737E+00 SP= 0.00E+00 SK= 0.00E+00
       N       E                     dE             d eps       ncg     rms          rms(c)
RMM:   1    -0.413165298354E+03    0.83000E-02   -0.11417E+01  4293   0.794E-01    0.894E-01
RMM:   2    -0.413176772717E+03   -0.11474E-01   -0.14188E-01  4271   0.104E-01    0.643E-01
RMM:   3    -0.413175446217E+03    0.13265E-02   -0.62660E-03  4791   0.407E-02    0.170E-01
RMM:   4    -0.413203072497E+03   -0.27626E-01   -0.28062E-02  5151   0.139E-01    0.692E-01
RMM:   5    -0.413175042774E+03    0.28030E-01   -0.13883E-02  4802   0.115E-01    0.334E-02
RMM:   6    -0.413175199613E+03   -0.15684E-03   -0.22225E-03  5807   0.443E-02    0.173E-02
RMM:   7    -0.413175209184E+03   -0.95702E-05   -0.23177E-04  5765   0.129E-02    0.123E-02
RMM:   8    -0.413175208451E+03    0.73237E-06   -0.33386E-05  4460   0.516E-03    0.869E-03
RMM:   9    -0.413175204147E+03    0.43038E-05   -0.61399E-06  3035   0.292E-03    0.589E-03
RMM:  10    -0.413175201363E+03    0.27847E-05   -0.18847E-06  2541   0.212E-03    0.308E-03
RMM:  11    -0.413175199139E+03    0.22238E-05   -0.15333E-06  2524   0.189E-03    0.157E-03
RMM:  12    -0.413175197292E+03    0.18472E-05   -0.71213E-07  2432   0.139E-03    0.552E-04
RMM:  13    -0.413175196648E+03    0.64417E-06   -0.29871E-07  2050   0.935E-04
   24 T=    63. E= -.41286654E+03 F= -.41317520E+03 E0= -.41315335E+03  EK= 0.30866E+00 SP= 0.00E+00 SK= 0.00E+00
       N       E                     dE             d eps       ncg     rms          rms(c)
RMM:   1    -0.413166493738E+03    0.87036E-02   -0.11533E+01  4296   0.803E-01    0.909E-01
RMM:   2    -0.413177800297E+03   -0.11307E-01   -0.14188E-01  4272   0.107E-01    0.648E-01
RMM:   3    -0.413176469145E+03    0.13312E-02   -0.64405E-03  4831   0.415E-02    0.174E-01
RMM:   4    -0.413206732798E+03   -0.30264E-01   -0.30688E-02  5146   0.146E-01    0.723E-01
RMM:   5    -0.413176053389E+03    0.30679E-01   -0.15221E-02  4803   0.120E-01    0.346E-02
RMM:   6    -0.413176212202E+03   -0.15881E-03   -0.23339E-03  5814   0.464E-02    0.180E-02
RMM:   7    -0.413176221097E+03   -0.88951E-05   -0.24998E-04  5799   0.134E-02    0.127E-02
RMM:   8    -0.413176219222E+03    0.18751E-05   -0.35896E-05  4532   0.533E-03    0.900E-03
RMM:   9    -0.413176213739E+03    0.54831E-05   -0.65157E-06  3064   0.297E-03    0.605E-03
RMM:  10    -0.413176209288E+03    0.44503E-05   -0.20084E-06  2548   0.220E-03    0.310E-03
RMM:  11    -0.413176205521E+03    0.37675E-05   -0.15937E-06  2529   0.193E-03    0.156E-03
RMM:  12    -0.413176202722E+03    0.27987E-05   -0.70952E-07  2431   0.140E-03    0.548E-04
RMM:  13    -0.413176201747E+03    0.97490E-06   -0.30409E-07  2055   0.939E-04
   25 T=    63. E= -.41286635E+03 F= -.41317620E+03 E0= -.41315440E+03  EK= 0.30985E+00 SP= 0.00E+00 SK= 0.00E+00
       N       E                     dE             d eps       ncg     rms          rms(c)
RMM:   1    -0.413168021769E+03    0.81810E-02   -0.11569E+01  4293   0.813E-01    0.925E-01
RMM:   2    -0.413178217038E+03   -0.10195E-01   -0.14095E-01  4271   0.109E-01    0.640E-01
RMM:   3    -0.413177495065E+03    0.72197E-03   -0.66984E-03  4743   0.396E-02    0.174E-01
RMM:   4    -0.413200910880E+03   -0.23416E-01   -0.23607E-02  5150   0.128E-01    0.639E-01
RMM:   5    -0.413177199560E+03    0.23711E-01   -0.11823E-02  4809   0.106E-01    0.326E-02
RMM:   6    -0.413177319816E+03   -0.12026E-03   -0.18621E-03  5820   0.405E-02    0.177E-02
RMM:   7    -0.413177322612E+03   -0.27958E-05   -0.18288E-04  5567   0.116E-02    0.111E-02
RMM:   8    -0.413177316515E+03    0.60971E-05   -0.24329E-05  4013   0.448E-03    0.779E-03
RMM:   9    -0.413177308889E+03    0.76264E-05   -0.59026E-06  3029   0.287E-03    0.528E-03
RMM:  10    -0.413177302602E+03    0.62867E-05   -0.16312E-06  2527   0.208E-03    0.298E-03
RMM:  11    -0.413177294254E+03    0.83479E-05   -0.14523E-06  2521   0.188E-03    0.148E-03
RMM:  12    -0.413177288967E+03    0.52875E-05   -0.60249E-07  2409   0.134E-03    0.558E-04
RMM:  13    -0.413177287190E+03    0.17769E-05   -0.24926E-07  1986   0.892E-04    0.332E-04
RMM:  14    -0.413177284788E+03    0.24018E-05   -0.13615E-07  1468   0.718E-04    0.174E-04
RMM:  15    -0.413177279826E+03    0.49616E-05   -0.15554E-07  1733   0.748E-04    0.247E-04
RMM:  16    -0.413177279000E+03    0.82618E-06   -0.48674E-08   934   0.566E-04
   26 T=    63. E= -.41286603E+03 F= -.41317728E+03 E0= -.41315553E+03  EK= 0.31125E+00 SP= 0.00E+00 SK= 0.00E+00
       N       E                     dE             d eps       ncg     rms          rms(c)
RMM:   1    -0.413169282679E+03    0.79971E-02   -0.11539E+01  4293   0.815E-01    0.900E-01
RMM:   2    -0.413180428978E+03   -0.11146E-01   -0.14253E-01  4270   0.102E-01    0.643E-01
RMM:   3    -0.413179531223E+03    0.89776E-03   -0.63827E-03  4776   0.417E-02    0.175E-01
RMM:   4    -0.413207470483E+03   -0.27939E-01   -0.28217E-02  5151   0.140E-01    0.696E-01
RMM:   5    -0.413179148565E+03    0.28322E-01   -0.14104E-02  4804   0.116E-01    0.336E-02
RMM:   6    -0.413179298250E+03   -0.14969E-03   -0.22168E-03  5817   0.447E-02    0.177E-02
RMM:   7    -0.413179306220E+03   -0.79695E-05   -0.23005E-04  5767   0.129E-02    0.123E-02
RMM:   8    -0.413179303989E+03    0.22308E-05   -0.33928E-05  4487   0.520E-03    0.879E-03
RMM:   9    -0.413179298257E+03    0.57325E-05   -0.63443E-06  3076   0.296E-03    0.595E-03
RMM:  10    -0.413179293541E+03    0.47152E-05   -0.18740E-06  2541   0.216E-03    0.310E-03
RMM:  11    -0.413179289535E+03    0.40068E-05   -0.15017E-06  2520   0.189E-03    0.159E-03
RMM:  12    -0.413179286464E+03    0.30708E-05   -0.68335E-07  2430   0.138E-03    0.539E-04
RMM:  13    -0.413179285458E+03    0.10055E-05   -0.28623E-07  2047   0.923E-04    0.334E-04
RMM:  14    -0.413179284253E+03    0.12052E-05   -0.14644E-07  1475   0.728E-04    0.188E-04
RMM:  15    -0.413179281548E+03    0.27052E-05   -0.14528E-07  1606   0.734E-04    0.190E-04
RMM:  16    -0.413179280917E+03    0.63093E-06   -0.53305E-08   953   0.587E-04
   27 T=    64. E= -.41286633E+03 F= -.41317928E+03 E0= -.41315758E+03  EK= 0.31295E+00 SP= 0.00E+00 SK= 0.00E+00
       N       E                     dE             d eps       ncg     rms          rms(c)
RMM:   1    -0.413171229402E+03    0.80521E-02   -0.11681E+01  4293   0.836E-01    0.908E-01
RMM:   2    -0.413181571245E+03   -0.10342E-01   -0.14646E-01  4272   0.110E-01    0.655E-01
RMM:   3    -0.413180451688E+03    0.11196E-02   -0.64784E-03  4656   0.438E-02    0.171E-01
RMM:   4    -0.413202357222E+03   -0.21906E-01   -0.22215E-02  5155   0.125E-01    0.620E-01
RMM:   5    -0.413180025476E+03    0.22332E-01   -0.11089E-02  4807   0.103E-01    0.298E-02
RMM:   6    -0.413180136333E+03   -0.11086E-03   -0.17465E-03  5832   0.393E-02    0.161E-02
RMM:   7    -0.413180141952E+03   -0.56188E-05   -0.16909E-04  5576   0.112E-02    0.105E-02
RMM:   8    -0.413180139734E+03    0.22174E-05   -0.24299E-05  4117   0.453E-03    0.759E-03
RMM:   9    -0.413180135045E+03    0.46892E-05   -0.58372E-06  3052   0.289E-03    0.518E-03
RMM:  10    -0.413180131820E+03    0.32253E-05   -0.15757E-06  2521   0.205E-03    0.286E-03
RMM:  11    -0.413180128175E+03    0.36444E-05   -0.14260E-06  2523   0.182E-03    0.147E-03
RMM:  12    -0.413180125491E+03    0.26845E-05   -0.58532E-07  2394   0.130E-03    0.535E-04
RMM:  13    -0.413180124619E+03    0.87174E-06   -0.23569E-07  1923   0.863E-04
   28 T=    64. E= -.41286574E+03 F= -.41318012E+03 E0= -.41315848E+03  EK= 0.31438E+00 SP= 0.00E+00 SK= 0.00E+00
       N       E                     dE             d eps       ncg     rms          rms(c)
RMM:   1    -0.413173036611E+03    0.70889E-02   -0.11752E+01  4292   0.840E-01    0.933E-01
RMM:   2    -0.413183383962E+03   -0.10347E-01   -0.14414E-01  4272   0.111E-01    0.647E-01
RMM:   3    -0.413182568891E+03    0.81507E-03   -0.68556E-03  4520   0.430E-02    0.174E-01
RMM:   4    -0.413195860844E+03   -0.13292E-01   -0.13353E-02  5162   0.974E-02    0.482E-01
RMM:   5    -0.413182519350E+03    0.13341E-01   -0.66707E-03  4829   0.790E-02    0.267E-02
RMM:   6    -0.413182569379E+03   -0.50029E-04   -0.10527E-03  5857   0.300E-02    0.160E-02
RMM:   7    -0.413182569368E+03    0.10950E-07   -0.11035E-04  5479   0.952E-03    0.105E-02
RMM:   8    -0.413182560905E+03    0.84635E-05   -0.16899E-05  3935   0.424E-03    0.625E-03
RMM:   9    -0.413182554215E+03    0.66897E-05   -0.36305E-06  2759   0.262E-03    0.409E-03
RMM:  10    -0.413182547130E+03    0.70853E-05   -0.10127E-06  2503   0.170E-03    0.228E-03
RMM:  11    -0.413182539752E+03    0.73777E-05   -0.86304E-07  2487   0.147E-03    0.114E-03
RMM:  12    -0.413182533689E+03    0.60632E-05   -0.44165E-07  2299   0.112E-03    0.406E-04
RMM:  13    -0.413182532073E+03    0.16153E-05   -0.17684E-07  1571   0.765E-04    0.241E-04
RMM:  14    -0.413182529520E+03    0.25530E-05   -0.10479E-07  1238   0.674E-04    0.139E-04
RMM:  15    -0.413182524780E+03    0.47400E-05   -0.10180E-07  1375   0.688E-04    0.139E-04
RMM:  16    -0.413182523830E+03    0.95019E-06   -0.43941E-08   923   0.582E-04
   29 T=    64. E= -.41286627E+03 F= -.41318252E+03 E0= -.41316093E+03  EK= 0.31625E+00 SP= 0.00E+00 SK= 0.00E+00
       N       E                     dE             d eps       ncg     rms          rms(c)
RMM:   1    -0.413174425827E+03    0.80990E-02   -0.11711E+01  4292   0.848E-01    0.911E-01
RMM:   2    -0.413185388805E+03   -0.10963E-01   -0.14660E-01  4264   0.109E-01    0.646E-01
RMM:   3    -0.413184247871E+03    0.11409E-02   -0.64864E-03  4425   0.435E-02    0.171E-01
RMM:   4    -0.413190944357E+03   -0.66965E-02   -0.72299E-03  5142   0.746E-02    0.346E-01
RMM:   5    -0.413184149686E+03    0.67947E-02   -0.33414E-03  4823   0.564E-02    0.212E-02
RMM:   6    -0.413184162165E+03   -0.12478E-04   -0.52013E-04  5832   0.217E-02    0.144E-02
RMM:   7    -0.413184158668E+03    0.34966E-05   -0.68967E-05  5239   0.809E-03    0.854E-03
RMM:   8    -0.413184151240E+03    0.74281E-05   -0.82595E-06  3138   0.353E-03    0.401E-03
RMM:   9    -0.413184146779E+03    0.44609E-05   -0.18118E-06  2575   0.206E-03    0.250E-03
RMM:  10    -0.413184142015E+03    0.47640E-05   -0.73050E-07  2449   0.138E-03    0.143E-03
RMM:  11    -0.413184137355E+03    0.46601E-05   -0.48734E-07  2285   0.112E-03    0.570E-04
RMM:  12    -0.413184134009E+03    0.33465E-05   -0.25901E-07  1789   0.867E-04    0.209E-04
RMM:  13    -0.413184131917E+03    0.20911E-05   -0.13811E-07  1297   0.706E-04    0.130E-04
RMM:  14    -0.413184128992E+03    0.29251E-05   -0.10862E-07  1299   0.685E-04    0.820E-05
RMM:  15    -0.413184126286E+03    0.27060E-05   -0.87868E-08  1300   0.650E-04    0.803E-05
RMM:  16    -0.413184124868E+03    0.14181E-05   -0.51322E-08   993   0.578E-04    0.487E-05
RMM:  17    -0.413184122274E+03    0.25941E-05   -0.56146E-08  1107   0.593E-04    0.237E-05
RMM:  18    -0.413184121862E+03    0.41244E-06   -0.21952E-08   744   0.522E-04
   30 T=    65. E= -.41286632E+03 F= -.41318412E+03 E0= -.41316257E+03  EK= 0.31780E+00 SP= 0.00E+00 SK= 0.00E+00
       N       E                     dE             d eps       ncg     rms          rms(c)
RMM:   1    -0.413184402364E+03   -0.28009E-03   -0.11916E+01  4292   0.915E-01    0.911E-01
RMM:   2    -0.413188007295E+03   -0.36049E-02   -0.15053E-01  4271   0.123E-01    0.660E-01
RMM:   3    -0.413185941746E+03    0.20655E-02   -0.63511E-03  4322   0.408E-02    0.165E-01
RMM:   4    -0.413188545710E+03   -0.26040E-02   -0.33636E-03  5133   0.493E-02    0.215E-01
RMM:   5    -0.413185934653E+03    0.26111E-02   -0.12805E-03  4814   0.352E-02    0.176E-02
RMM:   6    -0.413185933381E+03    0.12717E-05   -0.22057E-04  5699   0.147E-02    0.130E-02
RMM:   7    -0.413185930562E+03    0.28191E-05   -0.37634E-05  4740   0.642E-03    0.584E-03
RMM:   8    -0.413185926050E+03    0.45121E-05   -0.57178E-06  2984   0.309E-03    0.289E-03
RMM:   9    -0.413185924462E+03    0.15878E-05   -0.87605E-07  2490   0.166E-03    0.175E-03
RMM:  10    -0.413185921669E+03    0.27928E-05   -0.55526E-07  2281   0.115E-03    0.972E-04
RMM:  11    -0.413185919356E+03    0.23131E-05   -0.33375E-07  1846   0.908E-04    0.393E-04
RMM:  12    -0.413185917209E+03    0.21475E-05   -0.21456E-07  1597   0.784E-04    0.183E-04
RMM:  13    -0.413185915558E+03    0.16503E-05   -0.12750E-07  1245   0.681E-04    0.104E-04
RMM:  14    -0.413185913960E+03    0.15987E-05   -0.86747E-08  1102   0.635E-04    0.590E-05
RMM:  15    -0.413185911742E+03    0.22178E-05   -0.84937E-08  1197   0.635E-04    0.491E-05
RMM:  16    -0.413185910730E+03    0.10121E-05   -0.40973E-08   853   0.566E-04    0.287E-05
RMM:  17    -0.413185909657E+03    0.10726E-05   -0.31353E-08   817   0.557E-04    0.172E-05
RMM:  18    -0.413185909206E+03    0.45158E-06   -0.16996E-08   680   0.536E-04
   31 T=    65. E= -.41286645E+03 F= -.41318591E+03 E0= -.41316441E+03  EK= 0.31946E+00 SP= 0.00E+00 SK= 0.00E+00
       N       E                     dE             d eps       ncg     rms          rms(c)
RMM:   1    -0.413183758077E+03    0.21516E-02   -0.11988E+01  4289   0.928E-01    0.938E-01
RMM:   2    -0.413189676149E+03   -0.59181E-02   -0.15143E-01  4264   0.119E-01    0.655E-01
RMM:   3    -0.413188492637E+03    0.11835E-02   -0.68428E-03  4171   0.467E-02    0.175E-01
RMM:   4    -0.413188666371E+03   -0.17373E-03   -0.10672E-03  4693   0.285E-02    0.398E-02
RMM:   5    -0.413188600483E+03    0.65887E-04   -0.65958E-05  4745   0.897E-03    0.232E-02
RMM:   6    -0.413188582121E+03    0.18362E-04   -0.53803E-05  5081   0.787E-03    0.142E-02
RMM:   7    -0.413188567474E+03    0.14646E-04   -0.20430E-05  3760   0.549E-03    0.395E-03
RMM:   8    -0.413188560951E+03    0.65230E-05   -0.24936E-06  2534   0.252E-03    0.236E-03
RMM:   9    -0.413188558002E+03    0.29496E-05   -0.48986E-07  2222   0.133E-03    0.133E-03
RMM:  10    -0.413188551678E+03    0.63237E-05   -0.29838E-07  1644   0.875E-04    0.515E-04
RMM:  11    -0.413188545705E+03    0.59731E-05   -0.16783E-07  1429   0.726E-04    0.210E-04
RMM:  12    -0.413188542715E+03    0.29901E-05   -0.61250E-08  1041   0.589E-04    0.136E-04
RMM:  13    -0.413188536599E+03    0.61163E-05   -0.82581E-08  1168   0.630E-04    0.842E-05
RMM:  14    -0.413188532566E+03    0.40326E-05   -0.48442E-08   997   0.567E-04    0.605E-05
RMM:  15    -0.413188530701E+03    0.18648E-05   -0.25765E-08   778   0.497E-04    0.518E-05
RMM:  16    -0.413188528328E+03    0.23733E-05   -0.28275E-08   773   0.503E-04    0.256E-05
RMM:  17    -0.413188528202E+03    0.12626E-06   -0.52672E-09   486   0.445E-04
   32 T=    65. E= -.41286686E+03 F= -.41318853E+03 E0= -.41316708E+03  EK= 0.32167E+00 SP= 0.00E+00 SK= 0.00E+00
       N       E                     dE             d eps       ncg     rms          rms(c)
RMM:   1    -0.413189327947E+03   -0.79962E-03   -0.12003E+01  4285   0.937E-01    0.925E-01
RMM:   2    -0.413191912161E+03   -0.25842E-02   -0.15568E-01  4271   0.130E-01    0.651E-01
RMM:   3    -0.413190494235E+03    0.14179E-02   -0.64165E-03  4249   0.393E-02    0.181E-01
RMM:   4    -0.413191336752E+03   -0.84252E-03   -0.17959E-03  5076   0.366E-02    0.126E-01
RMM:   5    -0.413190472526E+03    0.86423E-03   -0.42025E-04  4762   0.211E-02    0.196E-02
RMM:   6    -0.413190461113E+03    0.11413E-04   -0.10803E-04  5442   0.111E-02    0.141E-02
RMM:   7    -0.413190450218E+03    0.10896E-04   -0.25344E-05  4295   0.568E-03    0.480E-03
RMM:   8    -0.413190443063E+03    0.71547E-05   -0.42832E-06  2841   0.291E-03    0.263E-03
RMM:   9    -0.413190439841E+03    0.32220E-05   -0.65106E-07  2418   0.155E-03    0.148E-03
RMM:  10    -0.413190433690E+03    0.61510E-05   -0.41433E-07  2144   0.105E-03    0.716E-04
RMM:  11    -0.413190428764E+03    0.49261E-05   -0.22874E-07  1624   0.802E-04    0.286E-04
RMM:  12    -0.413190424439E+03    0.43249E-05   -0.14034E-07  1355   0.713E-04    0.164E-04
RMM:  13    -0.413190420743E+03    0.36955E-05   -0.88846E-08  1079   0.640E-04    0.903E-05
RMM:  14    -0.413190416241E+03    0.45023E-05   -0.79221E-08  1128   0.633E-04    0.683E-05
RMM:  15    -0.413190412752E+03    0.34886E-05   -0.55092E-08   991   0.587E-04    0.438E-05
RMM:  16    -0.413190410598E+03    0.21547E-05   -0.35328E-08   808   0.545E-04    0.365E-05
RMM:  17    -0.413190409902E+03    0.69573E-06   -0.17499E-08   589   0.503E-04
   33 T=    66. E= -.41286658E+03 F= -.41319041E+03 E0= -.41316901E+03  EK= 0.32383E+00 SP= 0.00E+00 SK= 0.00E+00
       N       E                     dE             d eps       ncg     rms          rms(c)
RMM:   1    -0.413184237887E+03    0.61727E-02   -0.12053E+01  4293   0.919E-01    0.916E-01
RMM:   2    -0.413194636094E+03   -0.10398E-01   -0.15664E-01  4258   0.125E-01    0.664E-01
RMM:   3    -0.413193143778E+03    0.14923E-02   -0.63077E-03  4476   0.444E-02    0.178E-01
RMM:   4    -0.413202534729E+03   -0.93910E-02   -0.97346E-03  5154   0.860E-02    0.408E-01
RMM:   5    -0.413193126911E+03    0.94078E-02   -0.46010E-03  4807   0.668E-02    0.234E-02
RMM:   6    -0.413193117984E+03    0.89266E-05   -0.73533E-04  5823   0.266E-02    0.143E-02
RMM:   7    -0.413193120338E+03   -0.23533E-05   -0.91631E-05  5367   0.910E-03    0.929E-03
RMM:   8    -0.413193114961E+03    0.53768E-05   -0.12460E-05  3620   0.397E-03    0.481E-03
RMM:   9    -0.413193111897E+03    0.30643E-05   -0.25538E-06  2645   0.237E-03    0.279E-03
RMM:  10    -0.413193108486E+03    0.34102E-05   -0.87251E-07  2495   0.151E-03    0.156E-03
RMM:  11    -0.413193104945E+03    0.35417E-05   -0.59718E-07  2400   0.121E-03    0.749E-04
RMM:  12    -0.413193101791E+03    0.31536E-05   -0.35314E-07  2030   0.958E-04    0.275E-04
RMM:  13    -0.413193100495E+03    0.12963E-05   -0.15275E-07  1297   0.716E-04    0.164E-04
RMM:  14    -0.413193098668E+03    0.18263E-05   -0.10700E-07  1133   0.666E-04    0.970E-05
RMM:  15    -0.413193096652E+03    0.20167E-05   -0.84349E-08  1137   0.646E-04    0.548E-05
RMM:  16    -0.413193096043E+03    0.60866E-06   -0.45577E-08   884   0.594E-04
   34 T=    66. E= -.41286669E+03 F= -.41319310E+03 E0= -.41317174E+03  EK= 0.32640E+00 SP= 0.00E+00 SK= 0.00E+00
       N       E                     dE             d eps       ncg     rms          rms(c)
RMM:   1    -0.413186169037E+03    0.69276E-02   -0.12179E+01  4298   0.935E-01    0.941E-01
RMM:   2    -0.413197069359E+03   -0.10900E-01   -0.15824E-01  4257   0.134E-01    0.664E-01
RMM:   3    -0.413195795317E+03    0.12740E-02   -0.65770E-03  4459   0.430E-02    0.183E-01
RMM:   4    -0.413201031825E+03   -0.52365E-02   -0.59744E-03  5153   0.663E-02    0.310E-01
RMM:   5    -0.413195633811E+03    0.53980E-02   -0.27030E-03  4809   0.511E-02    0.226E-02
RMM:   6    -0.413195623236E+03    0.10576E-04   -0.46310E-04  5745   0.210E-02    0.148E-02
RMM:   7    -0.413195618842E+03    0.43933E-05   -0.66441E-05  5086   0.781E-03    0.772E-03
RMM:   8    -0.413195610718E+03    0.81240E-05   -0.91675E-06  3295   0.359E-03    0.374E-03
RMM:   9    -0.413195605735E+03    0.49830E-05   -0.15779E-06  2547   0.201E-03    0.214E-03
RMM:  10    -0.413195599573E+03    0.61621E-05   -0.67224E-07  2437   0.132E-03    0.122E-03
RMM:  11    -0.413195593281E+03    0.62919E-05   -0.42860E-07  2206   0.106E-03    0.500E-04
RMM:  12    -0.413195588166E+03    0.51151E-05   -0.24517E-07  1807   0.852E-04    0.192E-04
RMM:  13    -0.413195585292E+03    0.28740E-05   -0.12717E-07  1233   0.694E-04    0.128E-04
RMM:  14    -0.413195581707E+03    0.35854E-05   -0.93779E-08  1185   0.661E-04    0.742E-05
RMM:  15    -0.413195576641E+03    0.50662E-05   -0.94831E-08  1390   0.673E-04    0.764E-05
RMM:  16    -0.413195575550E+03    0.10909E-05   -0.43396E-08   923   0.573E-04    0.527E-05
RMM:  17    -0.413195572046E+03    0.35041E-05   -0.52768E-08  1173   0.602E-04    0.291E-05
RMM:  18    -0.413195571624E+03    0.42197E-06   -0.19954E-08   716   0.518E-04
   35 T=    67. E= -.41286650E+03 F= -.41319557E+03 E0= -.41317426E+03  EK= 0.32908E+00 SP= 0.00E+00 SK= 0.00E+00
       N       E                     dE             d eps       ncg     rms          rms(c)
RMM:   1    -0.413189303364E+03    0.62687E-02   -0.12231E+01  4298   0.963E-01    0.943E-01
RMM:   2    -0.413198966802E+03   -0.96634E-02   -0.15709E-01  4251   0.119E-01    0.658E-01
RMM:   3    -0.413198137162E+03    0.82964E-03   -0.69137E-03  4837   0.451E-02    0.197E-01
RMM:   4    -0.413230762457E+03   -0.32625E-01   -0.32901E-02  5152   0.152E-01    0.752E-01
RMM:   5    -0.413197785687E+03    0.32977E-01   -0.16581E-02  4795   0.126E-01    0.383E-02
RMM:   6    -0.413197838803E+03   -0.53115E-04   -0.26292E-03  5854   0.480E-02    0.193E-02
RMM:   7    -0.413197851856E+03   -0.13053E-04   -0.26565E-04  5744   0.138E-02    0.131E-02
RMM:   8    -0.413197845315E+03    0.65414E-05   -0.34527E-05  4445   0.532E-03    0.894E-03
RMM:   9    -0.413197839885E+03    0.54296E-05   -0.98441E-06  3542   0.356E-03    0.605E-03
RMM:  10    -0.413197830384E+03    0.95012E-05   -0.23309E-06  2558   0.254E-03    0.287E-03
RMM:  11    -0.413197822931E+03    0.74523E-05   -0.15828E-06  2514   0.198E-03    0.160E-03
RMM:  12    -0.413197815424E+03    0.75072E-05   -0.74683E-07  2456   0.154E-03    0.595E-04
RMM:  13    -0.413197813044E+03    0.23800E-05   -0.30320E-07  2172   0.994E-04    0.426E-04
RMM:  14    -0.413197811115E+03    0.19289E-05   -0.13286E-07  1479   0.728E-04    0.247E-04
RMM:  15    -0.413197804285E+03    0.68303E-05   -0.15253E-07  1920   0.775E-04    0.350E-04
RMM:  16    -0.413197803650E+03    0.63483E-06   -0.41829E-08   916   0.558E-04
   36 T=    67. E= -.41286629E+03 F= -.41319780E+03 E0= -.41317654E+03  EK= 0.33151E+00 SP= 0.00E+00 SK= 0.00E+00
       N       E                     dE             d eps       ncg     rms          rms(c)
RMM:   1    -0.413190591254E+03    0.72130E-02   -0.12283E+01  4300   0.985E-01    0.925E-01
RMM:   2    -0.413202514526E+03   -0.11923E-01   -0.16355E-01  4251   0.134E-01    0.669E-01
RMM:   3    -0.413201145572E+03    0.13690E-02   -0.66178E-03  4807   0.509E-02    0.202E-01
RMM:   4    -0.413241045734E+03   -0.39900E-01   -0.40603E-02  5157   0.169E-01    0.830E-01
RMM:   5    -0.413200530124E+03    0.40516E-01   -0.20407E-02  4795   0.139E-01    0.401E-02
RMM:   6    -0.413200618625E+03   -0.88502E-04   -0.31392E-03  5861   0.528E-02    0.193E-02
RMM:   7    -0.413200636437E+03   -0.17812E-04   -0.31107E-04  5739   0.148E-02    0.131E-02
RMM:   8    -0.413200631891E+03    0.45463E-05   -0.34478E-05  4023   0.500E-03    0.850E-03
RMM:   9    -0.413200627339E+03    0.45517E-05   -0.10014E-05  3481   0.353E-03    0.531E-03
RMM:  10    -0.413200622061E+03    0.52786E-05   -0.27032E-06  2616   0.246E-03    0.281E-03
RMM:  11    -0.413200616036E+03    0.60248E-05   -0.16019E-06  2501   0.202E-03    0.149E-03
RMM:  12    -0.413200611991E+03    0.40443E-05   -0.68613E-07  2453   0.144E-03    0.596E-04
RMM:  13    -0.413200610602E+03    0.13895E-05   -0.28845E-07  2098   0.948E-04    0.393E-04
RMM:  14    -0.413200608729E+03    0.18730E-05   -0.14221E-07  1499   0.734E-04    0.207E-04
RMM:  15    -0.413200604421E+03    0.43082E-05   -0.13883E-07  1643   0.734E-04    0.228E-04
RMM:  16    -0.413200603741E+03    0.67959E-06   -0.49797E-08   962   0.581E-04
   37 T=    68. E= -.41286637E+03 F= -.41320060E+03 E0= -.41317938E+03  EK= 0.33424E+00 SP= 0.00E+00 SK= 0.00E+00
       N       E                     dE             d eps       ncg     rms          rms(c)
RMM:   1    -0.413194825532E+03    0.57789E-02   -0.12464E+01  4307   0.103E+00    0.945E-01
RMM:   2    -0.413205395374E+03   -0.10570E-01   -0.16359E-01  4252   0.129E-01    0.674E-01
RMM:   3    -0.413203804578E+03    0.15908E-02   -0.68539E-03  4771   0.501E-02    0.201E-01
RMM:   4    -0.413237700896E+03   -0.33896E-01   -0.34174E-02  5150   0.154E-01    0.767E-01
RMM:   5    -0.413203345597E+03    0.34355E-01   -0.17410E-02  4805   0.128E-01    0.377E-02
RMM:   6    -0.413203410024E+03   -0.64428E-04   -0.26563E-03  5846   0.485E-02    0.188E-02
RMM:   7    -0.413203425334E+03   -0.15310E-04   -0.27534E-04  5762   0.140E-02    0.130E-02
RMM:   8    -0.413203419708E+03    0.56262E-05   -0.35278E-05  4487   0.535E-03    0.881E-03
RMM:   9    -0.413203415597E+03    0.41106E-05   -0.97270E-06  3518   0.347E-03    0.592E-03
RMM:  10    -0.413203407770E+03    0.78272E-05   -0.22880E-06  2542   0.245E-03    0.283E-03
RMM:  11    -0.413203401731E+03    0.60388E-05   -0.15477E-06  2518   0.194E-03    0.157E-03
RMM:  12    -0.413203396080E+03    0.56515E-05   -0.70110E-07  2453   0.146E-03    0.587E-04
RMM:  13    -0.413203394117E+03    0.19625E-05   -0.29664E-07  2143   0.974E-04    0.401E-04
RMM:  14    -0.413203392246E+03    0.18713E-05   -0.13694E-07  1475   0.732E-04    0.219E-04
RMM:  15    -0.413203386721E+03    0.55250E-05   -0.14149E-07  1744   0.751E-04    0.262E-04
RMM:  16    -0.413203385901E+03    0.82007E-06   -0.44636E-08   917   0.578E-04
   38 T=    69. E= -.41286670E+03 F= -.41320339E+03 E0= -.41318220E+03  EK= 0.33669E+00 SP= 0.00E+00 SK= 0.00E+00
       N       E                     dE             d eps       ncg     rms          rms(c)
RMM:   1    -0.413200808564E+03    0.25782E-02   -0.12556E+01  4304   0.108E+00    0.959E-01
RMM:   2    -0.413206906921E+03   -0.60984E-02   -0.16669E-01  4257   0.125E-01    0.667E-01
RMM:   3    -0.413206334115E+03    0.57281E-03   -0.75171E-03  5001   0.546E-02    0.232E-01
RMM:   4    -0.413257678768E+03   -0.51345E-01   -0.55040E-02  5130   0.195E-01    0.941E-01
RMM:   5    -0.413205208293E+03    0.52470E-01   -0.25998E-02  4789   0.158E-01    0.485E-02
RMM:   6    -0.413205345057E+03   -0.13676E-03   -0.40825E-03  5831   0.601E-02    0.221E-02
RMM:   7    -0.413205366061E+03   -0.21004E-04   -0.41928E-04  5838   0.171E-02    0.153E-02
RMM:   8    -0.413205364243E+03    0.18179E-05   -0.59119E-05  4875   0.646E-03    0.113E-02
RMM:   9    -0.413205354288E+03    0.99547E-05   -0.12435E-05  3743   0.385E-03    0.686E-03
RMM:  10    -0.413205343747E+03    0.10541E-04   -0.36696E-06  2656   0.289E-03    0.317E-03
RMM:  11    -0.413205336105E+03    0.76420E-05   -0.16347E-06  2505   0.208E-03    0.179E-03
RMM:  12    -0.413205327850E+03    0.82555E-05   -0.84072E-07  2471   0.161E-03    0.635E-04
RMM:  13    -0.413205323867E+03    0.39824E-05   -0.35459E-07  2265   0.107E-03    0.422E-04
RMM:  14    -0.413205320464E+03    0.34034E-05   -0.17436E-07  1709   0.786E-04    0.275E-04
RMM:  15    -0.413205312606E+03    0.78579E-05   -0.14365E-07  1705   0.753E-04    0.230E-04
RMM:  16    -0.413205311835E+03    0.77134E-06   -0.57198E-08  1006   0.587E-04
   39 T=    69. E= -.41286632E+03 F= -.41320531E+03 E0= -.41318417E+03  EK= 0.33900E+00 SP= 0.00E+00 SK= 0.00E+00
       N       E                     dE             d eps       ncg     rms          rms(c)
RMM:   1    -0.413205075595E+03    0.23701E-03   -0.12587E+01  4309   0.114E+00    0.936E-01
RMM:   2    -0.413210487440E+03   -0.54118E-02   -0.16743E-01  4259   0.133E-01    0.672E-01
RMM:   3    -0.413209775695E+03    0.71175E-03   -0.72223E-03  5008   0.544E-02    0.237E-01
RMM:   4    -0.413263857448E+03   -0.54082E-01   -0.58899E-02  5129   0.201E-01    0.965E-01
RMM:   5    -0.413208466967E+03    0.55390E-01   -0.27345E-02  4788   0.163E-01    0.494E-02
RMM:   6    -0.413208613983E+03   -0.14702E-03   -0.42655E-03  5819   0.614E-02    0.215E-02
RMM:   7    -0.413208638029E+03   -0.24047E-04   -0.44455E-04  5879   0.176E-02    0.153E-02
RMM:   8    -0.413208638050E+03   -0.20325E-07   -0.63007E-05  4943   0.667E-03    0.114E-02
RMM:   9    -0.413208629705E+03    0.83449E-05   -0.12182E-05  3694   0.382E-03    0.672E-03
RMM:  10    -0.413208622333E+03    0.73717E-05   -0.38125E-06  2662   0.287E-03    0.311E-03
RMM:  11    -0.413208617246E+03    0.50871E-05   -0.16685E-06  2508   0.207E-03    0.174E-03
RMM:  12    -0.413208611811E+03    0.54347E-05   -0.85057E-07  2467   0.159E-03    0.644E-04
RMM:  13    -0.413208609181E+03    0.26301E-05   -0.36402E-07  2244   0.107E-03    0.417E-04
RMM:  14    -0.413208606579E+03    0.26023E-05   -0.18790E-07  1737   0.800E-04    0.262E-04
RMM:  15    -0.413208601317E+03    0.52619E-05   -0.14323E-07  1563   0.736E-04    0.194E-04
RMM:  16    -0.413208600637E+03    0.68028E-06   -0.61528E-08  1024   0.600E-04
   40 T=    70. E= -.41286692E+03 F= -.41320860E+03 E0= -.41318749E+03  EK= 0.34168E+00 SP= 0.00E+00 SK= 0.00E+00
       N       E                     dE             d eps       ncg     rms          rms(c)
RMM:   1    -0.413206526084E+03    0.20752E-02   -0.12750E+01  4305   0.119E+00    0.947E-01
RMM:   2    -0.413211810182E+03   -0.52841E-02   -0.17533E-01  4264   0.139E-01    0.684E-01
RMM:   3    -0.413211443977E+03    0.36620E-03   -0.75530E-03  5050   0.558E-02    0.256E-01
RMM:   4    -0.413267868469E+03   -0.56424E-01   -0.63197E-02  5126   0.209E-01    0.988E-01
RMM:   5    -0.413209756948E+03    0.58112E-01   -0.28288E-02  4772   0.167E-01    0.522E-02
RMM:   6    -0.413209929782E+03   -0.17283E-03   -0.45519E-03  5813   0.631E-02    0.215E-02
RMM:   7    -0.413209956303E+03   -0.26521E-04   -0.48027E-04  5916   0.182E-02    0.160E-02
RMM:   8    -0.413209956515E+03   -0.21157E-06   -0.68559E-05  5051   0.700E-03    0.117E-02
RMM:   9    -0.413209947951E+03    0.85638E-05   -0.11669E-05  3612   0.387E-03    0.656E-03
RMM:  10    -0.413209940838E+03    0.71129E-05   -0.40727E-06  2683   0.295E-03    0.300E-03
RMM:  11    -0.413209935885E+03    0.49529E-05   -0.16967E-06  2516   0.207E-03    0.160E-03
RMM:  12    -0.413209930858E+03    0.50270E-05   -0.83351E-07  2466   0.156E-03    0.626E-04
RMM:  13    -0.413209928269E+03    0.25893E-05   -0.36235E-07  2230   0.106E-03    0.401E-04
RMM:  14    -0.413209925236E+03    0.30328E-05   -0.19852E-07  1726   0.807E-04    0.260E-04
RMM:  15    -0.413209920972E+03    0.42641E-05   -0.13596E-07  1439   0.715E-04    0.155E-04
RMM:  16    -0.413209919872E+03    0.11002E-05   -0.68481E-08  1045   0.614E-04    0.757E-05
RMM:  17    -0.413209917793E+03    0.20793E-05   -0.55579E-08  1026   0.610E-04    0.448E-05
RMM:  18    -0.413209914147E+03    0.36459E-05   -0.65027E-08  1236   0.637E-04    0.469E-05
RMM:  19    -0.413209913635E+03    0.51170E-06   -0.25391E-08   806   0.562E-04
   41 T=    70. E= -.41286628E+03 F= -.41320991E+03 E0= -.41318884E+03  EK= 0.34363E+00 SP= 0.00E+00 SK= 0.00E+00
       N       E                     dE             d eps       ncg     rms          rms(c)
RMM:   1    -0.413215936253E+03   -0.60221E-02   -0.12894E+01  4309   0.127E+00    0.973E-01
RMM:   2    -0.413213771540E+03    0.21647E-02   -0.17894E-01  4286   0.146E-01    0.677E-01
RMM:   3    -0.413216340969E+03   -0.25694E-02   -0.99686E-03  5126   0.722E-02    0.333E-01
RMM:   4    -0.413250901246E+03   -0.34560E-01   -0.50415E-02  5092   0.188E-01    0.816E-01
RMM:   5    -0.413212564128E+03    0.38337E-01   -0.17271E-02  4727   0.136E-01    0.502E-02
RMM:   6    -0.413212612203E+03   -0.48075E-04   -0.28445E-03  5757   0.505E-02    0.194E-02
RMM:   7    -0.413212625913E+03   -0.13710E-04   -0.33726E-04  5895   0.157E-02    0.148E-02
RMM:   8    -0.413212623015E+03    0.28982E-05   -0.52929E-05  4930   0.640E-03    0.962E-03
RMM:   9    -0.413212611150E+03    0.11865E-04   -0.89917E-06  3294   0.390E-03    0.444E-03
RMM:  10    -0.413212602507E+03    0.86425E-05   -0.27776E-06  2574   0.246E-03    0.227E-03
RMM:  11    -0.413212595131E+03    0.73760E-05   -0.10444E-06  2508   0.163E-03    0.101E-03
RMM:  12    -0.413212589605E+03    0.55262E-05   -0.42479E-07  2312   0.113E-03    0.503E-04
RMM:  13    -0.413212584491E+03    0.51145E-05   -0.24391E-07  1647   0.847E-04    0.245E-04
RMM:  14    -0.413212580643E+03    0.38477E-05   -0.15589E-07  1378   0.735E-04    0.151E-04
RMM:  15    -0.413212575115E+03    0.55282E-05   -0.12608E-07  1373   0.710E-04    0.862E-05
RMM:  16    -0.413212570957E+03    0.41581E-05   -0.97473E-08  1374   0.663E-04    0.547E-05
RMM:  17    -0.413212567220E+03    0.37367E-05   -0.73633E-08  1263   0.618E-04    0.430E-05
RMM:  18    -0.413212565543E+03    0.16769E-05   -0.45689E-08   981   0.558E-04    0.296E-05
RMM:  19    -0.413212564943E+03    0.60023E-06   -0.28030E-08   813   0.531E-04
   42 T=    70. E= -.41286678E+03 F= -.41321256E+03 E0= -.41319152E+03  EK= 0.34579E+00 SP= 0.00E+00 SK= 0.00E+00
       N       E                     dE             d eps       ncg     rms          rms(c)
RMM:   1    -0.413214502957E+03   -0.19374E-02   -0.12833E+01  4310   0.133E+00    0.949E-01
RMM:   2    -0.413215642155E+03   -0.11392E-02   -0.17674E-01  4289   0.153E-01    0.676E-01
RMM:   3    -0.413219320162E+03   -0.36780E-02   -0.10705E-02  5113   0.802E-02    0.364E-01
RMM:   4    -0.413248482712E+03   -0.29163E-01   -0.48211E-02  5064   0.185E-01    0.772E-01
RMM:   5    -0.413214447615E+03    0.34035E-01   -0.14912E-02  4706   0.129E-01    0.486E-02
RMM:   6    -0.413214476972E+03   -0.29358E-04   -0.24764E-03  5740   0.472E-02    0.184E-02
RMM:   7    -0.413214486868E+03   -0.98956E-05   -0.28519E-04  5888   0.149E-02    0.143E-02
RMM:   8    -0.413214484192E+03    0.26755E-05   -0.46417E-05  4847   0.614E-03    0.889E-03
RMM:   9    -0.413214474047E+03    0.10146E-04   -0.86381E-06  3268   0.395E-03    0.416E-03
RMM:  10    -0.413214467527E+03    0.65200E-05   -0.25196E-06  2566   0.239E-03    0.223E-03
RMM:  11    -0.413214462028E+03    0.54988E-05   -0.10395E-06  2512   0.159E-03    0.102E-03
RMM:  12    -0.413214458018E+03    0.40103E-05   -0.42899E-07  2284   0.110E-03    0.495E-04
RMM:  13    -0.413214453669E+03    0.43488E-05   -0.28123E-07  1697   0.870E-04    0.253E-04
RMM:  14    -0.413214451234E+03    0.24348E-05   -0.16577E-07  1314   0.729E-04    0.146E-04
RMM:  15    -0.413214447292E+03    0.39421E-05   -0.13139E-07  1266   0.699E-04    0.729E-05
RMM:  16    -0.413214443814E+03    0.34783E-05   -0.10219E-07  1248   0.669E-04    0.506E-05
RMM:  17    -0.413214440917E+03    0.28964E-05   -0.77982E-08  1223   0.636E-04    0.396E-05
RMM:  18    -0.413214438886E+03    0.20311E-05   -0.54502E-08  1064   0.589E-04    0.338E-05
RMM:  19    -0.413214438254E+03    0.63210E-06   -0.32988E-08   840   0.541E-04
   43 T=    71. E= -.41286680E+03 F= -.41321444E+03 E0= -.41319342E+03  EK= 0.34764E+00 SP= 0.00E+00 SK= 0.00E+00
       N       E                     dE             d eps       ncg     rms          rms(c)
RMM:   1    -0.413243134176E+03   -0.28695E-01   -0.13239E+01  4311   0.152E+00    0.949E-01
RMM:   2    -0.413216927822E+03    0.26206E-01   -0.20164E-01  4289   0.175E-01    0.693E-01
RMM:   3    -0.413222050055E+03   -0.51222E-02   -0.12039E-02  5109   0.906E-02    0.417E-01
RMM:   4    -0.413247191393E+03   -0.25141E-01   -0.48918E-02  5054   0.188E-01    0.752E-01
RMM:   5    -0.413215447906E+03    0.31743E-01   -0.13768E-02  4681   0.128E-01    0.511E-02
RMM:   6    -0.413215453103E+03   -0.51967E-05   -0.23241E-03  5692   0.458E-02    0.188E-02
RMM:   7    -0.413215463070E+03   -0.99676E-05   -0.27698E-04  5903   0.149E-02    0.147E-02
RMM:   8    -0.413215460471E+03    0.25995E-05   -0.43600E-05  4823   0.609E-03    0.900E-03
RMM:   9    -0.413215451745E+03    0.87259E-05   -0.10042E-05  3440   0.436E-03    0.440E-03
RMM:  10    -0.413215446556E+03    0.51887E-05   -0.27316E-06  2592   0.251E-03    0.256E-03
RMM:  11    -0.413215442458E+03    0.40984E-05   -0.12870E-06  2524   0.175E-03    0.112E-03
RMM:  12    -0.413215439699E+03    0.27594E-05   -0.53268E-07  2427   0.123E-03    0.594E-04
RMM:  13    -0.413215436084E+03    0.36148E-05   -0.36806E-07  1816   0.963E-04    0.345E-04
RMM:  14    -0.413215434240E+03    0.18438E-05   -0.20509E-07  1401   0.784E-04    0.186E-04
RMM:  15    -0.413215431801E+03    0.24387E-05   -0.15117E-07  1278   0.725E-04    0.103E-04
RMM:  16    -0.413215428781E+03    0.30201E-05   -0.12480E-07  1317   0.695E-04    0.561E-05
RMM:  17    -0.413215427385E+03    0.13959E-05   -0.75325E-08  1047   0.622E-04    0.413E-05
RMM:  18    -0.413215425222E+03    0.21631E-05   -0.70092E-08  1145   0.614E-04    0.338E-05
RMM:  19    -0.413215424221E+03    0.10014E-05   -0.43336E-08   915   0.564E-04    0.263E-05
RMM:  20    -0.413215423816E+03    0.40507E-06   -0.26174E-08   756   0.538E-04
   44 T=    71. E= -.41286646E+03 F= -.41321542E+03 E0= -.41319443E+03  EK= 0.34896E+00 SP= 0.00E+00 SK= 0.00E+00
       N       E                     dE             d eps       ncg     rms          rms(c)
RMM:   1    -0.413231398038E+03   -0.15974E-01   -0.13183E+01  4307   0.156E+00    0.979E-01
RMM:   2    -0.413217654549E+03    0.13743E-01   -0.18814E-01  4358   0.181E-01    0.685E-01
RMM:   3    -0.413230361869E+03   -0.12707E-01   -0.18773E-02  5131   0.118E-01    0.537E-01
RMM:   4    -0.413232492867E+03   -0.21310E-02   -0.37759E-02  5016   0.169E-01    0.543E-01
RMM:   5    -0.413217225635E+03    0.15267E-01   -0.59118E-03  4562   0.948E-02    0.429E-02
RMM:   6    -0.413217181648E+03    0.43987E-04   -0.10454E-03  5331   0.316E-02    0.172E-02
RMM:   7    -0.413217180719E+03    0.92972E-06   -0.11893E-04  5654   0.105E-02    0.130E-02
RMM:   8    -0.413217175690E+03    0.50285E-05   -0.30534E-05  4845   0.552E-03    0.798E-03
RMM:   9    -0.413217160162E+03    0.15528E-04   -0.86561E-06  3351   0.427E-03    0.394E-03
RMM:  10    -0.413217154730E+03    0.54322E-05   -0.15392E-06  2543   0.206E-03    0.183E-03
RMM:  11    -0.413217148622E+03    0.61080E-05   -0.89794E-07  2485   0.150E-03    0.936E-04
RMM:  12    -0.413217143106E+03    0.55162E-05   -0.41280E-07  2350   0.110E-03    0.477E-04
RMM:  13    -0.413217138347E+03    0.47583E-05   -0.22345E-07  1491   0.797E-04    0.237E-04
RMM:  14    -0.413217135374E+03    0.29735E-05   -0.13128E-07  1191   0.689E-04    0.151E-04
RMM:  15    -0.413217129477E+03    0.58970E-05   -0.12356E-07  1339   0.698E-04    0.923E-05
RMM:  16    -0.413217126472E+03    0.30045E-05   -0.75252E-08  1104   0.621E-04    0.816E-05
RMM:  17    -0.413217123589E+03    0.28833E-05   -0.56412E-08  1018   0.588E-04    0.526E-05
RMM:  18    -0.413217120994E+03    0.25946E-05   -0.48421E-08  1027   0.572E-04    0.289E-05
RMM:  19    -0.413217120330E+03    0.66490E-06   -0.24095E-08   742   0.520E-04
   45 T=    71. E= -.41286682E+03 F= -.41321712E+03 E0= -.41319615E+03  EK= 0.35030E+00 SP= 0.00E+00 SK= 0.00E+00
       N       E                     dE             d eps       ncg     rms          rms(c)
RMM:   1    -0.413242250559E+03   -0.25130E-01   -0.13213E+01  4307   0.167E+00    0.962E-01
RMM:   2    -0.413217767298E+03    0.24483E-01   -0.18641E-01  4361   0.193E-01    0.681E-01
RMM:   3    -0.413233447393E+03   -0.15680E-01   -0.21368E-02  5131   0.128E-01    0.584E-01
RMM:   4    -0.413229934244E+03    0.35131E-02   -0.36946E-02  4988   0.169E-01    0.499E-01
RMM:   5    -0.413217310458E+03    0.12624E-01   -0.49622E-03  4540   0.905E-02    0.428E-02
RMM:   6    -0.413217242131E+03    0.68327E-04   -0.75694E-04  5065   0.283E-02    0.169E-02
RMM:   7    -0.413217241208E+03    0.92318E-06   -0.94446E-05  5636   0.928E-03    0.110E-02
RMM:   8    -0.413217236199E+03    0.50088E-05   -0.29659E-05  4930   0.572E-03    0.743E-03
RMM:   9    -0.413217223829E+03    0.12370E-04   -0.12947E-05  3997   0.444E-03    0.440E-03
RMM:  10    -0.413217219646E+03    0.41828E-05   -0.17930E-06  2501   0.222E-03    0.191E-03
RMM:  11    -0.413217214438E+03    0.52084E-05   -0.13321E-06  2457   0.181E-03    0.111E-03
RMM:  12    -0.413217209369E+03    0.50682E-05   -0.51212E-07  2352   0.130E-03    0.644E-04
RMM:  13    -0.413217205434E+03    0.39355E-05   -0.22482E-07  1719   0.852E-04    0.331E-04
RMM:  14    -0.413217201703E+03    0.37310E-05   -0.12520E-07  1227   0.687E-04    0.168E-04
RMM:  15    -0.413217195979E+03    0.57238E-05   -0.12296E-07  1352   0.693E-04    0.133E-04
RMM:  16    -0.413217193491E+03    0.24879E-05   -0.62390E-08   964   0.574E-04    0.122E-04
RMM:  17    -0.413217190616E+03    0.28758E-05   -0.48178E-08   872   0.555E-04    0.522E-05
RMM:  18    -0.413217188036E+03    0.25795E-05   -0.41214E-08   845   0.547E-04    0.567E-05
RMM:  19    -0.413217187453E+03    0.58311E-06   -0.19504E-08   639   0.511E-04
   46 T=    71. E= -.41286648E+03 F= -.41321719E+03 E0= -.41319623E+03  EK= 0.35071E+00 SP= 0.00E+00 SK= 0.00E+00
       N       E                     dE             d eps       ncg     rms          rms(c)
RMM:   1    -0.413262477828E+03   -0.45290E-01   -0.13475E+01  4309   0.183E+00    0.947E-01
RMM:   2    -0.413218076727E+03    0.44401E-01   -0.22427E-01  4379   0.214E-01    0.698E-01
RMM:   3    -0.413232741907E+03   -0.14665E-01   -0.20548E-02  5135   0.128E-01    0.602E-01
RMM:   4    -0.413231456676E+03    0.12852E-02   -0.39297E-02  5005   0.174E-01    0.546E-01
RMM:   5    -0.413216913715E+03    0.14543E-01   -0.63799E-03  4546   0.993E-02    0.483E-02
RMM:   6    -0.413216834868E+03    0.78847E-04   -0.95068E-04  5140   0.317E-02    0.188E-02
RMM:   7    -0.413216834221E+03    0.64668E-06   -0.12757E-04  5800   0.107E-02    0.134E-02
RMM:   8    -0.413216831300E+03    0.29211E-05   -0.35163E-05  5033   0.576E-03    0.895E-03
RMM:   9    -0.413216818625E+03    0.12675E-04   -0.13891E-05  4047   0.495E-03    0.495E-03
RMM:  10    -0.413216814514E+03    0.41119E-05   -0.21708E-06  2550   0.229E-03    0.236E-03
RMM:  11    -0.413216810889E+03    0.36245E-05   -0.17429E-06  2528   0.200E-03    0.134E-03
RMM:  12    -0.413216807949E+03    0.29397E-05   -0.53781E-07  2398   0.137E-03    0.742E-04
RMM:  13    -0.413216805038E+03    0.29117E-05   -0.26966E-07  1876   0.893E-04    0.361E-04
RMM:  14    -0.413216802474E+03    0.25637E-05   -0.15409E-07  1229   0.701E-04    0.202E-04
RMM:  15    -0.413216799552E+03    0.29217E-05   -0.12696E-07  1189   0.672E-04    0.939E-05
RMM:  16    -0.413216797363E+03    0.21891E-05   -0.89427E-08  1096   0.627E-04    0.840E-05
RMM:  17    -0.413216795367E+03    0.19958E-05   -0.69472E-08  1026   0.596E-04    0.668E-05
RMM:  18    -0.413216794346E+03    0.10218E-05   -0.41218E-08   836   0.545E-04    0.414E-05
RMM:  19    -0.413216793884E+03    0.46136E-06   -0.24384E-08   688   0.521E-04
   47 T=    71. E= -.41286648E+03 F= -.41321679E+03 E0= -.41319585E+03  EK= 0.35031E+00 SP= 0.00E+00 SK= 0.00E+00
       N       E                     dE             d eps       ncg     rms          rms(c)
RMM:   1    -0.413269087124E+03   -0.52293E-01   -0.13551E+01  4305   0.197E+00    0.975E-01
RMM:   2    -0.413216187831E+03    0.52899E-01   -0.21599E-01  4480   0.216E-01    0.692E-01
RMM:   3    -0.413240687216E+03   -0.24499E-01   -0.29646E-02  5149   0.154E-01    0.719E-01
RMM:   4    -0.413223914892E+03    0.16772E-01   -0.37676E-02  4957   0.175E-01    0.436E-01
RMM:   5    -0.413215631085E+03    0.82838E-02   -0.46404E-03  4566   0.905E-02    0.556E-02
RMM:   6    -0.413215456950E+03    0.17413E-03   -0.45116E-04  4693   0.280E-02    0.221E-02
RMM:   7    -0.413215457732E+03   -0.78145E-06   -0.12025E-04  5871   0.110E-02    0.149E-02
RMM:   8    -0.413215447944E+03    0.97871E-05   -0.27036E-05  4774   0.560E-03    0.103E-02
RMM:   9    -0.413215432890E+03    0.15055E-04   -0.10054E-05  3492   0.432E-03    0.519E-03
RMM:  10    -0.413215426057E+03    0.68327E-05   -0.26479E-06  2605   0.266E-03    0.240E-03
RMM:  11    -0.413215420486E+03    0.55706E-05   -0.20166E-06  2551   0.218E-03    0.149E-03
RMM:  12    -0.413215415034E+03    0.54525E-05   -0.75593E-07  2436   0.154E-03    0.771E-04
RMM:  13    -0.413215410702E+03    0.43316E-05   -0.35920E-07  2229   0.101E-03    0.431E-04
RMM:  14    -0.413215406719E+03    0.39830E-05   -0.19254E-07  1482   0.743E-04    0.229E-04
RMM:  15    -0.413215401581E+03    0.51383E-05   -0.15404E-07  1381   0.710E-04    0.123E-04
RMM:  16    -0.413215398619E+03    0.29621E-05   -0.96680E-08  1203   0.638E-04    0.115E-04
RMM:  17    -0.413215396300E+03    0.23188E-05   -0.63153E-08  1009   0.589E-04    0.681E-05
RMM:  18    -0.413215394199E+03    0.21013E-05   -0.53857E-08  1028   0.582E-04    0.395E-05
RMM:  19    -0.413215393459E+03    0.74020E-06   -0.27183E-08   801   0.538E-04
   48 T=    71. E= -.41286651E+03 F= -.41321539E+03 E0= -.41319446E+03  EK= 0.34888E+00 SP= 0.00E+00 SK= 0.00E+00
       N       E                     dE             d eps       ncg     rms          rms(c)
RMM:   1    -0.413269318411E+03   -0.53924E-01   -0.13431E+01  4305   0.210E+00    0.968E-01
RMM:   2    -0.413212481432E+03    0.56837E-01   -0.21222E-01  4483   0.229E-01    0.682E-01
RMM:   3    -0.413243677911E+03   -0.31196E-01   -0.35778E-02  5158   0.170E-01    0.795E-01
RMM:   4    -0.413217714222E+03    0.25964E-01   -0.37840E-02  4925   0.178E-01    0.385E-01
RMM:   5    -0.413212249285E+03    0.54649E-02   -0.51103E-03  4848   0.932E-02    0.703E-02
RMM:   6    -0.413211945849E+03    0.30344E-03   -0.56187E-04  4686   0.325E-02    0.267E-02
RMM:   7    -0.413211941716E+03    0.41326E-05   -0.13495E-04  5707   0.123E-02    0.168E-02
RMM:   8    -0.413211930498E+03    0.11218E-04   -0.21291E-05  4343   0.512E-03    0.108E-02
RMM:   9    -0.413211914360E+03    0.16138E-04   -0.11115E-05  3540   0.437E-03    0.473E-03
RMM:  10    -0.413211906117E+03    0.82424E-05   -0.36270E-06  2772   0.293E-03    0.254E-03
RMM:  11    -0.413211898733E+03    0.73843E-05   -0.22760E-06  2612   0.235E-03    0.167E-03
RMM:  12    -0.413211894233E+03    0.44995E-05   -0.68008E-07  2448   0.153E-03    0.814E-04
RMM:  13    -0.413211889976E+03    0.42571E-05   -0.33949E-07  2222   0.997E-04    0.494E-04
RMM:  14    -0.413211885002E+03    0.49747E-05   -0.22176E-07  1679   0.794E-04    0.253E-04
RMM:  15    -0.413211880158E+03    0.48440E-05   -0.16418E-07  1425   0.722E-04    0.150E-04
RMM:  16    -0.413211878136E+03    0.20215E-05   -0.89855E-08  1188   0.633E-04    0.101E-04
RMM:  17    -0.413211874954E+03    0.31824E-05   -0.87237E-08  1256   0.634E-04    0.455E-05
RMM:  18    -0.413211873854E+03    0.10992E-05   -0.42082E-08   951   0.567E-04    0.327E-05
RMM:  19    -0.413211873148E+03    0.70638E-06   -0.26489E-08   816   0.546E-04
[...]
RMM:  12    -0.412972004637E+03   -0.11548E-04   -0.63068E-06  3245   0.362E-03    0.337E-03
RMM:  13    -0.412972014822E+03   -0.10184E-04   -0.23467E-06  2707   0.238E-03    0.216E-03
RMM:  14    -0.412972025263E+03   -0.10441E-04   -0.17348E-06  2627   0.202E-03    0.121E-03
RMM:  15    -0.412972037267E+03   -0.12004E-04   -0.17587E-06  2648   0.185E-03    0.705E-04
RMM:  16    -0.412972045158E+03   -0.78912E-05   -0.99374E-07  2333   0.130E-03    0.483E-04
RMM:  17    -0.412972053927E+03   -0.87686E-05   -0.11535E-06  2411   0.132E-03    0.369E-04
RMM:  18    -0.412972060772E+03   -0.68450E-05   -0.90725E-07  2102   0.112E-03    0.203E-04
RMM:  19    -0.412972065255E+03   -0.44830E-05   -0.54622E-07  1853   0.910E-04    0.126E-04
RMM:  20    -0.412972068052E+03   -0.27973E-05   -0.27200E-07  1478   0.725E-04    0.865E-05
RMM:  21    -0.412972070520E+03   -0.24680E-05   -0.16705E-07  1333   0.659E-04    0.505E-05
RMM:  22    -0.412972071716E+03   -0.11961E-05   -0.90457E-08  1124   0.595E-04    0.349E-05
RMM:  23    -0.412972072336E+03   -0.61952E-06   -0.52493E-08  1011   0.564E-04
  140 T=   189. E= -.41204479E+03 F= -.41297207E+03 E0= -.41295003E+03  EK= 0.92728E+00 SP= 0.00E+00 SK= 0.00E+00
       N       E                     dE             d eps       ncg     rms          rms(c)
RMM:   1    -0.413262499965E+03   -0.29043E+00   -0.22694E+01  4296   0.960E+00    0.141E+00
RMM:   2    -0.413226828738E+03    0.35671E-01   -0.57074E-01  5241   0.995E-01    0.139E+00
RMM:   3    -0.413216297768E+03    0.10531E-01   -0.17763E-01  5550   0.449E-01    0.134E+00
RMM:   4    -0.413165165317E+03    0.51132E-01   -0.76192E-02  5181   0.322E-01    0.671E-01
RMM:   5    -0.413165952832E+03   -0.78751E-03   -0.57431E-02  5037   0.289E-01    0.410E-01
RMM:   6    -0.413161635486E+03    0.43173E-02   -0.33039E-02  5014   0.221E-01    0.220E-01
RMM:   7    -0.413159753420E+03    0.18821E-02   -0.40635E-03  4611   0.950E-02    0.101E-01
RMM:   8    -0.413159631952E+03    0.12147E-03   -0.16448E-03  5781   0.458E-02    0.584E-02
RMM:   9    -0.413159539043E+03    0.92909E-04   -0.56968E-04  4587   0.302E-02    0.193E-02
RMM:  10    -0.413159550709E+03   -0.11667E-04   -0.16674E-04  5833   0.145E-02    0.135E-02
RMM:  11    -0.413159557274E+03   -0.65651E-05   -0.27196E-05  4599   0.684E-03    0.744E-03
RMM:  12    -0.413159572640E+03   -0.15366E-04   -0.12082E-05  3947   0.469E-03    0.428E-03
RMM:  13    -0.413159584740E+03   -0.12099E-04   -0.37354E-06  2885   0.288E-03    0.242E-03
RMM:  14    -0.413159595745E+03   -0.11005E-04   -0.20790E-06  2678   0.217E-03    0.147E-03
RMM:  15    -0.413159608549E+03   -0.12805E-04   -0.21550E-06  2696   0.211E-03    0.868E-04
RMM:  16    -0.413159618130E+03   -0.95805E-05   -0.14779E-06  2557   0.159E-03    0.616E-04
RMM:  17    -0.413159623402E+03   -0.52722E-05   -0.73812E-07  2014   0.110E-03    0.372E-04
RMM:  18    -0.413159630548E+03   -0.71457E-05   -0.11286E-06  2470   0.132E-03    0.265E-04
RMM:  19    -0.413159634438E+03   -0.38906E-05   -0.56716E-07  1690   0.906E-04    0.130E-04
RMM:  20    -0.413159636640E+03   -0.22018E-05   -0.27994E-07  1484   0.743E-04    0.912E-05
RMM:  21    -0.413159638487E+03   -0.18471E-05   -0.17548E-07  1347   0.669E-04    0.617E-05
RMM:  22    -0.413159639880E+03   -0.13928E-05   -0.11624E-07  1241   0.614E-04    0.372E-05
RMM:  23    -0.413159640589E+03   -0.70874E-06   -0.66152E-08  1051   0.566E-04
  141 T=   224. E= -.41205913E+03 F= -.41315964E+03 E0= -.41313765E+03  EK= 0.11005E+01 SP= 0.00E+00 SK= 0.00E+00
       N       E                     dE             d eps       ncg     rms          rms(c)
RMM:   1    -0.413364842428E+03   -0.20520E+00   -0.25891E+01  4298   0.101E+01    0.162E+00
RMM:   2    -0.413328779970E+03    0.36062E-01   -0.77071E-01  5288   0.114E+00    0.168E+00
RMM:   3    -0.413293573940E+03    0.35206E-01   -0.22876E-01  5473   0.524E-01    0.153E+00
RMM:   4    -0.413230338023E+03    0.63236E-01   -0.10284E-01  5217   0.375E-01    0.827E-01
RMM:   5    -0.413230411023E+03   -0.73000E-04   -0.68320E-02  5023   0.318E-01    0.481E-01
RMM:   6    -0.413226367030E+03    0.40440E-02   -0.48919E-02  5076   0.263E-01    0.271E-01
RMM:   7    -0.413222922879E+03    0.34442E-02   -0.67377E-03  4604   0.121E-01    0.113E-01
RMM:   8    -0.413222836652E+03    0.86227E-04   -0.26856E-03  5895   0.573E-02    0.686E-02
RMM:   9    -0.413222713756E+03    0.12290E-03   -0.74222E-04  4568   0.350E-02    0.230E-02
RMM:  10    -0.413222724733E+03   -0.10978E-04   -0.20405E-04  5814   0.164E-02    0.147E-02
RMM:  11    -0.413222727554E+03   -0.28209E-05   -0.33268E-05  4756   0.741E-03    0.829E-03
RMM:  12    -0.413222740402E+03   -0.12848E-04   -0.13820E-05  4015   0.498E-03    0.473E-03
RMM:  13    -0.413222751114E+03   -0.10712E-04   -0.44973E-06  2984   0.317E-03    0.255E-03
RMM:  14    -0.413222759351E+03   -0.82368E-05   -0.25020E-06  2735   0.228E-03    0.146E-03
RMM:  15    -0.413222767904E+03   -0.85527E-05   -0.22562E-06  2708   0.214E-03    0.909E-04
RMM:  16    -0.413222773752E+03   -0.58481E-05   -0.14391E-06  2533   0.162E-03    0.631E-04
RMM:  17    -0.413222775974E+03   -0.22226E-05   -0.56427E-07  1921   0.100E-03    0.405E-04
RMM:  18    -0.413222779608E+03   -0.36341E-05   -0.10350E-06  2431   0.133E-03    0.284E-04
RMM:  19    -0.413222781053E+03   -0.14442E-05   -0.50339E-07  1667   0.886E-04    0.115E-04
RMM:  20    -0.413222781557E+03   -0.50422E-06   -0.22188E-07  1385   0.714E-04
  142 T=   238. E= -.41205530E+03 F= -.41322278E+03 E0= -.41320137E+03  EK= 0.11675E+01 SP= 0.00E+00 SK= 0.00E+00
       N       E                     dE             d eps       ncg     rms          rms(c)
RMM:   1    -0.413356497201E+03   -0.13372E+00   -0.25513E+01  4283   0.993E+00    0.148E+00
RMM:   2    -0.413343195222E+03    0.13302E-01   -0.88811E-01  5317   0.116E+00    0.167E+00
RMM:   3    -0.413272029468E+03    0.71166E-01   -0.23381E-01  5392   0.542E-01    0.138E+00
RMM:   4    -0.413217114957E+03    0.54915E-01   -0.10755E-01  5264   0.385E-01    0.776E-01
RMM:   5    -0.413213816926E+03    0.32980E-02   -0.38519E-02  4981   0.251E-01    0.443E-01
RMM:   6    -0.413214667629E+03   -0.85070E-03   -0.42788E-02  5115   0.243E-01    0.280E-01
RMM:   7    -0.413210497859E+03    0.41698E-02   -0.86799E-03  4743   0.130E-01    0.103E-01
RMM:   8    -0.413210523507E+03   -0.25648E-04   -0.30419E-03  5983   0.608E-02    0.665E-02
RMM:   9    -0.413210426356E+03    0.97151E-04   -0.71020E-04  4658   0.341E-02    0.316E-02
RMM:  10    -0.413210413637E+03    0.12719E-04   -0.17890E-04  5723   0.161E-02    0.152E-02
RMM:  11    -0.413210414145E+03   -0.50814E-06   -0.48684E-05  5461   0.813E-03    0.852E-03
RMM:  12    -0.413210420843E+03   -0.66980E-05   -0.11611E-05  3865   0.484E-03    0.418E-03
RMM:  13    -0.413210426556E+03   -0.57128E-05   -0.40510E-06  2924   0.286E-03    0.220E-03
RMM:  14    -0.413210430790E+03   -0.42340E-05   -0.19760E-06  2663   0.206E-03    0.112E-03
RMM:  15    -0.413210433470E+03   -0.26805E-05   -0.12341E-06  2532   0.159E-03    0.698E-04
RMM:  16    -0.413210435769E+03   -0.22985E-05   -0.12198E-06  2500   0.148E-03    0.476E-04
RMM:  17    -0.413210436281E+03   -0.51199E-06   -0.47111E-07  1696   0.927E-04
  143 T=   238. E= -.41203954E+03 F= -.41321044E+03 E0= -.41318983E+03  EK= 0.11709E+01 SP= 0.00E+00 SK= 0.00E+00
       N       E                     dE             d eps       ncg     rms          rms(c)
RMM:   1    -0.413507966307E+03   -0.29753E+00   -0.26183E+01  4279   0.980E+00    0.155E+00
RMM:   2    -0.413504486219E+03    0.34801E-02   -0.10808E+00  5358   0.125E+00    0.190E+00
RMM:   3    -0.413390810194E+03    0.11368E+00   -0.28733E-01  5314   0.606E-01    0.144E+00
RMM:   4    -0.413325550141E+03    0.65260E-01   -0.14281E-01  5260   0.446E-01    0.695E-01
RMM:   5    -0.413322045201E+03    0.35049E-02   -0.37806E-02  5056   0.255E-01    0.397E-01
RMM:   6    -0.413322137106E+03   -0.91906E-04   -0.36678E-02  5102   0.224E-01    0.265E-01
RMM:   7    -0.413318935994E+03    0.32011E-02   -0.71743E-03  4701   0.120E-01    0.989E-02
RMM:   8    -0.413318960519E+03   -0.24525E-04   -0.21546E-03  5882   0.539E-02    0.625E-02
RMM:   9    -0.413318911084E+03    0.49435E-04   -0.59085E-04  4769   0.308E-02    0.290E-02
RMM:  10    -0.413318899490E+03    0.11593E-04   -0.13853E-04  5666   0.142E-02    0.155E-02
RMM:  11    -0.413318898098E+03    0.13926E-05   -0.57984E-05  5529   0.880E-03    0.891E-03
RMM:  12    -0.413318899111E+03   -0.10132E-05   -0.10850E-05  3822   0.453E-03    0.468E-03
RMM:  13    -0.413318900605E+03   -0.14937E-05   -0.51110E-06  3055   0.307E-03    0.236E-03
RMM:  14    -0.413318901426E+03   -0.82166E-06   -0.14493E-06  2573   0.196E-03
  144 T=   259. E= -.41204571E+03 F= -.41331890E+03 E0= -.41329889E+03  EK= 0.12732E+01 SP= 0.00E+00 SK= 0.00E+00
       N       E                     dE             d eps       ncg     rms          rms(c)
RMM:   1    -0.413793778438E+03   -0.47488E+00   -0.30886E+01  4285   0.103E+01    0.185E+00
RMM:   2    -0.413682605427E+03    0.11117E+00   -0.13059E+00  5372   0.139E+00    0.217E+00
RMM:   3    -0.413579937749E+03    0.10267E+00   -0.33861E-01  5344   0.658E-01    0.177E+00
RMM:   4    -0.413498926854E+03    0.81011E-01   -0.16908E-01  5280   0.487E-01    0.877E-01
RMM:   5    -0.413495462929E+03    0.34639E-02   -0.56854E-02  4915   0.318E-01    0.459E-01
RMM:   6    -0.413494449919E+03    0.10130E-02   -0.50781E-02  5064   0.263E-01    0.288E-01
RMM:   7    -0.413490170426E+03    0.42795E-02   -0.89926E-03  4767   0.133E-01    0.108E-01
RMM:   8    -0.413490140863E+03    0.29563E-04   -0.23362E-03  5744   0.570E-02    0.682E-02
RMM:   9    -0.413490056045E+03    0.84817E-04   -0.71301E-04  4645   0.340E-02    0.259E-02
RMM:  10    -0.413490055045E+03    0.10001E-05   -0.18122E-04  5755   0.157E-02    0.164E-02
RMM:  11    -0.413490052394E+03    0.26513E-05   -0.55084E-05  5365   0.909E-03    0.923E-03
RMM:  12    -0.413490053777E+03   -0.13834E-05   -0.12447E-05  3970   0.460E-03    0.546E-03
RMM:  13    -0.413490055390E+03   -0.16130E-05   -0.61017E-06  3201   0.338E-03    0.240E-03
RMM:  14    -0.413490056409E+03   -0.10183E-05   -0.16673E-06  2594   0.207E-03    0.134E-03
RMM:  15    -0.413490056875E+03   -0.46587E-06   -0.89303E-07  2495   0.151E-03
  145 T=   291. E= -.41206277E+03 F= -.41349006E+03 E0= -.41346962E+03  EK= 0.14273E+01 SP= 0.00E+00 SK= 0.00E+00
       N       E                     dE             d eps       ncg     rms          rms(c)
RMM:   1    -0.413866744601E+03   -0.37669E+00   -0.34265E+01  4284   0.107E+01    0.189E+00
RMM:   2    -0.413639300410E+03    0.22744E+00   -0.12864E+00  5353   0.138E+00    0.202E+00
RMM:   3    -0.413610551907E+03    0.28749E-01   -0.29441E-01  5463   0.608E-01    0.186E+00
RMM:   4    -0.413535081537E+03    0.75470E-01   -0.13158E-01  5258   0.433E-01    0.103E+00
RMM:   5    -0.413532318955E+03    0.27626E-02   -0.66727E-02  4656   0.351E-01    0.449E-01
RMM:   6    -0.413530639336E+03    0.16796E-02   -0.50270E-02  5025   0.265E-01    0.270E-01
RMM:   7    -0.413525987788E+03    0.46515E-02   -0.95198E-03  4842   0.134E-01    0.103E-01
RMM:   8    -0.413525905072E+03    0.82716E-04   -0.23825E-03  5752   0.572E-02    0.687E-02
RMM:   9    -0.413525795680E+03    0.10939E-03   -0.80507E-04  4578   0.365E-02    0.243E-02
RMM:  10    -0.413525800816E+03   -0.51366E-05   -0.20099E-04  5811   0.166E-02    0.169E-02
RMM:  11    -0.413525800201E+03    0.61513E-06   -0.49410E-05  4994   0.895E-03    0.841E-03
RMM:  12    -0.413525805827E+03   -0.56255E-05   -0.11844E-05  3802   0.451E-03    0.468E-03
RMM:  13    -0.413525811163E+03   -0.53360E-05   -0.46213E-06  3008   0.299E-03    0.225E-03
RMM:  14    -0.413525815570E+03   -0.44074E-05   -0.17901E-06  2639   0.204E-03    0.129E-03
RMM:  15    -0.413525819751E+03   -0.41814E-05   -0.12583E-06  2573   0.170E-03    0.737E-04
RMM:  16    -0.413525823167E+03   -0.34150E-05   -0.89737E-07  2369   0.129E-03    0.424E-04
RMM:  17    -0.413525825237E+03   -0.20700E-05   -0.53928E-07  1923   0.993E-04    0.262E-04
RMM:  18    -0.413525827808E+03   -0.25711E-05   -0.72088E-07  2251   0.109E-03    0.231E-04
RMM:  19    -0.413525829378E+03   -0.15702E-05   -0.46783E-07  1667   0.859E-04    0.116E-04
RMM:  20    -0.413525830238E+03   -0.86019E-06   -0.27695E-07  1495   0.747E-04
  146 T=   298. E= -.41206385E+03 F= -.41352583E+03 E0= -.41350388E+03  EK= 0.14620E+01 SP= 0.00E+00 SK= 0.00E+00
       N       E                     dE             d eps       ncg     rms          rms(c)
RMM:   1    -0.413688591546E+03   -0.16276E+00   -0.32387E+01  4268   0.105E+01    0.174E+00
RMM:   2    -0.413496720007E+03    0.19187E+00   -0.11450E+00  5342   0.130E+00    0.169E+00
RMM:   3    -0.413527694887E+03   -0.30975E-01   -0.23670E-01  5568   0.538E-01    0.177E+00
RMM:   4    -0.413451981026E+03    0.75714E-01   -0.10232E-01  5217   0.383E-01    0.965E-01
RMM:   5    -0.413449202663E+03    0.27784E-02   -0.56782E-02  4561   0.330E-01    0.359E-01
RMM:   6    -0.413447696255E+03    0.15064E-02   -0.28519E-02  5077   0.207E-01    0.208E-01
RMM:   7    -0.413445084175E+03    0.26121E-02   -0.63591E-03  4941   0.106E-01    0.908E-02
RMM:   8    -0.413444944444E+03    0.13973E-03   -0.16605E-03  5727   0.486E-02    0.602E-02
RMM:   9    -0.413444868466E+03    0.75978E-04   -0.67711E-04  4690   0.333E-02    0.275E-02
RMM:  10    -0.413444863635E+03    0.48316E-05   -0.16677E-04  5720   0.156E-02    0.163E-02
RMM:  11    -0.413444863684E+03   -0.49164E-07   -0.53133E-05  5254   0.909E-03    0.867E-03
RMM:  12    -0.413444868439E+03   -0.47547E-05   -0.10950E-05  3815   0.455E-03    0.391E-03
RMM:  13    -0.413444873951E+03   -0.55126E-05   -0.42950E-06  2945   0.277E-03    0.231E-03
RMM:  14    -0.413444880655E+03   -0.67039E-05   -0.18801E-06  2619   0.215E-03    0.121E-03
RMM:  15    -0.413444886079E+03   -0.54235E-05   -0.13018E-06  2566   0.164E-03    0.843E-04
RMM:  16    -0.413444891177E+03   -0.50980E-05   -0.11088E-06  2479   0.136E-03    0.474E-04
RMM:  17    -0.413444894565E+03   -0.33882E-05   -0.71717E-07  2004   0.104E-03    0.311E-04
RMM:  18    -0.413444898839E+03   -0.42738E-05   -0.11223E-06  2466   0.125E-03    0.264E-04
RMM:  19    -0.413444900710E+03   -0.18715E-05   -0.48417E-07  1504   0.815E-04    0.141E-04
RMM:  20    -0.413444902663E+03   -0.19532E-05   -0.41745E-07  1705   0.827E-04    0.109E-04
RMM:  21    -0.413444903455E+03   -0.79213E-06   -0.16860E-07  1253   0.647E-04
  147 T=   286. E= -.41204201E+03 F= -.41344490E+03 E0= -.41342154E+03  EK= 0.14029E+01 SP= 0.00E+00 SK= 0.00E+00
       N       E                     dE             d eps       ncg     rms          rms(c)
RMM:   1    -0.413792807550E+03   -0.34790E+00   -0.31736E+01  4266   0.102E+01    0.128E+00
RMM:   2    -0.413557819717E+03    0.23499E+00   -0.10517E+00  5355   0.122E+00    0.129E+00
RMM:   3    -0.413563883822E+03   -0.60641E-02   -0.17583E-01  5532   0.476E-01    0.131E+00
RMM:   4    -0.413517799445E+03    0.46084E-01   -0.65222E-02  5224   0.315E-01    0.711E-01
RMM:   5    -0.413515539398E+03    0.22600E-02   -0.27803E-02  4534   0.235E-01    0.329E-01
RMM:   6    -0.413516165706E+03   -0.62631E-03   -0.22723E-02  5020   0.185E-01    0.196E-01
RMM:   7    -0.413513903945E+03    0.22618E-02   -0.55714E-03  4979   0.984E-02    0.807E-02
RMM:   8    -0.413513823419E+03    0.80526E-04   -0.14797E-03  5830   0.450E-02    0.518E-02
RMM:   9    -0.413513754312E+03    0.69107E-04   -0.48048E-04  4708   0.283E-02    0.253E-02
RMM:  10    -0.413513745183E+03    0.91284E-05   -0.14801E-04  5667   0.149E-02    0.140E-02
RMM:  11    -0.413513745048E+03    0.13501E-06   -0.39644E-05  5439   0.751E-03    0.925E-03
RMM:  12    -0.413513746383E+03   -0.13346E-05   -0.12536E-05  4186   0.485E-03    0.381E-03
RMM:  13    -0.413513749700E+03   -0.33171E-05   -0.38810E-06  2896   0.267E-03    0.243E-03
RMM:  14    -0.413513753884E+03   -0.41838E-05   -0.14719E-06  2577   0.200E-03    0.113E-03
RMM:  15    -0.413513756821E+03   -0.29372E-05   -0.81371E-07  2466   0.137E-03    0.745E-04
RMM:  16    -0.413513760912E+03   -0.40905E-05   -0.96020E-07  2480   0.133E-03    0.452E-04
RMM:  17    -0.413513763257E+03   -0.23450E-05   -0.51760E-07  1696   0.916E-04    0.257E-04
RMM:  18    -0.413513766043E+03   -0.27867E-05   -0.75633E-07  2342   0.113E-03    0.237E-04
RMM:  19    -0.413513767181E+03   -0.11381E-05   -0.29473E-07  1345   0.697E-04    0.145E-04
RMM:  20    -0.413513768635E+03   -0.14537E-05   -0.30731E-07  1506   0.744E-04    0.850E-05
RMM:  21    -0.413513769201E+03   -0.56623E-06   -0.12895E-07  1153   0.607E-04
  148 T=   297. E= -.41205325E+03 F= -.41351377E+03 E0= -.41348989E+03  EK= 0.14605E+01 SP= 0.00E+00 SK= 0.00E+00
       N       E                     dE             d eps       ncg     rms          rms(c)
RMM:   1    -0.413999989608E+03   -0.48622E+00   -0.37267E+01  4276   0.105E+01    0.218E+00
RMM:   2    -0.413637416502E+03    0.36257E+00   -0.13967E+00  5379   0.135E+00    0.197E+00
RMM:   3    -0.413724480388E+03   -0.87064E-01   -0.32016E-01  5411   0.620E-01    0.219E+00
RMM:   4    -0.413599802578E+03    0.12468E+00   -0.17420E-01  5118   0.499E-01    0.993E-01
RMM:   5    -0.413591755999E+03    0.80466E-02   -0.94205E-02  4752   0.408E-01    0.354E-01
RMM:   6    -0.413588912782E+03    0.28432E-02   -0.30119E-02  5229   0.211E-01    0.225E-01
RMM:   7    -0.413586073670E+03    0.28391E-02   -0.58571E-03  4789   0.104E-01    0.926E-02
RMM:   8    -0.413586017863E+03    0.55807E-04   -0.25065E-03  5819   0.584E-02    0.535E-02
RMM:   9    -0.413585961923E+03    0.55940E-04   -0.55115E-04  5232   0.289E-02    0.314E-02
RMM:  10    -0.413585939488E+03    0.22435E-04   -0.17774E-04  5737   0.165E-02    0.153E-02
RMM:  11    -0.413585940239E+03   -0.75075E-06   -0.57692E-05  5732   0.840E-03    0.109E-02
RMM:  12    -0.413585938372E+03    0.18666E-05   -0.16482E-05  4488   0.539E-03    0.404E-03
RMM:  13    -0.413585939633E+03   -0.12608E-05   -0.51437E-06  3075   0.296E-03    0.285E-03
RMM:  14    -0.413585940774E+03   -0.11411E-05   -0.12604E-06  2554   0.203E-03    0.108E-03
RMM:  15    -0.413585941780E+03   -0.10055E-05   -0.60691E-07  2386   0.126E-03    0.620E-04
RMM:  16    -0.413585943223E+03   -0.14438E-05   -0.66460E-07  2249   0.117E-03    0.358E-04
RMM:  17    -0.413585943924E+03   -0.70037E-06   -0.35506E-07  1597   0.840E-04
  149 T=   305. E= -.41208890E+03 F= -.41358594E+03 E0= -.41356206E+03  EK= 0.14970E+01 SP= 0.00E+00 SK= 0.00E+00
       N       E                     dE             d eps       ncg     rms          rms(c)
RMM:   1    -0.413647814223E+03   -0.61871E-01   -0.34976E+01  4280   0.100E+01    0.228E+00
RMM:   2    -0.413350377093E+03    0.29744E+00   -0.14104E+00  5383   0.127E+00    0.202E+00
RMM:   3    -0.413488099490E+03   -0.13772E+00   -0.34113E-01  5451   0.621E-01    0.237E+00
RMM:   4    -0.413335764128E+03    0.15234E+00   -0.18573E-01  5109   0.507E-01    0.103E+00
RMM:   5    -0.413326835950E+03    0.89282E-02   -0.11072E-01  4842   0.436E-01    0.355E-01
RMM:   6    -0.413322672980E+03    0.41630E-02   -0.26021E-02  5150   0.203E-01    0.197E-01
RMM:   7    -0.413320693889E+03    0.19791E-02   -0.57718E-03  4947   0.995E-02    0.861E-02
RMM:   8    -0.413320598224E+03    0.95665E-04   -0.18953E-03  5713   0.529E-02    0.519E-02
RMM:   9    -0.413320572671E+03    0.25552E-04   -0.52007E-04  5304   0.277E-02    0.313E-02
RMM:  10    -0.413320554408E+03    0.18264E-04   -0.17157E-04  5657   0.162E-02    0.149E-02
RMM:  11    -0.413320555512E+03   -0.11044E-05   -0.55397E-05  5679   0.798E-03    0.105E-02
RMM:  12    -0.413320553940E+03    0.15719E-05   -0.16405E-05  4552   0.549E-03    0.379E-03
RMM:  13    -0.413320554655E+03   -0.71511E-06   -0.47198E-06  2993   0.283E-03
  150 T=   261. E= -.41203877E+03 F= -.41332055E+03 E0= -.41329649E+03  EK= 0.12818E+01 SP= 0.00E+00 SK= 0.00E+00
