       N       E                     dE             d eps       ncg     rms          rms(c)
RMM:   1     0.220123892670E+04    0.22012E+04   -0.52443E+04  2132   0.654E+02
RMM:   2     0.705668666039E+03   -0.14956E+04   -0.16260E+04  2132   0.177E+02
RMM:   3     0.137769953830E+03   -0.56790E+03   -0.65715E+03  2132   0.117E+02
RMM:   4    -0.159280755865E+03   -0.29705E+03   -0.27841E+03  2132   0.936E+01
RMM:   5    -0.287534171084E+03   -0.12825E+03   -0.11448E+03  2132   0.595E+01
RMM:   6    -0.349832853606E+03   -0.62299E+02   -0.55148E+02  2132   0.423E+01
RMM:   7    -0.382825858041E+03   -0.32993E+02   -0.30491E+02  2132   0.293E+01
RMM:   8    -0.404378202950E+03   -0.21552E+02   -0.18434E+02  2132   0.234E+01
RMM:   9    -0.435996419808E+03   -0.31618E+02   -0.30488E+02  6099   0.173E+01
RMM:  10    -0.441306240307E+03   -0.53098E+01   -0.63039E+01  6396   0.538E+00
RMM:  11    -0.442494660944E+03   -0.11884E+01   -0.11019E+01  6213   0.172E+00
RMM:  12    -0.442872365937E+03   -0.37770E+00   -0.25665E+00  6360   0.597E-01    0.134E+02
RMM:  13    -0.425604163043E+03    0.17268E+02   -0.81005E+01  4676   0.119E+01    0.712E+01
RMM:  14    -0.499759691335E+03   -0.74156E+02   -0.54121E+02  5422   0.232E+01    0.307E+01
RMM:  15    -0.416009633246E+03    0.83750E+02   -0.19996E+02  5084   0.164E+01    0.711E+00
RMM:  16    -0.414014274974E+03    0.19954E+01   -0.39581E+01  6076   0.612E+00    0.426E+00
RMM:  17    -0.413211958511E+03    0.80232E+00   -0.25213E+00  5391   0.188E+00    0.243E+00
RMM:  18    -0.413176398873E+03    0.35560E-01   -0.76777E-01  5977   0.899E-01    0.167E+00
RMM:  19    -0.413169407948E+03    0.69909E-02   -0.28692E-01  5690   0.577E-01    0.871E-01
RMM:  20    -0.413188025494E+03   -0.18618E-01   -0.25957E-01  5562   0.535E-01    0.603E-01
RMM:  21    -0.413168163523E+03    0.19862E-01   -0.34658E-02  4990   0.239E-01    0.272E-01
RMM:  22    -0.413165604423E+03    0.25591E-02   -0.18767E-02  5984   0.127E-01    0.135E-01
RMM:  23    -0.413164522119E+03    0.10823E-02   -0.56743E-03  6017   0.682E-02    0.854E-02
RMM:  24    -0.413163282953E+03    0.12392E-02   -0.15944E-03  5302   0.414E-02    0.477E-02
RMM:  25    -0.413162827017E+03    0.45594E-03   -0.81743E-04  5218   0.279E-02    0.376E-02
RMM:  26    -0.413162966548E+03   -0.13953E-03   -0.87600E-04  5811   0.306E-02    0.324E-02
RMM:  27    -0.413163415705E+03   -0.44916E-03   -0.19360E-04  4544   0.204E-02    0.179E-02
RMM:  28    -0.413163871949E+03   -0.45624E-03   -0.15875E-04  5177   0.180E-02    0.955E-03
RMM:  29    -0.413164272205E+03   -0.40026E-03   -0.10818E-04  4452   0.158E-02    0.420E-03
RMM:  30    -0.413164501413E+03   -0.22921E-03   -0.80629E-05  4341   0.104E-02    0.374E-03
RMM:  31    -0.413164624507E+03   -0.12309E-03   -0.51924E-05  3234   0.673E-03    0.347E-03
RMM:  32    -0.413164647668E+03   -0.23161E-04   -0.20208E-05  2964   0.304E-03    0.171E-03
RMM:  33    -0.413164658385E+03   -0.10717E-04   -0.84852E-06  2796   0.221E-03    0.612E-04
RMM:  34    -0.413164660168E+03   -0.17824E-05   -0.46405E-06  2634   0.158E-03    0.644E-04
RMM:  35    -0.413164659887E+03    0.28067E-06   -0.20362E-06  2310   0.121E-03
    1 T=    61. E= -.41286687E+03 F= -.41316466E+03 E0= -.41314216E+03  EK= 0.29779E+00 SP= 0.00E+00 SK= 0.00E+00
       N       E                     dE             d eps       ncg     rms          rms(c)
RMM:   1    -0.413160155573E+03    0.45046E-02   -0.97801E+00  3989   0.647E-01    0.885E-01
RMM:   2    -0.413167708021E+03   -0.75524E-02   -0.11973E-01  4012   0.938E-02    0.647E-01
RMM:   3    -0.413164565377E+03    0.31426E-02   -0.11871E-02  4734   0.440E-02    0.102E-01
RMM:   4    -0.413184206567E+03   -0.19641E-01   -0.20625E-02  5208   0.119E-01    0.586E-01
RMM:   5    -0.413164243481E+03    0.19963E-01   -0.98620E-03  4856   0.982E-02    0.426E-02
RMM:   6    -0.413164380623E+03   -0.13714E-03   -0.17398E-03  5794   0.404E-02    0.295E-02
RMM:   7    -0.413164382614E+03   -0.19918E-05   -0.33390E-04  5664   0.168E-02    0.177E-02
RMM:   8    -0.413164382018E+03    0.59648E-06   -0.40865E-05  4861   0.702E-03    0.771E-03
RMM:   9    -0.413164385167E+03   -0.31494E-05   -0.88053E-06  3334   0.318E-03    0.598E-03
RMM:  10    -0.413164390215E+03   -0.50473E-05   -0.17073E-06  2559   0.199E-03    0.367E-03
RMM:  11    -0.413164395832E+03   -0.56178E-05   -0.13500E-06  2535   0.171E-03    0.178E-03
RMM:  12    -0.413164402450E+03   -0.66173E-05   -0.13306E-06  2530   0.162E-03    0.755E-04
RMM:  13    -0.413164403746E+03   -0.12967E-05   -0.50145E-07  2213   0.107E-03    0.457E-04
RMM:  14    -0.413164404188E+03   -0.44164E-06   -0.29319E-07  1631   0.767E-04
    2 T=    61. E= -.41286666E+03 F= -.41316440E+03 E0= -.41314190E+03  EK= 0.29774E+00 SP= 0.00E+00 SK= 0.00E+00
       N       E                     dE             d eps       ncg     rms          rms(c)
RMM:   1    -0.413161216553E+03    0.31872E-02   -0.97896E+00  4192   0.651E-01    0.906E-01
RMM:   2    -0.413167727007E+03   -0.65105E-02   -0.11791E-01  4003   0.927E-02    0.642E-01
RMM:   3    -0.413165232955E+03    0.24941E-02   -0.11688E-02  4812   0.451E-02    0.123E-01
RMM:   4    -0.413191227257E+03   -0.25994E-01   -0.26800E-02  5178   0.137E-01    0.674E-01
RMM:   5    -0.413164762647E+03    0.26465E-01   -0.12761E-02  4831   0.113E-01    0.467E-02
RMM:   6    -0.413164943010E+03   -0.18036E-03   -0.22980E-03  5772   0.462E-02    0.319E-02
RMM:   7    -0.413164938457E+03    0.45529E-05   -0.39243E-04  5678   0.182E-02    0.196E-02
RMM:   8    -0.413164931316E+03    0.71410E-05   -0.54543E-05  5058   0.806E-03    0.898E-03
RMM:   9    -0.413164929801E+03    0.15154E-05   -0.11156E-05  3700   0.371E-03    0.682E-03
RMM:  10    -0.413164930011E+03   -0.21057E-06   -0.17363E-06  2556   0.213E-03
    3 T=    61. E= -.41286693E+03 F= -.41316493E+03 E0= -.41314243E+03  EK= 0.29800E+00 SP= 0.00E+00 SK= 0.00E+00
       N       E                     dE             d eps       ncg     rms          rms(c)
RMM:   1    -0.413160701065E+03    0.42287E-02   -0.97126E+00  4221   0.653E-01    0.891E-01
RMM:   2    -0.413167411594E+03   -0.67105E-02   -0.11735E-01  4216   0.918E-02    0.636E-01
RMM:   3    -0.413168935905E+03   -0.15243E-02   -0.14548E-02  5156   0.737E-02    0.293E-01
RMM:   4    -0.413192821191E+03   -0.23885E-01   -0.40542E-02  5124   0.171E-01    0.693E-01
RMM:   5    -0.413164639662E+03    0.28182E-01   -0.11341E-02  4723   0.114E-01    0.596E-02
RMM:   6    -0.413164681691E+03   -0.42029E-04   -0.20940E-03  5505   0.459E-02    0.297E-02
RMM:   7    -0.413164703117E+03   -0.21425E-04   -0.37342E-04  6030   0.171E-02    0.184E-02
RMM:   8    -0.413164700414E+03    0.27027E-05   -0.68008E-05  5243   0.914E-03    0.791E-03
RMM:   9    -0.413164698280E+03    0.21337E-05   -0.93919E-06  3522   0.377E-03    0.393E-03
RMM:  10    -0.413164699443E+03   -0.11629E-05   -0.19788E-06  2584   0.217E-03    0.258E-03
RMM:  11    -0.413164701158E+03   -0.17146E-05   -0.14521E-06  2539   0.187E-03    0.155E-03
RMM:  12    -0.413164702025E+03   -0.86697E-06   -0.74606E-07  2489   0.142E-03
    4 T=    61. E= -.41286669E+03 F= -.41316470E+03 E0= -.41314221E+03  EK= 0.29801E+00 SP= 0.00E+00 SK= 0.00E+00
       N       E                     dE             d eps       ncg     rms          rms(c)
RMM:   1    -0.413160875363E+03    0.38258E-02   -0.97689E+00  4237   0.664E-01    0.883E-01
RMM:   2    -0.413167933182E+03   -0.70578E-02   -0.11987E-01  4031   0.907E-02    0.646E-01
RMM:   3    -0.413165276632E+03    0.26566E-02   -0.11974E-02  4936   0.440E-02    0.121E-01
RMM:   4    -0.413195873348E+03   -0.30597E-01   -0.31992E-02  5149   0.149E-01    0.730E-01
RMM:   5    -0.413164665009E+03    0.31208E-01   -0.14967E-02  4818   0.121E-01    0.471E-02
RMM:   6    -0.413164857077E+03   -0.19207E-03   -0.25124E-03  5769   0.491E-02    0.305E-02
RMM:   7    -0.413164863619E+03   -0.65416E-05   -0.39952E-04  5785   0.181E-02    0.193E-02
RMM:   8    -0.413164862851E+03    0.76778E-06   -0.62954E-05  5081   0.835E-03    0.907E-03
RMM:   9    -0.413164863797E+03   -0.94561E-06   -0.12395E-05  3852   0.397E-03    0.665E-03
RMM:  10    -0.413164867827E+03   -0.40303E-05   -0.18336E-06  2574   0.210E-03    0.424E-03
RMM:  11    -0.413164872031E+03   -0.42036E-05   -0.12710E-06  2533   0.176E-03    0.221E-03
RMM:  12    -0.413164877847E+03   -0.58159E-05   -0.17691E-06  2588   0.189E-03    0.970E-04
RMM:  13    -0.413164878981E+03   -0.11346E-05   -0.49650E-07  2333   0.121E-03    0.649E-04
RMM:  14    -0.413164878988E+03   -0.65047E-08   -0.21607E-07  1763   0.813E-04
    5 T=    61. E= -.41286672E+03 F= -.41316488E+03 E0= -.41314240E+03  EK= 0.29816E+00 SP= 0.00E+00 SK= 0.00E+00
       N       E                     dE             d eps       ncg     rms          rms(c)
RMM:   1    -0.413161884799E+03    0.29942E-02   -0.97930E+00  4247   0.672E-01    0.902E-01
RMM:   2    -0.413168005041E+03   -0.61202E-02   -0.11825E-01  4057   0.920E-02    0.644E-01
RMM:   3    -0.413165548819E+03    0.24562E-02   -0.11721E-02  4786   0.423E-02    0.114E-01
RMM:   4    -0.413186952689E+03   -0.21404E-01   -0.21826E-02  5156   0.123E-01    0.613E-01
RMM:   5    -0.413165193587E+03    0.21759E-01   -0.10607E-02  4827   0.102E-01    0.439E-02
RMM:   6    -0.413165339115E+03   -0.14553E-03   -0.18693E-03  5773   0.417E-02    0.300E-02
RMM:   7    -0.413165333439E+03    0.56761E-05   -0.33866E-04  5636   0.173E-02    0.185E-02
RMM:   8    -0.413165325961E+03    0.74777E-05   -0.48139E-05  4935   0.767E-03    0.858E-03
RMM:   9    -0.413165324696E+03    0.12654E-05   -0.93381E-06  3514   0.349E-03    0.661E-03
RMM:  10    -0.413165325094E+03   -0.39814E-06   -0.16026E-06  2545   0.210E-03
    6 T=    61. E= -.41286693E+03 F= -.41316533E+03 E0= -.41314286E+03  EK= 0.29839E+00 SP= 0.00E+00 SK= 0.00E+00
       N       E                     dE             d eps       ncg     rms          rms(c)
RMM:   1    -0.413161210987E+03    0.41137E-02   -0.97322E+00  4255   0.666E-01    0.897E-01
RMM:   2    -0.413167785566E+03   -0.65746E-02   -0.11751E-01  4227   0.915E-02    0.637E-01
RMM:   3    -0.413168293612E+03   -0.50805E-03   -0.13796E-02  5109   0.666E-02    0.259E-01
RMM:   4    -0.413197399014E+03   -0.29105E-01   -0.42692E-02  5124   0.174E-01    0.742E-01
RMM:   5    -0.413165023435E+03    0.32376E-01   -0.13717E-02  4753   0.122E-01    0.595E-02
RMM:   6    -0.413165106304E+03   -0.82869E-04   -0.24465E-03  5568   0.492E-02    0.304E-02
RMM:   7    -0.413165124841E+03   -0.18537E-04   -0.40107E-04  6024   0.173E-02    0.186E-02
RMM:   8    -0.413165121369E+03    0.34720E-05   -0.69251E-05  5219   0.908E-03    0.808E-03
RMM:   9    -0.413165117773E+03    0.35961E-05   -0.98351E-06  3491   0.372E-03    0.415E-03
RMM:  10    -0.413165117684E+03    0.89873E-07   -0.23136E-06  2595   0.224E-03
    7 T=    61. E= -.41286672E+03 F= -.41316512E+03 E0= -.41314267E+03  EK= 0.29840E+00 SP= 0.00E+00 SK= 0.00E+00
       N       E                     dE             d eps       ncg     rms          rms(c)
RMM:   1    -0.413161468142E+03    0.36496E-02   -0.97417E+00  4264   0.671E-01    0.881E-01
RMM:   2    -0.413168850668E+03   -0.73825E-02   -0.11904E-01  4152   0.915E-02    0.644E-01
RMM:   3    -0.413166388521E+03    0.24621E-02   -0.12117E-02  4969   0.496E-02    0.141E-01
RMM:   4    -0.413203485855E+03   -0.37097E-01   -0.39943E-02  5140   0.167E-01    0.803E-01
RMM:   5    -0.413165459930E+03    0.38026E-01   -0.18008E-02  4804   0.134E-01    0.510E-02
RMM:   6    -0.413165668755E+03   -0.20883E-03   -0.30143E-03  5756   0.541E-02    0.315E-02
RMM:   7    -0.413165680034E+03   -0.11279E-04   -0.46718E-04  5865   0.190E-02    0.204E-02
RMM:   8    -0.413165678796E+03    0.12382E-05   -0.70945E-05  5201   0.879E-03    0.950E-03
RMM:   9    -0.413165678321E+03    0.47500E-06   -0.13794E-05  3949   0.415E-03    0.650E-03
RMM:  10    -0.413165681263E+03   -0.29425E-05   -0.21950E-06  2592   0.218E-03    0.420E-03
RMM:  11    -0.413165684089E+03   -0.28261E-05   -0.12371E-06  2530   0.174E-03    0.221E-03
RMM:  12    -0.413165687947E+03   -0.38574E-05   -0.17276E-06  2575   0.189E-03    0.886E-04
RMM:  13    -0.413165688954E+03   -0.10069E-05   -0.56638E-07  2340   0.125E-03    0.651E-04
RMM:  14    -0.413165688771E+03    0.18267E-06   -0.23445E-07  1840   0.837E-04
    8 T=    61. E= -.41286697E+03 F= -.41316569E+03 E0= -.41314326E+03  EK= 0.29871E+00 SP= 0.00E+00 SK= 0.00E+00
       N       E                     dE             d eps       ncg     rms          rms(c)
RMM:   1    -0.413162275676E+03    0.34133E-02   -0.97902E+00  4282   0.688E-01    0.898E-01
RMM:   2    -0.413168952540E+03   -0.66769E-02   -0.11865E-01  4169   0.936E-02    0.646E-01
RMM:   3    -0.413166120233E+03    0.28323E-02   -0.11846E-02  4790   0.433E-02    0.112E-01
RMM:   4    -0.413188960537E+03   -0.22840E-01   -0.23440E-02  5152   0.127E-01    0.633E-01
RMM:   5    -0.413165725771E+03    0.23235E-01   -0.11347E-02  4812   0.105E-01    0.439E-02
RMM:   6    -0.413165871657E+03   -0.14589E-03   -0.19444E-03  5783   0.425E-02    0.292E-02
RMM:   7    -0.413165870873E+03    0.78442E-06   -0.33453E-04  5642   0.173E-02    0.183E-02
RMM:   8    -0.413165863416E+03    0.74572E-05   -0.52771E-05  4955   0.792E-03    0.873E-03
RMM:   9    -0.413165861869E+03    0.15465E-05   -0.10498E-05  3675   0.368E-03    0.671E-03
RMM:  10    -0.413165862498E+03   -0.62856E-06   -0.15848E-06  2546   0.208E-03
    9 T=    61. E= -.41286686E+03 F= -.41316586E+03 E0= -.41314345E+03  EK= 0.29901E+00 SP= 0.00E+00 SK= 0.00E+00
       N       E                     dE             d eps       ncg     rms          rms(c)
RMM:   1    -0.413162277948E+03    0.35839E-02   -0.97625E+00  4297   0.680E-01    0.904E-01
RMM:   2    -0.413168690713E+03   -0.64128E-02   -0.11753E-01  4279   0.947E-02    0.639E-01
RMM:   3    -0.413169208212E+03   -0.51750E-03   -0.14015E-02  5094   0.690E-02    0.263E-01
RMM:   4    -0.413197590415E+03   -0.28382E-01   -0.42277E-02  5108   0.173E-01    0.735E-01
RMM:   5    -0.413165826588E+03    0.31764E-01   -0.13389E-02  4739   0.121E-01    0.589E-02
RMM:   6    -0.413165911751E+03   -0.85163E-04   -0.24071E-03  5575   0.486E-02    0.308E-02
RMM:   7    -0.413165923660E+03   -0.11908E-04   -0.39157E-04  5999   0.171E-02    0.188E-02
RMM:   8    -0.413165918318E+03    0.53422E-05   -0.68397E-05  5216   0.902E-03    0.814E-03
RMM:   9    -0.413165913407E+03    0.49103E-05   -0.97675E-06  3508   0.374E-03    0.416E-03
RMM:  10    -0.413165912191E+03    0.12166E-05   -0.22616E-06  2587   0.223E-03    0.282E-03
RMM:  11    -0.413165910314E+03    0.18767E-05   -0.13023E-06  2522   0.181E-03    0.150E-03
RMM:  12    -0.413165908409E+03    0.19048E-05   -0.78350E-07  2483   0.142E-03    0.541E-04
RMM:  13    -0.413165907454E+03    0.95480E-06   -0.38205E-07  2108   0.101E-03
   10 T=    61. E= -.41286663E+03 F= -.41316591E+03 E0= -.41314352E+03  EK= 0.29928E+00 SP= 0.00E+00 SK= 0.00E+00
       N       E                     dE             d eps       ncg     rms          rms(c)
RMM:   1    -0.413162571213E+03    0.33372E-02   -0.97270E+00  4292   0.685E-01    0.882E-01
RMM:   2    -0.413169703536E+03   -0.71323E-02   -0.11873E-01  4227   0.948E-02    0.642E-01
RMM:   3    -0.413167124402E+03    0.25791E-02   -0.11866E-02  4870   0.473E-02    0.126E-01
RMM:   4    -0.413198808494E+03   -0.31684E-01   -0.33316E-02  5137   0.152E-01    0.742E-01
RMM:   5    -0.413166469481E+03    0.32339E-01   -0.15633E-02  4807   0.123E-01    0.478E-02
RMM:   6    -0.413166664853E+03   -0.19537E-03   -0.26057E-03  5768   0.496E-02    0.313E-02
RMM:   7    -0.413166667015E+03   -0.21619E-05   -0.41442E-04  5727   0.184E-02    0.198E-02
RMM:   8    -0.413166662085E+03    0.49299E-05   -0.63414E-05  5095   0.845E-03    0.929E-03
RMM:   9    -0.413166660341E+03    0.17442E-05   -0.12764E-05  3868   0.402E-03    0.678E-03
RMM:  10    -0.413166661474E+03   -0.11332E-05   -0.18449E-06  2569   0.211E-03    0.432E-03
RMM:  11    -0.413166662740E+03   -0.12658E-05   -0.13038E-06  2522   0.179E-03    0.218E-03
RMM:  12    -0.413166664214E+03   -0.14737E-05   -0.16153E-06  2567   0.186E-03    0.921E-04
RMM:  13    -0.413166664420E+03   -0.20672E-06   -0.47773E-07  2318   0.120E-03
   11 T=    61. E= -.41286691E+03 F= -.41316666E+03 E0= -.41314430E+03  EK= 0.29975E+00 SP= 0.00E+00 SK= 0.00E+00
       N       E                     dE             d eps       ncg     rms          rms(c)
RMM:   1    -0.413162670828E+03    0.39934E-02   -0.97971E+00  4295   0.689E-01    0.894E-01
RMM:   2    -0.413169674842E+03   -0.70040E-02   -0.11950E-01  4226   0.940E-02    0.649E-01
RMM:   3    -0.413166907269E+03    0.27676E-02   -0.11988E-02  4796   0.437E-02    0.112E-01
RMM:   4    -0.413191483800E+03   -0.24577E-01   -0.25397E-02  5132   0.132E-01    0.655E-01
RMM:   5    -0.413166468857E+03    0.25015E-01   -0.12141E-02  4808   0.108E-01    0.444E-02
RMM:   6    -0.413166629979E+03   -0.16112E-03   -0.20951E-03  5807   0.435E-02    0.288E-02
RMM:   7    -0.413166634919E+03   -0.49397E-05   -0.33164E-04  5694   0.171E-02    0.183E-02
RMM:   8    -0.413166628550E+03    0.63686E-05   -0.58818E-05  4966   0.817E-03    0.904E-03
RMM:   9    -0.413166626862E+03    0.16885E-05   -0.11416E-05  3815   0.388E-03    0.691E-03
RMM:  10    -0.413166627675E+03   -0.81306E-06   -0.16219E-06  2546   0.209E-03
   12 T=    61. E= -.41286661E+03 F= -.41316663E+03 E0= -.41314430E+03  EK= 0.30002E+00 SP= 0.00E+00 SK= 0.00E+00
       N       E                     dE             d eps       ncg     rms          rms(c)
RMM:   1    -0.413163710670E+03    0.29162E-02   -0.97917E+00  4304   0.693E-01    0.909E-01
RMM:   2    -0.413169659373E+03   -0.59487E-02   -0.11792E-01  4302   0.896E-02    0.642E-01
RMM:   3    -0.413170976185E+03   -0.13168E-02   -0.14604E-02  5121   0.696E-02    0.280E-01
RMM:   4    -0.413196992390E+03   -0.26016E-01   -0.41736E-02  5100   0.172E-01    0.713E-01
RMM:   5    -0.413167108886E+03    0.29884E-01   -0.12291E-02  4721   0.117E-01    0.588E-02
RMM:   6    -0.413167180354E+03   -0.71469E-04   -0.22849E-03  5550   0.470E-02    0.308E-02
RMM:   7    -0.413167191247E+03   -0.10893E-04   -0.37927E-04  5996   0.171E-02    0.189E-02
RMM:   8    -0.413167184645E+03    0.66025E-05   -0.66824E-05  5189   0.902E-03    0.809E-03
RMM:   9    -0.413167178705E+03    0.59394E-05   -0.93273E-06  3476   0.371E-03    0.412E-03
RMM:  10    -0.413167176727E+03    0.19786E-05   -0.21205E-06  2575   0.220E-03    0.275E-03
RMM:  11    -0.413167173675E+03    0.30514E-05   -0.12955E-06  2515   0.181E-03    0.150E-03
RMM:  12    -0.413167170850E+03    0.28255E-05   -0.74850E-07  2476   0.141E-03    0.541E-04
RMM:  13    -0.413167169387E+03    0.14630E-05   -0.36787E-07  2092   0.100E-03    0.328E-04
RMM:  14    -0.413167168030E+03    0.13566E-05   -0.22037E-07  1636   0.802E-04    0.226E-04
RMM:  15    -0.413167165849E+03    0.21807E-05   -0.20195E-07  1503   0.753E-04    0.127E-04
RMM:  16    -0.413167163736E+03    0.21135E-05   -0.16394E-07  1375   0.699E-04    0.123E-04
RMM:  17    -0.413167161605E+03    0.21315E-05   -0.13947E-07  1360   0.671E-04    0.659E-05
RMM:  18    -0.413167160379E+03    0.12251E-05   -0.79520E-08  1063   0.588E-04    0.336E-05
RMM:  19    -0.413167159610E+03    0.76902E-06   -0.47812E-08   898   0.550E-04
   13 T=    61. E= -.41286671E+03 F= -.41316716E+03 E0= -.41314486E+03  EK= 0.30045E+00 SP= 0.00E+00 SK= 0.00E+00
       N       E                     dE             d eps       ncg     rms          rms(c)
RMM:   1    -0.413163760973E+03    0.33994E-02   -0.97205E+00  4294   0.696E-01    0.885E-01
RMM:   2    -0.413170707263E+03   -0.69463E-02   -0.11845E-01  4237   0.922E-02    0.640E-01
RMM:   3    -0.413168416380E+03    0.22909E-02   -0.11877E-02  4930   0.451E-02    0.133E-01
RMM:   4    -0.413202030350E+03   -0.33614E-01   -0.35815E-02  5135   0.157E-01    0.764E-01
RMM:   5    -0.413167690756E+03    0.34340E-01   -0.16646E-02  4797   0.127E-01    0.491E-02
RMM:   6    -0.413167886084E+03   -0.19533E-03   -0.27514E-03  5754   0.510E-02    0.320E-02
RMM:   7    -0.413167884565E+03    0.15183E-05   -0.42855E-04  5705   0.187E-02    0.202E-02
RMM:   8    -0.413167878343E+03    0.62230E-05   -0.65852E-05  5136   0.863E-03    0.948E-03
RMM:   9    -0.413167875268E+03    0.30750E-05   -0.13468E-05  3952   0.412E-03    0.678E-03
RMM:  10    -0.413167875087E+03    0.18063E-06   -0.18987E-06  2559   0.213E-03
   14 T=    61. E= -.41286696E+03 F= -.41316788E+03 E0= -.41314561E+03  EK= 0.30091E+00 SP= 0.00E+00 SK= 0.00E+00
       N       E                     dE             d eps       ncg     rms          rms(c)
RMM:   1    -0.413164525208E+03    0.33501E-02   -0.98105E+00  4303   0.713E-01    0.890E-01
RMM:   2    -0.413171210406E+03   -0.66852E-02   -0.12051E-01  4317   0.941E-02    0.651E-01
RMM:   3    -0.413172985597E+03   -0.17752E-02   -0.15886E-02  5126   0.772E-02    0.314E-01
RMM:   4    -0.413196871693E+03   -0.23886E-01   -0.43653E-02  5092   0.177E-01    0.702E-01
RMM:   5    -0.413167828710E+03    0.29043E-01   -0.11481E-02  4696   0.115E-01    0.586E-02
RMM:   6    -0.413167881565E+03   -0.52855E-04   -0.21633E-03  5517   0.456E-02    0.289E-02
RMM:   7    -0.413167900892E+03   -0.19328E-04   -0.35419E-04  5989   0.169E-02    0.181E-02
RMM:   8    -0.413167900341E+03    0.55191E-06   -0.67453E-05  5171   0.906E-03    0.778E-03
RMM:   9    -0.413167898194E+03    0.21465E-05   -0.93747E-06  3455   0.377E-03    0.385E-03
RMM:  10    -0.413167899199E+03   -0.10052E-05   -0.19326E-06  2565   0.212E-03    0.254E-03
RMM:  11    -0.413167900626E+03   -0.14270E-05   -0.14649E-06  2535   0.186E-03    0.154E-03
RMM:  12    -0.413167901037E+03   -0.41080E-06   -0.71181E-07  2466   0.140E-03
   15 T=    61. E= -.41286664E+03 F= -.41316790E+03 E0= -.41314567E+03  EK= 0.30126E+00 SP= 0.00E+00 SK= 0.00E+00
       N       E                     dE             d eps       ncg     rms          rms(c)
RMM:   1    -0.413165402851E+03    0.24978E-02   -0.98125E+00  4298   0.704E-01    0.911E-01
RMM:   2    -0.413171855217E+03   -0.64524E-02   -0.11853E-01  4253   0.956E-02    0.645E-01
RMM:   3    -0.413169532049E+03    0.23232E-02   -0.12179E-02  4920   0.482E-02    0.143E-01
RMM:   4    -0.413204906949E+03   -0.35375E-01   -0.37832E-02  5129   0.161E-01    0.783E-01
RMM:   5    -0.413168743035E+03    0.36164E-01   -0.17473E-02  4791   0.130E-01    0.506E-02
RMM:   6    -0.413168946643E+03   -0.20361E-03   -0.29495E-03  5761   0.526E-02    0.335E-02
RMM:   7    -0.413168940889E+03    0.57538E-05   -0.45331E-04  5733   0.195E-02    0.212E-02
RMM:   8    -0.413168930292E+03    0.10597E-04   -0.72015E-05  5162   0.903E-03    0.103E-02
RMM:   9    -0.413168924006E+03    0.62857E-05   -0.14215E-05  4035   0.425E-03    0.726E-03
RMM:  10    -0.413168920215E+03    0.37915E-05   -0.20702E-06  2577   0.221E-03    0.458E-03
RMM:  11    -0.413168917074E+03    0.31408E-05   -0.12642E-06  2521   0.178E-03    0.248E-03
RMM:  12    -0.413168911763E+03    0.53116E-05   -0.17900E-06  2577   0.199E-03    0.100E-03
RMM:  13    -0.413168909739E+03    0.20231E-05   -0.56006E-07  2378   0.130E-03    0.741E-04
RMM:  14    -0.413168909771E+03   -0.32043E-07   -0.24010E-07  1916   0.860E-04
   16 T=    61. E= -.41286691E+03 F= -.41316891E+03 E0= -.41314671E+03  EK= 0.30200E+00 SP= 0.00E+00 SK= 0.00E+00
       N       E                     dE             d eps       ncg     rms          rms(c)
RMM:   1    -0.413165538598E+03    0.33711E-02   -0.97400E+00  4298   0.708E-01    0.891E-01
RMM:   2    -0.413172418195E+03   -0.68796E-02   -0.11842E-01  4260   0.953E-02    0.640E-01
RMM:   3    -0.413169771160E+03    0.26470E-02   -0.11759E-02  4804   0.469E-02    0.125E-01
RMM:   4    -0.413198579305E+03   -0.28808E-01   -0.30100E-02  5127   0.144E-01    0.708E-01
RMM:   5    -0.413169202906E+03    0.29376E-01   -0.14306E-02  4800   0.118E-01    0.471E-02
RMM:   6    -0.413169383224E+03   -0.18032E-03   -0.24667E-03  5780   0.474E-02    0.312E-02
RMM:   7    -0.413169381044E+03    0.21799E-05   -0.38860E-04  5669   0.183E-02    0.197E-02
RMM:   8    -0.413169370542E+03    0.10502E-04   -0.64075E-05  5045   0.856E-03    0.963E-03
RMM:   9    -0.413169365860E+03    0.46818E-05   -0.12828E-05  3943   0.407E-03    0.719E-03
RMM:  10    -0.413169363507E+03    0.23531E-05   -0.17528E-06  2552   0.213E-03    0.453E-03
RMM:  11    -0.413169361164E+03    0.23430E-05   -0.13395E-06  2520   0.184E-03    0.232E-03
RMM:  12    -0.413169357872E+03    0.32924E-05   -0.15176E-06  2541   0.188E-03    0.924E-04
RMM:  13    -0.413169356906E+03    0.96541E-06   -0.46727E-07  2307   0.121E-03
   17 T=    62. E= -.41286675E+03 F= -.41316936E+03 E0= -.41314720E+03  EK= 0.30261E+00 SP= 0.00E+00 SK= 0.00E+00
       N       E                     dE             d eps       ncg     rms          rms(c)
RMM:   1    -0.413166009970E+03    0.33479E-02   -0.98188E+00  4298   0.716E-01    0.889E-01
RMM:   2    -0.413173132746E+03   -0.71228E-02   -0.12072E-01  4274   0.950E-02    0.652E-01
RMM:   3    -0.413170202103E+03    0.29306E-02   -0.12377E-02  4810   0.473E-02    0.115E-01
RMM:   4    -0.413198668273E+03   -0.28466E-01   -0.29735E-02  5126   0.143E-01    0.704E-01
RMM:   5    -0.413169655142E+03    0.29013E-01   -0.14182E-02  4802   0.117E-01    0.460E-02
RMM:   6    -0.413169830404E+03   -0.17526E-03   -0.23842E-03  5790   0.468E-02    0.297E-02
RMM:   7    -0.413169834354E+03   -0.39494E-05   -0.36854E-04  5714   0.178E-02    0.189E-02
RMM:   8    -0.413169827566E+03    0.67882E-05   -0.65294E-05  5018   0.851E-03    0.944E-03
RMM:   9    -0.413169824699E+03    0.28669E-05   -0.13093E-05  4007   0.412E-03    0.704E-03
RMM:  10    -0.413169824748E+03   -0.49055E-07   -0.17316E-06  2552   0.210E-03
   18 T=    62. E= -.41286659E+03 F= -.41316982E+03 E0= -.41314771E+03  EK= 0.30323E+00 SP= 0.00E+00 SK= 0.00E+00
       N       E                     dE             d eps       ncg     rms          rms(c)
RMM:   1    -0.413167600540E+03    0.22242E-02   -0.98418E+00  4306   0.719E-01    0.910E-01
RMM:   2    -0.413173869129E+03   -0.62686E-02   -0.11952E-01  4329   0.932E-02    0.649E-01
RMM:   3    -0.413175794654E+03   -0.19255E-02   -0.15556E-02  5107   0.759E-02    0.307E-01
RMM:   4    -0.413198992807E+03   -0.23198E-01   -0.41707E-02  5087   0.173E-01    0.690E-01
RMM:   5    -0.413171011672E+03    0.27981E-01   -0.11186E-02  4691   0.113E-01    0.582E-02
RMM:   6    -0.413171067252E+03   -0.55580E-04   -0.21105E-03  5517   0.451E-02    0.305E-02
RMM:   7    -0.413171076738E+03   -0.94860E-05   -0.36159E-04  5975   0.169E-02    0.188E-02
RMM:   8    -0.413171069246E+03    0.74918E-05   -0.66704E-05  5161   0.904E-03    0.801E-03
RMM:   9    -0.413171062364E+03    0.68828E-05   -0.91147E-06  3448   0.374E-03    0.398E-03
RMM:  10    -0.413171059917E+03    0.24470E-05   -0.19671E-06  2561   0.217E-03    0.263E-03
RMM:  11    -0.413171055877E+03    0.40394E-05   -0.12863E-06  2511   0.181E-03    0.149E-03
RMM:  12    -0.413171052511E+03    0.33660E-05   -0.66911E-07  2454   0.138E-03    0.538E-04
RMM:  13    -0.413171050526E+03    0.19855E-05   -0.33653E-07  2059   0.981E-04    0.321E-04
RMM:  14    -0.413171048765E+03    0.17610E-05   -0.19549E-07  1592   0.785E-04    0.221E-04
RMM:  15    -0.413171045778E+03    0.29870E-05   -0.17009E-07  1419   0.729E-04    0.122E-04
RMM:  16    -0.413171043117E+03    0.26613E-05   -0.13014E-07  1299   0.676E-04    0.115E-04
RMM:  17    -0.413171040147E+03    0.29695E-05   -0.12192E-07  1358   0.667E-04    0.666E-05
RMM:  18    -0.413171038640E+03    0.15073E-05   -0.62996E-08   999   0.579E-04    0.364E-05
RMM:  19    -0.413171037762E+03    0.87789E-06   -0.35605E-08   832   0.546E-04
   19 T=    62. E= -.41286691E+03 F= -.41317104E+03 E0= -.41314896E+03  EK= 0.30413E+00 SP= 0.00E+00 SK= 0.00E+00
       N       E                     dE             d eps       ncg     rms          rms(c)
RMM:   1    -0.413167783351E+03    0.32553E-02   -0.97830E+00  4296   0.718E-01    0.900E-01
RMM:   2    -0.413174055733E+03   -0.62724E-02   -0.11896E-01  4269   0.923E-02    0.642E-01
RMM:   3    -0.413172067825E+03    0.19879E-02   -0.12130E-02  4963   0.467E-02    0.144E-01
RMM:   4    -0.413208278508E+03   -0.36211E-01   -0.39127E-02  5129   0.164E-01    0.792E-01
RMM:   5    -0.413171220301E+03    0.37058E-01   -0.17915E-02  4790   0.132E-01    0.512E-02
RMM:   6    -0.413171429216E+03   -0.20892E-03   -0.30071E-03  5748   0.532E-02    0.336E-02
RMM:   7    -0.413171424399E+03    0.48168E-05   -0.46640E-04  5710   0.196E-02    0.214E-02
RMM:   8    -0.413171414074E+03    0.10325E-04   -0.73191E-05  5182   0.909E-03    0.102E-02
RMM:   9    -0.413171407688E+03    0.63857E-05   -0.14673E-05  4086   0.430E-03    0.713E-03
RMM:  10    -0.413171404075E+03    0.36134E-05   -0.20762E-06  2575   0.220E-03    0.453E-03
RMM:  11    -0.413171401205E+03    0.28702E-05   -0.11860E-06  2514   0.173E-03    0.250E-03
RMM:  12    -0.413171396357E+03    0.48480E-05   -0.15895E-06  2538   0.195E-03    0.978E-04
RMM:  13    -0.413171394357E+03    0.19997E-05   -0.55296E-07  2360   0.130E-03    0.758E-04
RMM:  14    -0.413171394437E+03   -0.80050E-07   -0.24103E-07  1917   0.864E-04
   20 T=    62. E= -.41286666E+03 F= -.41317139E+03 E0= -.41314936E+03  EK= 0.30473E+00 SP= 0.00E+00 SK= 0.00E+00
       N       E                     dE             d eps       ncg     rms          rms(c)
RMM:   1    -0.413168645419E+03    0.27489E-02   -0.98303E+00  4294   0.729E-01    0.889E-01
RMM:   2    -0.413175836951E+03   -0.71915E-02   -0.12141E-01  4275   0.935E-02    0.652E-01
RMM:   3    -0.413172887688E+03    0.29493E-02   -0.12411E-02  4859   0.452E-02    0.113E-01
RMM:   4    -0.413199805485E+03   -0.26918E-01   -0.28133E-02  5130   0.139E-01    0.685E-01
RMM:   5    -0.413172385233E+03    0.27420E-01   -0.13471E-02  4801   0.113E-01    0.455E-02
RMM:   6    -0.413172545591E+03   -0.16036E-03   -0.22655E-03  5815   0.453E-02    0.291E-02
RMM:   7    -0.413172549534E+03   -0.39437E-05   -0.33533E-04  5675   0.174E-02    0.180E-02
RMM:   8    -0.413172543179E+03    0.63552E-05   -0.65697E-05  5011   0.847E-03    0.960E-03
RMM:   9    -0.413172539100E+03    0.40787E-05   -0.12869E-05  4008   0.413E-03    0.712E-03
RMM:  10    -0.413172538394E+03    0.70630E-06   -0.16779E-06  2549   0.209E-03
   21 T=    62. E= -.41286694E+03 F= -.41317254E+03 E0= -.41315055E+03  EK= 0.30560E+00 SP= 0.00E+00 SK= 0.00E+00
       N       E                     dE             d eps       ncg     rms          rms(c)
RMM:   1    -0.413171196607E+03    0.13425E-02   -0.98842E+00  4295   0.753E-01    0.908E-01
RMM:   2    -0.413176742396E+03   -0.55458E-02   -0.12149E-01  4322   0.972E-02    0.653E-01
RMM:   3    -0.413177564665E+03   -0.82227E-03   -0.15022E-02  5091   0.724E-02    0.282E-01
RMM:   4    -0.413206012448E+03   -0.28448E-01   -0.44947E-02  5099   0.179E-01    0.741E-01
RMM:   5    -0.413173539077E+03    0.32473E-01   -0.13572E-02  4723   0.122E-01    0.580E-02
RMM:   6    -0.413173627577E+03   -0.88501E-04   -0.24455E-03  5600   0.487E-02    0.309E-02
RMM:   7    -0.413173635374E+03   -0.77969E-05   -0.38886E-04  5945   0.176E-02    0.192E-02
RMM:   8    -0.413173629204E+03    0.61707E-05   -0.70388E-05  5163   0.928E-03    0.830E-03
RMM:   9    -0.413173622569E+03    0.66348E-05   -0.10829E-05  3614   0.394E-03    0.422E-03
RMM:  10    -0.413173620040E+03    0.25286E-05   -0.22733E-06  2599   0.223E-03    0.288E-03
RMM:  11    -0.413173616444E+03    0.35958E-05   -0.11628E-06  2501   0.175E-03    0.151E-03
RMM:  12    -0.413173612614E+03    0.38306E-05   -0.70976E-07  2461   0.139E-03    0.487E-04
RMM:  13    -0.413173610526E+03    0.20876E-05   -0.34743E-07  2093   0.991E-04    0.291E-04
RMM:  14    -0.413173608669E+03    0.18569E-05   -0.19757E-07  1585   0.778E-04    0.181E-04
RMM:  15    -0.413173605610E+03    0.30597E-05   -0.15974E-07  1388   0.723E-04    0.120E-04
RMM:  16    -0.413173603366E+03    0.22433E-05   -0.10924E-07  1259   0.666E-04    0.124E-04
RMM:  17    -0.413173601048E+03    0.23182E-05   -0.89561E-08  1217   0.637E-04    0.714E-05
RMM:  18    -0.413173598905E+03    0.21435E-05   -0.67379E-08  1107   0.603E-04    0.286E-05
RMM:  19    -0.413173597916E+03    0.98840E-06   -0.36368E-08   874   0.554E-04
   22 T=    62. E= -.41286703E+03 F= -.41317360E+03 E0= -.41315166E+03  EK= 0.30657E+00 SP= 0.00E+00 SK= 0.00E+00
       N       E                     dE             d eps       ncg     rms          rms(c)
RMM:   1    -0.413170832369E+03    0.27665E-02   -0.98446E+00  4293   0.735E-01    0.909E-01
RMM:   2    -0.413177344178E+03   -0.65118E-02   -0.11988E-01  4281   0.968E-02    0.646E-01
RMM:   3    -0.413174803522E+03    0.25407E-02   -0.12263E-02  4881   0.488E-02    0.137E-01
RMM:   4    -0.413208252079E+03   -0.33449E-01   -0.35478E-02  5134   0.156E-01    0.761E-01
RMM:   5    -0.413174111830E+03    0.34140E-01   -0.16669E-02  4790   0.127E-01    0.499E-02
RMM:   6    -0.413174303264E+03   -0.19143E-03   -0.28382E-03  5786   0.511E-02    0.332E-02
RMM:   7    -0.413174299938E+03    0.33261E-05   -0.43036E-04  5690   0.193E-02    0.207E-02
RMM:   8    -0.413174288833E+03    0.11105E-04   -0.74815E-05  5126   0.916E-03    0.105E-02
RMM:   9    -0.413174281348E+03    0.74858E-05   -0.14926E-05  4141   0.439E-03    0.752E-03
RMM:  10    -0.413174276596E+03    0.47514E-05   -0.20386E-06  2578   0.222E-03    0.475E-03
RMM:  11    -0.413174272611E+03    0.39856E-05   -0.12560E-06  2514   0.180E-03    0.261E-03
RMM:  12    -0.413174266016E+03    0.65950E-05   -0.17138E-06  2551   0.202E-03    0.103E-03
RMM:  13    -0.413174263287E+03    0.27281E-05   -0.54250E-07  2359   0.132E-03    0.758E-04
RMM:  14    -0.413174263520E+03   -0.23286E-06   -0.24425E-07  1914   0.869E-04
   23 T=    63. E= -.41286673E+03 F= -.41317426E+03 E0= -.41315237E+03  EK= 0.30754E+00 SP= 0.00E+00 SK= 0.00E+00
       N       E                     dE             d eps       ncg     rms          rms(c)
RMM:   1    -0.413173584428E+03    0.67886E-03   -0.98724E+00  4297   0.763E-01    0.891E-01
RMM:   2    -0.413179433350E+03   -0.58489E-02   -0.12568E-01  4285   0.101E-01    0.652E-01
RMM:   3    -0.413176079171E+03    0.33542E-02   -0.12070E-02  4721   0.460E-02    0.110E-01
RMM:   4    -0.413197347079E+03   -0.21268E-01   -0.21860E-02  5137   0.123E-01    0.610E-01
RMM:   5    -0.413175736320E+03    0.21611E-01   -0.10753E-02  4810   0.101E-01    0.434E-02
RMM:   6    -0.413175849146E+03   -0.11283E-03   -0.18172E-03  5825   0.400E-02    0.266E-02
RMM:   7    -0.413175850340E+03   -0.11935E-05   -0.23086E-04  5629   0.150E-02    0.138E-02
RMM:   8    -0.413175847029E+03    0.33107E-05   -0.49418E-05  4976   0.723E-03    0.915E-03
RMM:   9    -0.413175842673E+03    0.43557E-05   -0.10427E-05  3818   0.373E-03    0.686E-03
RMM:  10    -0.413175841229E+03    0.14445E-05   -0.15052E-06  2535   0.209E-03    0.427E-03
RMM:  11    -0.413175839207E+03    0.20215E-05   -0.15587E-06  2532   0.199E-03    0.209E-03
RMM:  12    -0.413175836537E+03    0.26705E-05   -0.11546E-06  2486   0.170E-03    0.754E-04
RMM:  13    -0.413175835828E+03    0.70905E-06   -0.38279E-07  2184   0.108E-03
   24 T=    63. E= -.41286697E+03 F= -.41317584E+03 E0= -.41315399E+03  EK= 0.30887E+00 SP= 0.00E+00 SK= 0.00E+00
       N       E                     dE             d eps       ncg     rms          rms(c)
RMM:   1    -0.413173585154E+03    0.22514E-02   -0.99366E+00  4297   0.762E-01    0.907E-01
RMM:   2    -0.413180346665E+03   -0.67615E-02   -0.12297E-01  4284   0.102E-01    0.658E-01
RMM:   3    -0.413177022274E+03    0.33244E-02   -0.12464E-02  4680   0.475E-02    0.108E-01
RMM:   4    -0.413196818332E+03   -0.19796E-01   -0.20244E-02  5138   0.118E-01    0.589E-01
RMM:   5    -0.413176720604E+03    0.20098E-01   -0.99761E-03  4812   0.972E-02    0.431E-02
RMM:   6    -0.413176818719E+03   -0.98115E-04   -0.17094E-03  5825   0.385E-02    0.261E-02
RMM:   7    -0.413176816427E+03    0.22922E-05   -0.20310E-04  5619   0.142E-02    0.128E-02
RMM:   8    -0.413176812209E+03    0.42175E-05   -0.39740E-05  4878   0.653E-03    0.875E-03
RMM:   9    -0.413176808146E+03    0.40633E-05   -0.88769E-06  3587   0.342E-03    0.669E-03
RMM:  10    -0.413176805980E+03    0.21664E-05   -0.14431E-06  2527   0.207E-03    0.417E-03
RMM:  11    -0.413176802744E+03    0.32359E-05   -0.15909E-06  2532   0.201E-03    0.205E-03
RMM:  12    -0.413176798709E+03    0.40351E-05   -0.11278E-06  2483   0.170E-03    0.847E-04
RMM:  13    -0.413176797788E+03    0.92077E-06   -0.36816E-07  2192   0.108E-03
   25 T=    63. E= -.41286675E+03 F= -.41317680E+03 E0= -.41315500E+03  EK= 0.31005E+00 SP= 0.00E+00 SK= 0.00E+00
       N       E                     dE             d eps       ncg     rms          rms(c)
RMM:   1    -0.413174931600E+03    0.18671E-02   -0.99368E+00  4296   0.749E-01    0.919E-01
RMM:   2    -0.413181116889E+03   -0.61853E-02   -0.12128E-01  4284   0.989E-02    0.651E-01
RMM:   3    -0.413178418542E+03    0.26983E-02   -0.12324E-02  4692   0.464E-02    0.117E-01
RMM:   4    -0.413198471298E+03   -0.20053E-01   -0.20538E-02  5139   0.119E-01    0.593E-01
RMM:   5    -0.413178111809E+03    0.20359E-01   -0.10184E-02  4815   0.980E-02    0.444E-02
RMM:   6    -0.413178203753E+03   -0.91944E-04   -0.17402E-03  5824   0.390E-02    0.271E-02
RMM:   7    -0.413178195109E+03    0.86447E-05   -0.21673E-04  5624   0.149E-02    0.138E-02
RMM:   8    -0.413178188204E+03    0.69042E-05   -0.45923E-05  4935   0.705E-03    0.929E-03
RMM:   9    -0.413178181848E+03    0.63564E-05   -0.94250E-06  3691   0.360E-03    0.700E-03
RMM:  10    -0.413178176931E+03    0.49173E-05   -0.14678E-06  2525   0.211E-03    0.425E-03
RMM:  11    -0.413178170443E+03    0.64875E-05   -0.15324E-06  2535   0.198E-03    0.212E-03
RMM:  12    -0.413178162694E+03    0.77488E-05   -0.11012E-06  2476   0.169E-03    0.755E-04
RMM:  13    -0.413178160649E+03    0.20455E-05   -0.37832E-07  2187   0.108E-03    0.521E-04
RMM:  14    -0.413178159827E+03    0.82140E-06   -0.18172E-07  1659   0.776E-04
   26 T=    63. E= -.41286676E+03 F= -.41317816E+03 E0= -.41315641E+03  EK= 0.31140E+00 SP= 0.00E+00 SK= 0.00E+00
       N       E                     dE             d eps       ncg     rms          rms(c)
RMM:   1    -0.413182037608E+03   -0.38770E-02   -0.99668E+00  4295   0.816E-01    0.895E-01
RMM:   2    -0.413183099356E+03   -0.10617E-02   -0.13419E-01  4286   0.105E-01    0.654E-01
RMM:   3    -0.413180226742E+03    0.28726E-02   -0.11683E-02  4741   0.460E-02    0.125E-01
RMM:   4    -0.413203040120E+03   -0.22813E-01   -0.23494E-02  5147   0.128E-01    0.632E-01
RMM:   5    -0.413179872095E+03    0.23168E-01   -0.11599E-02  4812   0.105E-01    0.448E-02
RMM:   6    -0.413179988604E+03   -0.11651E-03   -0.19382E-03  5821   0.419E-02    0.292E-02
RMM:   7    -0.413179985789E+03    0.28157E-05   -0.30916E-04  5634   0.171E-02    0.175E-02
RMM:   8    -0.413179976989E+03    0.87992E-05   -0.59758E-05  4982   0.829E-03    0.928E-03
RMM:   9    -0.413179971601E+03    0.53883E-05   -0.11332E-05  3844   0.396E-03    0.682E-03
RMM:  10    -0.413179968702E+03    0.28996E-05   -0.15818E-06  2542   0.209E-03    0.420E-03
RMM:  11    -0.413179965475E+03    0.32264E-05   -0.12652E-06  2510   0.184E-03    0.206E-03
RMM:  12    -0.413179961470E+03    0.40056E-05   -0.11765E-06  2495   0.170E-03    0.790E-04
RMM:  13    -0.413179959999E+03    0.14707E-05   -0.39321E-07  2210   0.111E-03    0.489E-04
RMM:  14    -0.413179959555E+03    0.44372E-06   -0.18917E-07  1687   0.782E-04
   27 T=    64. E= -.41286700E+03 F= -.41317996E+03 E0= -.41315826E+03  EK= 0.31296E+00 SP= 0.00E+00 SK= 0.00E+00
       N       E                     dE             d eps       ncg     rms          rms(c)
RMM:   1    -0.413177942210E+03    0.20178E-02   -0.10019E+01  4298   0.777E-01    0.907E-01
RMM:   2    -0.413184369348E+03   -0.64271E-02   -0.12487E-01  4279   0.102E-01    0.663E-01
RMM:   3    -0.413181408907E+03    0.29604E-02   -0.12904E-02  4741   0.492E-02    0.108E-01
RMM:   4    -0.413203145477E+03   -0.21737E-01   -0.22274E-02  5144   0.125E-01    0.617E-01
RMM:   5    -0.413181071819E+03    0.22074E-01   -0.11017E-02  4811   0.102E-01    0.443E-02
RMM:   6    -0.413181180350E+03   -0.10853E-03   -0.18494E-03  5826   0.408E-02    0.281E-02
RMM:   7    -0.413181179161E+03    0.11889E-05   -0.28317E-04  5633   0.165E-02    0.165E-02
RMM:   8    -0.413181172102E+03    0.70586E-05   -0.58528E-05  4977   0.811E-03    0.924E-03
RMM:   9    -0.413181167053E+03    0.50492E-05   -0.11125E-05  3868   0.394E-03    0.679E-03
RMM:  10    -0.413181164721E+03    0.23318E-05   -0.15411E-06  2533   0.209E-03    0.415E-03
RMM:  11    -0.413181162067E+03    0.26545E-05   -0.13314E-06  2517   0.188E-03    0.203E-03
RMM:  12    -0.413181158733E+03    0.33336E-05   -0.11203E-06  2488   0.167E-03    0.752E-04
RMM:  13    -0.413181157508E+03    0.12246E-05   -0.38267E-07  2195   0.108E-03    0.482E-04
RMM:  14    -0.413181157011E+03    0.49769E-06   -0.18361E-07  1642   0.772E-04
   28 T=    64. E= -.41286680E+03 F= -.41318116E+03 E0= -.41315951E+03  EK= 0.31435E+00 SP= 0.00E+00 SK= 0.00E+00
       N       E                     dE             d eps       ncg     rms          rms(c)
RMM:   1    -0.413179938792E+03    0.12187E-02   -0.10037E+01  4292   0.771E-01    0.927E-01
RMM:   2    -0.413186115687E+03   -0.61769E-02   -0.12339E-01  4277   0.103E-01    0.658E-01
RMM:   3    -0.413183269201E+03    0.28465E-02   -0.12766E-02  4580   0.494E-02    0.112E-01
RMM:   4    -0.413196734594E+03   -0.13465E-01   -0.13725E-02  5148   0.979E-02    0.488E-01
RMM:   5    -0.413183111401E+03    0.13623E-01   -0.69020E-03  4825   0.805E-02    0.422E-02
RMM:   6    -0.413183157031E+03   -0.45630E-04   -0.12124E-03  5841   0.324E-02    0.248E-02
RMM:   7    -0.413183148855E+03    0.81757E-05   -0.15260E-04  5480   0.131E-02    0.116E-02
RMM:   8    -0.413183140403E+03    0.84528E-05   -0.21801E-05  4352   0.506E-03    0.732E-03
RMM:   9    -0.413183137697E+03    0.27057E-05   -0.60915E-06  3205   0.292E-03    0.584E-03
RMM:  10    -0.413183132697E+03    0.50003E-05   -0.12147E-06  2507   0.196E-03    0.342E-03
RMM:  11    -0.413183125639E+03    0.70574E-05   -0.14829E-06  2532   0.194E-03    0.175E-03
RMM:  12    -0.413183119603E+03    0.60359E-05   -0.80903E-07  2429   0.148E-03    0.899E-04
RMM:  13    -0.413183117897E+03    0.17064E-05   -0.29633E-07  2126   0.968E-04    0.503E-04
RMM:  14    -0.413183116628E+03    0.12693E-05   -0.13482E-07  1451   0.706E-04    0.399E-04
RMM:  15    -0.413183111640E+03    0.49874E-05   -0.18628E-07  2034   0.801E-04    0.412E-04
RMM:  16    -0.413183109515E+03    0.21251E-05   -0.58670E-08  1077   0.591E-04    0.306E-04
RMM:  17    -0.413183106270E+03    0.32453E-05   -0.42146E-08   891   0.559E-04    0.195E-04
RMM:  18    -0.413183103374E+03    0.28958E-05   -0.44378E-08   962   0.576E-04    0.395E-05
RMM:  19    -0.413183101581E+03    0.17933E-05   -0.27610E-08   877   0.567E-04    0.843E-05
RMM:  20    -0.413183101404E+03    0.17669E-06   -0.99076E-09   674   0.531E-04
   29 T=    64. E= -.41286700E+03 F= -.41318310E+03 E0= -.41316150E+03  EK= 0.31610E+00 SP= 0.00E+00 SK= 0.00E+00
       N       E                     dE             d eps       ncg     rms          rms(c)
RMM:   1    -0.413182094964E+03    0.10066E-02   -0.10004E+01  4287   0.807E-01    0.907E-01
RMM:   2    -0.413188441434E+03   -0.63465E-02   -0.12457E-01  4272   0.112E-01    0.656E-01
RMM:   3    -0.413185056704E+03    0.33847E-02   -0.12691E-02  4498   0.520E-02    0.102E-01
RMM:   4    -0.413194685093E+03   -0.96284E-02   -0.99055E-03  5149   0.835E-02    0.414E-01
RMM:   5    -0.413184972143E+03    0.97129E-02   -0.49741E-03  4830   0.681E-02    0.401E-02
RMM:   6    -0.413185005759E+03   -0.33616E-04   -0.90918E-04  5821   0.283E-02    0.247E-02
RMM:   7    -0.413185005487E+03    0.27223E-06   -0.22793E-04  5402   0.152E-02    0.165E-02
RMM:   8    -0.413184988862E+03    0.16625E-04   -0.26160E-05  4564   0.633E-03    0.721E-03
RMM:   9    -0.413184986804E+03    0.20579E-05   -0.49704E-06  2992   0.280E-03    0.518E-03
RMM:  10    -0.413184983450E+03    0.33538E-05   -0.14659E-06  2496   0.202E-03    0.282E-03
RMM:  11    -0.413184979959E+03    0.34914E-05   -0.96220E-07  2478   0.163E-03    0.141E-03
RMM:  12    -0.413184976761E+03    0.31980E-05   -0.52678E-07  2337   0.123E-03    0.710E-04
RMM:  13    -0.413184975236E+03    0.15242E-05   -0.24906E-07  1913   0.871E-04    0.312E-04
RMM:  14    -0.413184973388E+03    0.18479E-05   -0.13863E-07  1406   0.711E-04    0.192E-04
RMM:  15    -0.413184970707E+03    0.26818E-05   -0.93267E-08  1220   0.661E-04    0.924E-05
RMM:  16    -0.413184968897E+03    0.18097E-05   -0.54645E-08   988   0.615E-04    0.706E-05
RMM:  17    -0.413184967084E+03    0.18134E-05   -0.41712E-08   948   0.597E-04    0.456E-05
RMM:  18    -0.413184964300E+03    0.27831E-05   -0.53466E-08  1097   0.611E-04    0.299E-05
RMM:  19    -0.413184963766E+03    0.53439E-06   -0.16268E-08   723   0.542E-04
   30 T=    65. E= -.41286697E+03 F= -.41318496E+03 E0= -.41316342E+03  EK= 0.31799E+00 SP= 0.00E+00 SK= 0.00E+00
       N       E                     dE             d eps       ncg     rms          rms(c)
RMM:   1    -0.413190505729E+03   -0.55414E-02   -0.10194E+01  4292   0.839E-01    0.909E-01
RMM:   2    -0.413190648771E+03   -0.14304E-03   -0.13308E-01  4287   0.119E-01    0.669E-01
RMM:   3    -0.413186574717E+03    0.40741E-02   -0.13047E-02  4379   0.582E-02    0.974E-02
RMM:   4    -0.413192132900E+03   -0.55582E-02   -0.59336E-03  5162   0.647E-02    0.315E-01
RMM:   5    -0.413186554954E+03    0.55779E-02   -0.28669E-03  4826   0.520E-02    0.384E-02
RMM:   6    -0.413186582388E+03   -0.27434E-04   -0.63628E-04  5755   0.241E-02    0.258E-02
RMM:   7    -0.413186573599E+03    0.87886E-05   -0.22563E-04  5253   0.151E-02    0.160E-02
RMM:   8    -0.413186562315E+03    0.11285E-04   -0.18388E-05  4224   0.555E-03    0.672E-03
RMM:   9    -0.413186561192E+03    0.11226E-05   -0.27982E-06  2687   0.227E-03    0.438E-03
RMM:  10    -0.413186559399E+03    0.17926E-05   -0.12581E-06  2487   0.180E-03    0.232E-03
RMM:  11    -0.413186557813E+03    0.15860E-05   -0.76659E-07  2427   0.141E-03    0.110E-03
RMM:  12    -0.413186556166E+03    0.16470E-05   -0.41688E-07  2160   0.107E-03    0.484E-04
RMM:  13    -0.413186554969E+03    0.11973E-05   -0.21575E-07  1693   0.807E-04    0.263E-04
RMM:  14    -0.413186553479E+03    0.14897E-05   -0.11797E-07  1205   0.683E-04    0.172E-04
RMM:  15    -0.413186551133E+03    0.23462E-05   -0.95764E-08  1148   0.659E-04    0.816E-05
RMM:  16    -0.413186550025E+03    0.11078E-05   -0.51867E-08   960   0.603E-04    0.622E-05
RMM:  17    -0.413186547880E+03    0.21449E-05   -0.53641E-08  1016   0.603E-04    0.384E-05
RMM:  18    -0.413186546469E+03    0.14111E-05   -0.34616E-08   904   0.568E-04    0.283E-05
RMM:  19    -0.413186545896E+03    0.57381E-06   -0.13106E-08   662   0.532E-04
   31 T=    65. E= -.41286667E+03 F= -.41318655E+03 E0= -.41316505E+03  EK= 0.31987E+00 SP= 0.00E+00 SK= 0.00E+00
       N       E                     dE             d eps       ncg     rms          rms(c)
RMM:   1    -0.413186200306E+03    0.34616E-03   -0.10167E+01  4287   0.810E-01    0.933E-01
RMM:   2    -0.413192701419E+03   -0.65011E-02   -0.12706E-01  4284   0.125E-01    0.665E-01
RMM:   3    -0.413189119601E+03    0.35818E-02   -0.13127E-02  4261   0.559E-02    0.103E-01
RMM:   4    -0.413189342529E+03   -0.22293E-03   -0.90458E-04  4951   0.214E-02    0.630E-02
RMM:   5    -0.413189213813E+03    0.12872E-03   -0.17878E-04  4819   0.132E-02    0.444E-02
RMM:   6    -0.413189205033E+03    0.87802E-05   -0.32761E-04  5261   0.179E-02    0.289E-02
RMM:   7    -0.413189161315E+03    0.43717E-04   -0.18055E-04  4816   0.140E-02    0.150E-02
RMM:   8    -0.413189157730E+03    0.35855E-05   -0.21239E-05  4283   0.499E-03    0.537E-03
RMM:   9    -0.413189156315E+03    0.14146E-05   -0.30443E-06  2464   0.209E-03    0.203E-03
RMM:  10    -0.413189148257E+03    0.80579E-05   -0.93177E-07  2369   0.150E-03    0.839E-04
RMM:  11    -0.413189144151E+03    0.41065E-05   -0.22340E-07  1706   0.827E-04    0.463E-04
RMM:  12    -0.413189140633E+03    0.35176E-05   -0.14615E-07  1470   0.723E-04    0.262E-04
RMM:  13    -0.413189136602E+03    0.40314E-05   -0.12398E-07  1397   0.688E-04    0.157E-04
RMM:  14    -0.413189131096E+03    0.55063E-05   -0.10213E-07  1183   0.652E-04    0.144E-04
RMM:  15    -0.413189128694E+03    0.24015E-05   -0.35510E-08   717   0.560E-04    0.897E-05
RMM:  16    -0.413189125200E+03    0.34940E-05   -0.39359E-08   805   0.578E-04    0.450E-05
RMM:  17    -0.413189124312E+03    0.88876E-06   -0.16637E-08   627   0.536E-04
   32 T=    66. E= -.41286704E+03 F= -.41318912E+03 E0= -.41316767E+03  EK= 0.32209E+00 SP= 0.00E+00 SK= 0.00E+00
       N       E                     dE             d eps       ncg     rms          rms(c)
RMM:   1    -0.413188033658E+03    0.10915E-02   -0.10134E+01  4282   0.822E-01    0.920E-01
RMM:   2    -0.413194552494E+03   -0.65188E-02   -0.12797E-01  4272   0.123E-01    0.661E-01
RMM:   3    -0.413191112374E+03    0.34401E-02   -0.12935E-02  4289   0.568E-02    0.101E-01
RMM:   4    -0.413192252839E+03   -0.11405E-02   -0.17121E-03  5145   0.341E-02    0.143E-01
RMM:   5    -0.413191180262E+03    0.10726E-02   -0.60121E-04  4803   0.246E-02    0.391E-02
RMM:   6    -0.413191190485E+03   -0.10222E-04   -0.37408E-04  5459   0.192E-02    0.287E-02
RMM:   7    -0.413191154904E+03    0.35581E-04   -0.19848E-04  4939   0.141E-02    0.167E-02
RMM:   8    -0.413191148652E+03    0.62515E-05   -0.21512E-05  4414   0.520E-03    0.621E-03
RMM:   9    -0.413191147241E+03    0.14114E-05   -0.30574E-06  2519   0.216E-03    0.287E-03
RMM:  10    -0.413191141936E+03    0.53048E-05   -0.88994E-07  2397   0.151E-03    0.151E-03
RMM:  11    -0.413191137800E+03    0.41355E-05   -0.44266E-07  2137   0.104E-03    0.615E-04
RMM:  12    -0.413191133603E+03    0.41979E-05   -0.25421E-07  1732   0.842E-04    0.232E-04
RMM:  13    -0.413191130107E+03    0.34960E-05   -0.13457E-07  1232   0.698E-04    0.184E-04
RMM:  14    -0.413191126775E+03    0.33316E-05   -0.79025E-08   947   0.633E-04    0.129E-04
RMM:  15    -0.413191121895E+03    0.48796E-05   -0.83417E-08  1058   0.642E-04    0.665E-05
RMM:  16    -0.413191119261E+03    0.26345E-05   -0.46758E-08   842   0.588E-04    0.718E-05
RMM:  17    -0.413191117605E+03    0.16554E-05   -0.26193E-08   668   0.552E-04    0.259E-05
RMM:  18    -0.413191116731E+03    0.87493E-06   -0.19120E-08   605   0.536E-04
   33 T=    66. E= -.41286691E+03 F= -.41319112E+03 E0= -.41316971E+03  EK= 0.32421E+00 SP= 0.00E+00 SK= 0.00E+00
       N       E                     dE             d eps       ncg     rms          rms(c)
RMM:   1    -0.413195355837E+03   -0.42382E-02   -0.10293E+01  4299   0.879E-01    0.914E-01
RMM:   2    -0.413197097295E+03   -0.17415E-02   -0.13615E-01  4280   0.130E-01    0.674E-01
RMM:   3    -0.413193526736E+03    0.35706E-02   -0.13265E-02  4246   0.611E-02    0.944E-02
RMM:   4    -0.413193883540E+03   -0.35680E-03   -0.10148E-03  5063   0.234E-02    0.804E-02
RMM:   5    -0.413193590748E+03    0.29279E-03   -0.22069E-04  4766   0.149E-02    0.398E-02
RMM:   6    -0.413193601916E+03   -0.11168E-04   -0.31918E-04  5327   0.173E-02    0.276E-02
RMM:   7    -0.413193569360E+03    0.32556E-04   -0.18249E-04  4832   0.134E-02    0.172E-02
RMM:   8    -0.413193564709E+03    0.46512E-05   -0.22499E-05  4121   0.477E-03    0.541E-03
RMM:   9    -0.413193564287E+03    0.42143E-06   -0.26411E-06  2399   0.204E-03
   34 T=    67. E= -.41286692E+03 F= -.41319356E+03 E0= -.41317221E+03  EK= 0.32664E+00 SP= 0.00E+00 SK= 0.00E+00
       N       E                     dE             d eps       ncg     rms          rms(c)
RMM:   1    -0.413195687748E+03   -0.21230E-02   -0.10339E+01  4304   0.898E-01    0.937E-01
RMM:   2    -0.413199588421E+03   -0.39007E-02   -0.13453E-01  4278   0.130E-01    0.675E-01
RMM:   3    -0.413196383040E+03    0.32054E-02   -0.13289E-02  4488   0.620E-02    0.111E-01
RMM:   4    -0.413206000674E+03   -0.96176E-02   -0.99205E-03  5175   0.847E-02    0.414E-01
RMM:   5    -0.413196372498E+03    0.96282E-02   -0.49579E-03  4824   0.690E-02    0.429E-02
RMM:   6    -0.413196362950E+03    0.95471E-05   -0.93443E-04  5750   0.307E-02    0.317E-02
RMM:   7    -0.413196350617E+03    0.12334E-04   -0.28605E-04  5336   0.164E-02    0.163E-02
RMM:   8    -0.413196338866E+03    0.11751E-04   -0.27603E-05  4623   0.612E-03    0.692E-03
RMM:   9    -0.413196335889E+03    0.29769E-05   -0.45938E-06  2903   0.259E-03    0.412E-03
RMM:  10    -0.413196329788E+03    0.61011E-05   -0.11897E-06  2502   0.184E-03    0.216E-03
RMM:  11    -0.413196323490E+03    0.62981E-05   -0.78925E-07  2456   0.143E-03    0.111E-03
RMM:  12    -0.413196317787E+03    0.57030E-05   -0.44306E-07  2246   0.110E-03    0.509E-04
RMM:  13    -0.413196314819E+03    0.29681E-05   -0.22199E-07  1743   0.816E-04    0.270E-04
RMM:  14    -0.413196311094E+03    0.37244E-05   -0.12380E-07  1222   0.689E-04    0.173E-04
RMM:  15    -0.413196305129E+03    0.59652E-05   -0.10546E-07  1256   0.677E-04    0.979E-05
RMM:  16    -0.413196302103E+03    0.30264E-05   -0.65462E-08  1085   0.615E-04    0.817E-05
RMM:  17    -0.413196298033E+03    0.40699E-05   -0.62212E-08  1173   0.615E-04    0.498E-05
RMM:  18    -0.413196295388E+03    0.26446E-05   -0.40068E-08  1008   0.572E-04    0.236E-05
RMM:  19    -0.413196294966E+03    0.42233E-06   -0.16720E-08   709   0.521E-04
   35 T=    67. E= -.41286706E+03 F= -.41319629E+03 E0= -.41317499E+03  EK= 0.32923E+00 SP= 0.00E+00 SK= 0.00E+00
       N       E                     dE             d eps       ncg     rms          rms(c)
RMM:   1    -0.413195776639E+03    0.51875E-03   -0.10315E+01  4302   0.882E-01    0.936E-01
RMM:   2    -0.413201484204E+03   -0.57076E-02   -0.13274E-01  4253   0.131E-01    0.670E-01
RMM:   3    -0.413198432779E+03    0.30514E-02   -0.13261E-02  4418   0.618E-02    0.112E-01
RMM:   4    -0.413203913033E+03   -0.54803E-02   -0.59070E-03  5173   0.649E-02    0.314E-01
RMM:   5    -0.413198451005E+03    0.54620E-02   -0.28384E-03  4817   0.522E-02    0.411E-02
RMM:   6    -0.413198454791E+03   -0.37858E-05   -0.66487E-04  5680   0.258E-02    0.298E-02
RMM:   7    -0.413198435368E+03    0.19424E-04   -0.26068E-04  5196   0.161E-02    0.167E-02
RMM:   8    -0.413198424036E+03    0.11332E-04   -0.23750E-05  4584   0.591E-03    0.712E-03
RMM:   9    -0.413198421529E+03    0.25063E-05   -0.35288E-06  2715   0.239E-03    0.406E-03
RMM:  10    -0.413198415734E+03    0.57951E-05   -0.11863E-06  2488   0.181E-03    0.211E-03
RMM:  11    -0.413198410441E+03    0.52928E-05   -0.67690E-07  2417   0.134E-03    0.105E-03
RMM:  12    -0.413198405397E+03    0.50446E-05   -0.38672E-07  2142   0.104E-03    0.471E-04
RMM:  13    -0.413198401952E+03    0.34452E-05   -0.20904E-07  1695   0.804E-04    0.242E-04
RMM:  14    -0.413198398361E+03    0.35910E-05   -0.10695E-07  1184   0.672E-04    0.171E-04
RMM:  15    -0.413198393403E+03    0.49578E-05   -0.81091E-08  1112   0.645E-04    0.812E-05
RMM:  16    -0.413198390633E+03    0.27700E-05   -0.53990E-08  1010   0.607E-04    0.640E-05
RMM:  17    -0.413198387444E+03    0.31889E-05   -0.48934E-08  1090   0.602E-04    0.401E-05
RMM:  18    -0.413198384652E+03    0.27919E-05   -0.38702E-08  1014   0.578E-04    0.286E-05
RMM:  19    -0.413198384202E+03    0.45037E-06   -0.14713E-08   696   0.520E-04
   36 T=    68. E= -.41286680E+03 F= -.41319838E+03 E0= -.41317712E+03  EK= 0.33159E+00 SP= 0.00E+00 SK= 0.00E+00
       N       E                     dE             d eps       ncg     rms          rms(c)
RMM:   1    -0.413207687362E+03   -0.93027E-02   -0.10478E+01  4304   0.978E-01    0.921E-01
RMM:   2    -0.413205293657E+03    0.23937E-02   -0.15223E-01  4254   0.139E-01    0.681E-01
RMM:   3    -0.413201451864E+03    0.38418E-02   -0.12515E-02  4559   0.595E-02    0.131E-01
RMM:   4    -0.413218455813E+03   -0.17004E-01   -0.17315E-02  5157   0.111E-01    0.548E-01
RMM:   5    -0.413201340004E+03    0.17116E-01   -0.86556E-03  4806   0.909E-02    0.445E-02
RMM:   6    -0.413201349030E+03   -0.90264E-05   -0.15268E-03  5830   0.371E-02    0.288E-02
RMM:   7    -0.413201361260E+03   -0.12230E-04   -0.30557E-04  5496   0.169E-02    0.182E-02
RMM:   8    -0.413201344691E+03    0.16569E-04   -0.49263E-05  4942   0.789E-03    0.847E-03
RMM:   9    -0.413201343563E+03    0.11280E-05   -0.94503E-06  3603   0.376E-03    0.593E-03
RMM:  10    -0.413201340596E+03    0.29670E-05   -0.15441E-06  2533   0.215E-03    0.334E-03
RMM:  11    -0.413201337992E+03    0.26044E-05   -0.95573E-07  2496   0.161E-03    0.183E-03
RMM:  12    -0.413201333870E+03    0.41224E-05   -0.99550E-07  2478   0.158E-03    0.933E-04
RMM:  13    -0.413201331880E+03    0.19892E-05   -0.38372E-07  2167   0.106E-03    0.475E-04
RMM:  14    -0.413201331064E+03    0.81649E-06   -0.17870E-07  1555   0.759E-04
   37 T=    68. E= -.41286712E+03 F= -.41320133E+03 E0= -.41318011E+03  EK= 0.33421E+00 SP= 0.00E+00 SK= 0.00E+00
       N       E                     dE             d eps       ncg     rms          rms(c)
RMM:   1    -0.413218783927E+03   -0.17452E-01   -0.10662E+01  4307   0.107E+00    0.941E-01
RMM:   2    -0.413207905826E+03    0.10878E-01   -0.15783E-01  4253   0.137E-01    0.687E-01
RMM:   3    -0.413204081489E+03    0.38243E-02   -0.12619E-02  4747   0.568E-02    0.155E-01
RMM:   4    -0.413237270593E+03   -0.33189E-01   -0.34038E-02  5155   0.154E-01    0.759E-01
RMM:   5    -0.413203665352E+03    0.33605E-01   -0.16979E-02  4798   0.127E-01    0.510E-02
RMM:   6    -0.413203731040E+03   -0.65688E-04   -0.28222E-03  5843   0.500E-02    0.325E-02
RMM:   7    -0.413203740717E+03   -0.96769E-05   -0.35907E-04  5661   0.179E-02    0.169E-02
RMM:   8    -0.413203732014E+03    0.87033E-05   -0.56408E-05  4970   0.783E-03    0.980E-03
RMM:   9    -0.413203730785E+03    0.12286E-05   -0.20427E-05  4513   0.483E-03    0.769E-03
RMM:  10    -0.413203724682E+03    0.61034E-05   -0.27627E-06  2663   0.266E-03    0.437E-03
RMM:  11    -0.413203721561E+03    0.31202E-05   -0.13691E-06  2504   0.189E-03    0.275E-03
RMM:  12    -0.413203713410E+03    0.81518E-05   -0.19083E-06  2546   0.224E-03    0.132E-03
RMM:  13    -0.413203709717E+03    0.36924E-05   -0.69724E-07  2407   0.147E-03    0.854E-04
RMM:  14    -0.413203709453E+03    0.26391E-06   -0.27133E-07  2036   0.935E-04
   38 T=    69. E= -.41286700E+03 F= -.41320371E+03 E0= -.41318253E+03  EK= 0.33671E+00 SP= 0.00E+00 SK= 0.00E+00
       N       E                     dE             d eps       ncg     rms          rms(c)
RMM:   1    -0.413207201635E+03   -0.34919E-02   -0.10539E+01  4305   0.998E-01    0.953E-01
RMM:   2    -0.413210085358E+03   -0.28837E-02   -0.13789E-01  4262   0.124E-01    0.679E-01
RMM:   3    -0.413206891091E+03    0.31943E-02   -0.13915E-02  4927   0.579E-02    0.162E-01
RMM:   4    -0.413249007722E+03   -0.42117E-01   -0.44998E-02  5132   0.177E-01    0.853E-01
RMM:   5    -0.413206087957E+03    0.42920E-01   -0.21175E-02  4788   0.143E-01    0.558E-02
RMM:   6    -0.413206203695E+03   -0.11574E-03   -0.36295E-03  5829   0.560E-02    0.347E-02
RMM:   7    -0.413206212703E+03   -0.90079E-05   -0.42449E-04  5680   0.190E-02    0.180E-02
RMM:   8    -0.413206201955E+03    0.10748E-04   -0.51937E-05  4806   0.727E-03    0.931E-03
RMM:   9    -0.413206197839E+03    0.41160E-05   -0.16143E-05  4100   0.417E-03    0.699E-03
RMM:  10    -0.413206192085E+03    0.57542E-05   -0.32872E-06  2745   0.254E-03    0.440E-03
RMM:  11    -0.413206186395E+03    0.56895E-05   -0.14700E-06  2499   0.200E-03    0.260E-03
RMM:  12    -0.413206174530E+03    0.11865E-04   -0.18189E-06  2539   0.219E-03    0.118E-03
RMM:  13    -0.413206171180E+03    0.33499E-05   -0.53317E-07  2419   0.137E-03    0.768E-04
RMM:  14    -0.413206171099E+03    0.81687E-07   -0.22825E-07  1963   0.866E-04
   39 T=    69. E= -.41286689E+03 F= -.41320617E+03 E0= -.41318503E+03  EK= 0.33928E+00 SP= 0.00E+00 SK= 0.00E+00
       N       E                     dE             d eps       ncg     rms          rms(c)
RMM:   1    -0.413230164497E+03   -0.23993E-01   -0.10761E+01  4311   0.117E+00    0.930E-01
RMM:   2    -0.413213600989E+03    0.16564E-01   -0.16876E-01  4267   0.136E-01    0.687E-01
RMM:   3    -0.413210292101E+03    0.33089E-02   -0.12464E-02  4996   0.596E-02    0.207E-01
RMM:   4    -0.413264459466E+03   -0.54167E-01   -0.59685E-02  5130   0.203E-01    0.964E-01
RMM:   5    -0.413208965962E+03    0.55494E-01   -0.27301E-02  4786   0.162E-01    0.606E-02
RMM:   6    -0.413209132692E+03   -0.16673E-03   -0.44372E-03  5813   0.628E-02    0.364E-02
RMM:   7    -0.413209146775E+03   -0.14083E-04   -0.55287E-04  5786   0.211E-02    0.219E-02
RMM:   8    -0.413209147770E+03   -0.99490E-06   -0.12542E-04  5257   0.110E-02    0.139E-02
RMM:   9    -0.413209134344E+03    0.13426E-04   -0.28443E-05  4720   0.613E-03    0.708E-03
RMM:  10    -0.413209129984E+03    0.43605E-05   -0.52146E-06  2939   0.300E-03    0.441E-03
RMM:  11    -0.413209126604E+03    0.33792E-05   -0.15606E-06  2508   0.206E-03    0.266E-03
RMM:  12    -0.413209119460E+03    0.71448E-05   -0.15261E-06  2514   0.204E-03    0.983E-04
RMM:  13    -0.413209115207E+03    0.42530E-05   -0.68364E-07  2424   0.143E-03    0.705E-04
RMM:  14    -0.413209114673E+03    0.53335E-06   -0.29629E-07  2075   0.958E-04
   40 T=    70. E= -.41286710E+03 F= -.41320911E+03 E0= -.41318801E+03  EK= 0.34201E+00 SP= 0.00E+00 SK= 0.00E+00
       N       E                     dE             d eps       ncg     rms          rms(c)
RMM:   1    -0.413223483395E+03   -0.14368E-01   -0.10799E+01  4310   0.115E+00    0.945E-01
RMM:   2    -0.413215781321E+03    0.77021E-02   -0.15861E-01  4269   0.139E-01    0.695E-01
RMM:   3    -0.413213035484E+03    0.27458E-02   -0.14233E-02  5028   0.655E-02    0.221E-01
RMM:   4    -0.413265893405E+03   -0.52858E-01   -0.61687E-02  5122   0.207E-01    0.957E-01
RMM:   5    -0.413211092868E+03    0.54801E-01   -0.26191E-02  4776   0.161E-01    0.613E-02
RMM:   6    -0.413211255945E+03   -0.16308E-03   -0.43854E-03  5809   0.621E-02    0.360E-02
RMM:   7    -0.413211270112E+03   -0.14167E-04   -0.54254E-04  5794   0.209E-02    0.220E-02
RMM:   8    -0.413211271472E+03   -0.13608E-05   -0.12637E-04  5256   0.111E-02    0.141E-02
RMM:   9    -0.413211257680E+03    0.13792E-04   -0.27091E-05  4687   0.609E-03    0.686E-03
RMM:  10    -0.413211253605E+03    0.40753E-05   -0.53944E-06  2975   0.304E-03    0.425E-03
RMM:  11    -0.413211250359E+03    0.32464E-05   -0.15114E-06  2505   0.206E-03    0.253E-03
RMM:  12    -0.413211243823E+03    0.65358E-05   -0.13488E-06  2498   0.194E-03    0.931E-04
RMM:  13    -0.413211239801E+03    0.40217E-05   -0.63110E-07  2412   0.137E-03    0.605E-04
RMM:  14    -0.413211238967E+03    0.83438E-06   -0.28465E-07  2052   0.936E-04
   41 T=    70. E= -.41286681E+03 F= -.41321124E+03 E0= -.41319017E+03  EK= 0.34443E+00 SP= 0.00E+00 SK= 0.00E+00
       N       E                     dE             d eps       ncg     rms          rms(c)
RMM:   1    -0.413217435437E+03   -0.61956E-02   -0.10736E+01  4311   0.116E+00    0.967E-01
RMM:   2    -0.413217707606E+03   -0.27217E-03   -0.14619E-01  4300   0.133E-01    0.689E-01
RMM:   3    -0.413216935205E+03    0.77240E-03   -0.16063E-02  5073   0.740E-02    0.268E-01
RMM:   4    -0.413257408227E+03   -0.40473E-01   -0.54701E-02  5094   0.197E-01    0.859E-01
RMM:   5    -0.413213727937E+03    0.43680E-01   -0.19665E-02  4750   0.143E-01    0.607E-02
RMM:   6    -0.413213826344E+03   -0.98407E-04   -0.34631E-03  5776   0.555E-02    0.358E-02
RMM:   7    -0.413213831543E+03   -0.51982E-05   -0.47491E-04  5748   0.200E-02    0.221E-02
RMM:   8    -0.413213828517E+03    0.30256E-05   -0.13021E-04  5222   0.115E-02    0.135E-02
RMM:   9    -0.413213812650E+03    0.15867E-04   -0.22244E-05  4519   0.585E-03    0.581E-03
RMM:  10    -0.413213806623E+03    0.60273E-05   -0.49683E-06  2946   0.284E-03    0.366E-03
RMM:  11    -0.413213801200E+03    0.54225E-05   -0.12460E-06  2493   0.192E-03    0.206E-03
RMM:  12    -0.413213791790E+03    0.94096E-05   -0.93390E-07  2468   0.167E-03    0.791E-04
RMM:  13    -0.413213786187E+03    0.56032E-05   -0.44712E-07  2320   0.117E-03    0.423E-04
RMM:  14    -0.413213784407E+03    0.17803E-05   -0.22551E-07  1862   0.842E-04    0.291E-04
RMM:  15    -0.413213780279E+03    0.41281E-05   -0.12784E-07  1401   0.704E-04    0.139E-04
RMM:  16    -0.413213774850E+03    0.54284E-05   -0.92217E-08  1244   0.667E-04    0.143E-04
RMM:  17    -0.413213771751E+03    0.30994E-05   -0.59099E-08  1070   0.619E-04    0.961E-05
RMM:  18    -0.413213767907E+03    0.38441E-05   -0.58234E-08  1234   0.624E-04    0.674E-05
RMM:  19    -0.413213765065E+03    0.28422E-05   -0.38835E-08  1063   0.588E-04    0.390E-05
RMM:  20    -0.413213764392E+03    0.67282E-06   -0.19043E-08   789   0.540E-04
   42 T=    71. E= -.41286692E+03 F= -.41321376E+03 E0= -.41319272E+03  EK= 0.34684E+00 SP= 0.00E+00 SK= 0.00E+00
       N       E                     dE             d eps       ncg     rms          rms(c)
RMM:   1    -0.413246233782E+03   -0.32469E-01   -0.10969E+01  4311   0.136E+00    0.944E-01
RMM:   2    -0.413219950074E+03    0.26284E-01   -0.17265E-01  4311   0.148E-01    0.691E-01
RMM:   3    -0.413220098389E+03   -0.14832E-03   -0.15311E-02  5079   0.796E-02    0.319E-01
RMM:   4    -0.413259034576E+03   -0.38936E-01   -0.57235E-02  5097   0.202E-01    0.856E-01
RMM:   5    -0.413215772739E+03    0.43262E-01   -0.19150E-02  4735   0.143E-01    0.629E-02
RMM:   6    -0.413215850978E+03   -0.78239E-04   -0.33938E-03  5742   0.552E-02    0.358E-02
RMM:   7    -0.413215859514E+03   -0.85355E-05   -0.49994E-04  5778   0.201E-02    0.237E-02
RMM:   8    -0.413215856350E+03    0.31635E-05   -0.12983E-04  5195   0.117E-02    0.126E-02
RMM:   9    -0.413215843803E+03    0.12548E-04   -0.22027E-05  4521   0.584E-03    0.501E-03
RMM:  10    -0.413215840493E+03    0.33095E-05   -0.46434E-06  2881   0.272E-03    0.319E-03
RMM:  11    -0.413215836696E+03    0.37968E-05   -0.13362E-06  2497   0.191E-03    0.175E-03
RMM:  12    -0.413215831379E+03    0.53175E-05   -0.78719E-07  2457   0.151E-03    0.665E-04
RMM:  13    -0.413215828184E+03    0.31948E-05   -0.39247E-07  2159   0.107E-03    0.313E-04
RMM:  14    -0.413215826133E+03    0.20509E-05   -0.21123E-07  1701   0.814E-04    0.209E-04
RMM:  15    -0.413215822409E+03    0.37246E-05   -0.13727E-07  1337   0.713E-04    0.110E-04
RMM:  16    -0.413215819983E+03    0.24257E-05   -0.86809E-08  1126   0.657E-04    0.837E-05
RMM:  17    -0.413215817617E+03    0.23662E-05   -0.67278E-08  1121   0.641E-04    0.522E-05
RMM:  18    -0.413215814900E+03    0.27163E-05   -0.58718E-08  1176   0.628E-04    0.355E-05
RMM:  19    -0.413215813224E+03    0.16767E-05   -0.35519E-08   955   0.579E-04    0.251E-05
RMM:  20    -0.413215812586E+03    0.63787E-06   -0.19327E-08   777   0.551E-04
   43 T=    71. E= -.41286695E+03 F= -.41321581E+03 E0= -.41319480E+03  EK= 0.34886E+00 SP= 0.00E+00 SK= 0.00E+00
       N       E                     dE             d eps       ncg     rms          rms(c)
RMM:   1    -0.413227902600E+03   -0.12089E-01   -0.10885E+01  4311   0.131E+00    0.949E-01
RMM:   2    -0.413221400747E+03    0.65019E-02   -0.15862E-01  4302   0.158E-01    0.702E-01
RMM:   3    -0.413222481095E+03   -0.10803E-02   -0.18123E-02  5069   0.903E-02    0.339E-01
RMM:   4    -0.413256358575E+03   -0.33877E-01   -0.55532E-02  5076   0.200E-01    0.816E-01
RMM:   5    -0.413216958855E+03    0.39400E-01   -0.16565E-02  4708   0.135E-01    0.608E-02
RMM:   6    -0.413217013425E+03   -0.54570E-04   -0.30593E-03  5729   0.523E-02    0.347E-02
RMM:   7    -0.413217014634E+03   -0.12093E-05   -0.44878E-04  5745   0.195E-02    0.228E-02
RMM:   8    -0.413217012900E+03    0.17341E-05   -0.11966E-04  5178   0.113E-02    0.119E-02
RMM:   9    -0.413217002467E+03    0.10433E-04   -0.19642E-05  4426   0.560E-03    0.478E-03
RMM:  10    -0.413216999990E+03    0.24769E-05   -0.39679E-06  2788   0.259E-03    0.299E-03
RMM:  11    -0.413216997110E+03    0.28798E-05   -0.13009E-06  2499   0.187E-03    0.162E-03
RMM:  12    -0.413216993032E+03    0.40783E-05   -0.80069E-07  2444   0.148E-03    0.641E-04
RMM:  13    -0.413216990533E+03    0.24992E-05   -0.39270E-07  2100   0.105E-03    0.297E-04
RMM:  14    -0.413216988773E+03    0.17599E-05   -0.21530E-07  1614   0.804E-04    0.192E-04
RMM:  15    -0.413216985279E+03    0.34942E-05   -0.15414E-07  1337   0.725E-04    0.117E-04
RMM:  16    -0.413216983585E+03    0.16939E-05   -0.93331E-08  1117   0.659E-04    0.823E-05
RMM:  17    -0.413216981406E+03    0.21792E-05   -0.75421E-08  1141   0.646E-04    0.495E-05
RMM:  18    -0.413216979158E+03    0.22476E-05   -0.60727E-08  1121   0.624E-04    0.350E-05
RMM:  19    -0.413216977712E+03    0.14464E-05   -0.38549E-08   950   0.584E-04    0.215E-05
RMM:  20    -0.413216977034E+03    0.67783E-06   -0.23634E-08   801   0.556E-04
   44 T=    71. E= -.41286671E+03 F= -.41321698E+03 E0= -.41319599E+03  EK= 0.35027E+00 SP= 0.00E+00 SK= 0.00E+00
       N       E                     dE             d eps       ncg     rms          rms(c)
RMM:   1    -0.413251502461E+03   -0.34525E-01   -0.11094E+01  4310   0.149E+00    0.974E-01
RMM:   2    -0.413222173678E+03    0.29329E-01   -0.16979E-01  4333   0.168E-01    0.699E-01
RMM:   3    -0.413227346836E+03   -0.51732E-02   -0.20470E-02  5116   0.105E-01    0.432E-01
RMM:   4    -0.413244574498E+03   -0.17228E-01   -0.46753E-02  5057   0.186E-01    0.674E-01
RMM:   5    -0.413218392456E+03    0.26182E-01   -0.10070E-02  4659   0.113E-01    0.593E-02
RMM:   6    -0.413218379584E+03    0.12872E-04   -0.20736E-03  5615   0.436E-02    0.343E-02
RMM:   7    -0.413218373493E+03    0.60916E-05   -0.35221E-04  5629   0.181E-02    0.226E-02
RMM:   8    -0.413218364556E+03    0.89361E-05   -0.11964E-04  5089   0.115E-02    0.108E-02
RMM:   9    -0.413218351276E+03    0.13280E-04   -0.16309E-05  4331   0.552E-03    0.437E-03
RMM:  10    -0.413218347333E+03    0.39434E-05   -0.31144E-06  2732   0.236E-03    0.257E-03
RMM:  11    -0.413218341478E+03    0.58546E-05   -0.11654E-06  2483   0.179E-03    0.139E-03
RMM:  12    -0.413218335219E+03    0.62591E-05   -0.62264E-07  2422   0.136E-03    0.625E-04
RMM:  13    -0.413218331607E+03    0.36121E-05   -0.29738E-07  1912   0.940E-04    0.298E-04
RMM:  14    -0.413218328274E+03    0.33334E-05   -0.16807E-07  1459   0.744E-04    0.167E-04
RMM:  15    -0.413218323170E+03    0.51031E-05   -0.12599E-07  1291   0.700E-04    0.122E-04
RMM:  16    -0.413218320471E+03    0.26996E-05   -0.80007E-08  1120   0.643E-04    0.913E-05
RMM:  17    -0.413218315803E+03    0.46679E-05   -0.81756E-08  1322   0.657E-04    0.650E-05
RMM:  18    -0.413218313756E+03    0.20467E-05   -0.45864E-08  1030   0.581E-04    0.419E-05
RMM:  19    -0.413218312296E+03    0.14599E-05   -0.29927E-08   868   0.549E-04    0.213E-05
RMM:  20    -0.413218311893E+03    0.40316E-06   -0.18509E-08   745   0.526E-04
   45 T=    72. E= -.41286706E+03 F= -.41321831E+03 E0= -.41319734E+03  EK= 0.35125E+00 SP= 0.00E+00 SK= 0.00E+00
       N       E                     dE             d eps       ncg     rms          rms(c)
RMM:   1    -0.413260898563E+03   -0.42586E-01   -0.11083E+01  4310   0.162E+00    0.954E-01
RMM:   2    -0.413222118279E+03    0.38780E-01   -0.18642E-01  4360   0.186E-01    0.695E-01
RMM:   3    -0.413229420522E+03   -0.73022E-02   -0.20912E-02  5118   0.113E-01    0.487E-01
RMM:   4    -0.413240674597E+03   -0.11254E-01   -0.45098E-02  5040   0.184E-01    0.631E-01
RMM:   5    -0.413218293968E+03    0.22381E-01   -0.86186E-03  4619   0.108E-01    0.592E-02
RMM:   6    -0.413218253823E+03    0.40145E-04   -0.17086E-03  5500   0.405E-02    0.335E-02
RMM:   7    -0.413218248204E+03    0.56198E-05   -0.30621E-04  5622   0.171E-02    0.228E-02
RMM:   8    -0.413218236894E+03    0.11309E-04   -0.12524E-04  5080   0.116E-02    0.105E-02
RMM:   9    -0.413218223485E+03    0.13410E-04   -0.17174E-05  4367   0.569E-03    0.423E-03
RMM:  10    -0.413218220314E+03    0.31710E-05   -0.29084E-06  2722   0.228E-03    0.243E-03
RMM:  11    -0.413218214739E+03    0.55748E-05   -0.12949E-06  2497   0.183E-03    0.135E-03
RMM:  12    -0.413218210040E+03    0.46991E-05   -0.58356E-07  2435   0.134E-03    0.682E-04
RMM:  13    -0.413218206617E+03    0.34222E-05   -0.28105E-07  1840   0.912E-04    0.325E-04
RMM:  14    -0.413218203174E+03    0.34432E-05   -0.15933E-07  1378   0.728E-04    0.174E-04
RMM:  15    -0.413218199365E+03    0.38092E-05   -0.11630E-07  1251   0.681E-04    0.117E-04
RMM:  16    -0.413218196619E+03    0.27461E-05   -0.79595E-08  1130   0.638E-04    0.100E-04
RMM:  17    -0.413218192784E+03    0.38347E-05   -0.75233E-08  1238   0.640E-04    0.601E-05
RMM:  18    -0.413218190538E+03    0.22466E-05   -0.48099E-08  1057   0.584E-04    0.500E-05
RMM:  19    -0.413218189647E+03    0.89073E-06   -0.27335E-08   834   0.536E-04
   46 T=    71. E= -.41286699E+03 F= -.41321819E+03 E0= -.41319724E+03  EK= 0.35120E+00 SP= 0.00E+00 SK= 0.00E+00
       N       E                     dE             d eps       ncg     rms          rms(c)
RMM:   1    -0.413239265262E+03   -0.21075E-01   -0.10896E+01  4310   0.159E+00    0.943E-01
RMM:   2    -0.413221616871E+03    0.17648E-01   -0.17901E-01  4370   0.192E-01    0.706E-01
RMM:   3    -0.413230740786E+03   -0.91239E-02   -0.23498E-02  5107   0.124E-01    0.519E-01
RMM:   4    -0.413239020218E+03   -0.82794E-02   -0.46968E-02  5030   0.189E-01    0.616E-01
RMM:   5    -0.413217348189E+03    0.21672E-01   -0.78522E-03  4598   0.106E-01    0.588E-02
RMM:   6    -0.413217295101E+03    0.53088E-04   -0.15737E-03  5453   0.390E-02    0.322E-02
RMM:   7    -0.413217291794E+03    0.33067E-05   -0.27997E-04  5635   0.164E-02    0.221E-02
RMM:   8    -0.413217281477E+03    0.10316E-04   -0.12877E-04  5097   0.117E-02    0.104E-02
RMM:   9    -0.413217269197E+03    0.12280E-04   -0.16682E-05  4323   0.566E-03    0.416E-03
RMM:  10    -0.413217267066E+03    0.21309E-05   -0.29382E-06  2721   0.228E-03    0.241E-03
RMM:  11    -0.413217263142E+03    0.39246E-05   -0.13601E-06  2503   0.186E-03    0.132E-03
RMM:  12    -0.413217260047E+03    0.30950E-05   -0.61107E-07  2432   0.135E-03    0.702E-04
RMM:  13    -0.413217257438E+03    0.26087E-05   -0.30754E-07  1849   0.937E-04    0.341E-04
RMM:  14    -0.413217254904E+03    0.25347E-05   -0.17505E-07  1384   0.743E-04    0.177E-04
RMM:  15    -0.413217252118E+03    0.27852E-05   -0.13185E-07  1271   0.694E-04    0.116E-04
RMM:  16    -0.413217250126E+03    0.19926E-05   -0.87890E-08  1161   0.643E-04    0.983E-05
RMM:  17    -0.413217247203E+03    0.29228E-05   -0.82943E-08  1231   0.640E-04    0.546E-05
RMM:  18    -0.413217245464E+03    0.17388E-05   -0.50327E-08  1005   0.580E-04    0.462E-05
RMM:  19    -0.413217244805E+03    0.65882E-06   -0.26302E-08   794   0.537E-04
   47 T=    71. E= -.41286703E+03 F= -.41321724E+03 E0= -.41319631E+03  EK= 0.35021E+00 SP= 0.00E+00 SK= 0.00E+00
       N       E                     dE             d eps       ncg     rms          rms(c)
RMM:   1    -0.413243286516E+03   -0.26041E-01   -0.10867E+01  4305   0.173E+00    0.966E-01
RMM:   2    -0.413219402318E+03    0.23884E-01   -0.17478E-01  4417   0.202E-01    0.701E-01
RMM:   3    -0.413236344494E+03   -0.16942E-01   -0.30283E-02  5138   0.146E-01    0.634E-01
RMM:   4    -0.413228292155E+03    0.80523E-02   -0.42416E-02  4986   0.184E-01    0.483E-01
RMM:   5    -0.413215513455E+03    0.12779E-01   -0.46409E-03  4527   0.902E-02    0.579E-02
RMM:   6    -0.413215406122E+03    0.10733E-03   -0.71989E-04  4907   0.301E-02    0.307E-02
RMM:   7    -0.413215392609E+03    0.13513E-04   -0.17375E-04  5850   0.128E-02    0.123E-02
RMM:   8    -0.413215384988E+03    0.76208E-05   -0.40618E-05  5175   0.750E-03    0.689E-03
RMM:   9    -0.413215379836E+03    0.51520E-05   -0.57740E-06  3036   0.313E-03    0.337E-03
RMM:  10    -0.413215376810E+03    0.30264E-05   -0.25336E-06  2630   0.240E-03    0.222E-03
RMM:  11    -0.413215371393E+03    0.54168E-05   -0.12322E-06  2445   0.192E-03    0.140E-03
RMM:  12    -0.413215367910E+03    0.34830E-05   -0.45730E-07  2344   0.124E-03    0.811E-04
RMM:  13    -0.413215364113E+03    0.37972E-05   -0.23659E-07  1815   0.871E-04    0.444E-04
RMM:  14    -0.413215358463E+03    0.56504E-05   -0.20619E-07  1748   0.796E-04    0.402E-04
RMM:  15    -0.413215355452E+03    0.30110E-05   -0.89057E-08  1010   0.595E-04    0.174E-04
RMM:  16    -0.413215352486E+03    0.29655E-05   -0.70019E-08  1027   0.595E-04    0.104E-04
RMM:  17    -0.413215349488E+03    0.29984E-05   -0.57923E-08  1020   0.590E-04    0.111E-04
RMM:  18    -0.413215348396E+03    0.10921E-05   -0.28812E-08   778   0.542E-04    0.827E-05
RMM:  19    -0.413215345965E+03    0.24304E-05   -0.39952E-08   978   0.569E-04    0.507E-05
RMM:  20    -0.413215345326E+03    0.63972E-06   -0.14744E-08   656   0.500E-04
   48 T=    71. E= -.41286729E+03 F= -.41321535E+03 E0= -.41319442E+03  EK= 0.34805E+00 SP= 0.00E+00 SK= 0.00E+00
       N       E                     dE             d eps       ncg     rms          rms(c)
RMM:   1    -0.413244108449E+03   -0.28762E-01   -0.10711E+01  4305   0.185E+00    0.954E-01
RMM:   2    -0.413215075316E+03    0.29033E-01   -0.17695E-01  4478   0.213E-01    0.691E-01
RMM:   3    -0.413239245493E+03   -0.24170E-01   -0.35914E-02  5152   0.163E-01    0.728E-01
RMM:   4    -0.413219930672E+03    0.19315E-01   -0.41449E-02  4954   0.185E-01    0.408E-01
RMM:   5    -0.413211371342E+03    0.85593E-02   -0.42025E-03  4598   0.882E-02    0.638E-02
RMM:   6    -0.413211197094E+03    0.17425E-03   -0.45987E-04  4683   0.289E-02    0.334E-02
RMM:   7    -0.413211205702E+03   -0.86078E-05   -0.30953E-04  5752   0.183E-02    0.248E-02
RMM:   8    -0.413211168282E+03    0.37420E-04   -0.10396E-04  5003   0.117E-02    0.932E-03
RMM:   9    -0.413211161773E+03    0.65090E-05   -0.20841E-05  4984   0.576E-03    0.485E-03
RMM:  10    -0.413211157622E+03    0.41502E-05   -0.24847E-06  2640   0.246E-03    0.262E-03
RMM:  11    -0.413211151684E+03    0.59382E-05   -0.15176E-06  2504   0.201E-03    0.187E-03
RMM:  12    -0.413211147945E+03    0.37395E-05   -0.45232E-07  2407   0.126E-03    0.974E-04
RMM:  13    -0.413211143509E+03    0.44362E-05   -0.26517E-07  1993   0.885E-04    0.480E-04
RMM:  14    -0.413211138118E+03    0.53910E-05   -0.22730E-07  1807   0.808E-04    0.387E-04
RMM:  15    -0.413211133413E+03    0.47044E-05   -0.12264E-07  1180   0.649E-04    0.156E-04
RMM:  16    -0.413211130959E+03    0.24544E-05   -0.72253E-08  1055   0.602E-04    0.942E-05
RMM:  17    -0.413211127490E+03    0.34691E-05   -0.75258E-08  1189   0.619E-04    0.720E-05
RMM:  18    -0.413211126128E+03    0.13619E-05   -0.38533E-08   930   0.552E-04    0.626E-05
RMM:  19    -0.413211124629E+03    0.14986E-05   -0.33110E-08   939   0.544E-04    0.367E-05
RMM:  20    -0.413211123730E+03    0.89914E-06   -0.24293E-08   841   0.516E-04
   49 T=    70. E= -.41286704E+03 F= -.41321112E+03 E0= -.41319020E+03  EK= 0.34408E+00 SP= 0.00E+00 SK= 0.00E+00
       N       E                     dE             d eps       ncg     rms          rms(c)
RMM:   1    -0.413236677942E+03   -0.25553E-01   -0.10538E+01  4304   0.194E+00    0.929E-01
RMM:   2    -0.413210226080E+03    0.26452E-01   -0.17431E-01  4509   0.221E-01    0.694E-01
RMM:   3    -0.413236322226E+03   -0.26096E-01   -0.37845E-02  5157   0.170E-01    0.756E-01
RMM:   4    -0.413214327539E+03    0.21995E-01   -0.43041E-02  4949   0.190E-01    0.399E-01
[...]
RMM:  16    -0.413593498217E+03   -0.20974E-05   -0.36922E-07  1983   0.959E-04    0.189E-04
RMM:  17    -0.413593499871E+03   -0.16538E-05   -0.23764E-07  1594   0.796E-04    0.167E-04
RMM:  18    -0.413593501613E+03   -0.17427E-05   -0.17828E-07  1309   0.714E-04    0.944E-05
RMM:  19    -0.413593502845E+03   -0.12322E-05   -0.13007E-07  1244   0.662E-04    0.452E-05
RMM:  20    -0.413593503910E+03   -0.10643E-05   -0.92324E-08  1156   0.618E-04    0.332E-05
RMM:  21    -0.413593504766E+03   -0.85601E-06   -0.65493E-08  1074   0.584E-04
  139 T=   174. E= -.41273785E+03 F= -.41359350E+03 E0= -.41356915E+03  EK= 0.85566E+00 SP= 0.00E+00 SK= 0.00E+00
       N       E                     dE             d eps       ncg     rms          rms(c)
RMM:   1    -0.414077385567E+03   -0.48388E+00   -0.23780E+01  4291   0.821E+00    0.164E+00
RMM:   2    -0.413912201335E+03    0.16518E+00   -0.71282E-01  5362   0.943E-01    0.149E+00
RMM:   3    -0.413963951309E+03   -0.51750E-01   -0.17749E-01  5496   0.455E-01    0.161E+00
RMM:   4    -0.413899646418E+03    0.64305E-01   -0.11590E-01  5235   0.389E-01    0.731E-01
RMM:   5    -0.413892543550E+03    0.71029E-02   -0.57120E-02  4866   0.321E-01    0.269E-01
RMM:   6    -0.413890751072E+03    0.17925E-02   -0.20624E-02  5251   0.173E-01    0.169E-01
RMM:   7    -0.413889218550E+03    0.15325E-02   -0.30260E-03  4670   0.781E-02    0.657E-02
RMM:   8    -0.413889181288E+03    0.37261E-04   -0.10412E-03  5714   0.382E-02    0.377E-02
RMM:   9    -0.413889185740E+03   -0.44513E-05   -0.35859E-04  5416   0.232E-02    0.254E-02
RMM:  10    -0.413889177101E+03    0.86389E-05   -0.63840E-05  5423   0.986E-03    0.141E-02
RMM:  11    -0.413889179575E+03   -0.24747E-05   -0.51419E-05  5425   0.845E-03    0.735E-03
RMM:  12    -0.413889184733E+03   -0.51576E-05   -0.58865E-06  3098   0.359E-03    0.334E-03
RMM:  13    -0.413889187123E+03   -0.23897E-05   -0.19402E-06  2626   0.213E-03    0.139E-03
RMM:  14    -0.413889189353E+03   -0.22299E-05   -0.80131E-07  2444   0.149E-03    0.671E-04
RMM:  15    -0.413889191297E+03   -0.19439E-05   -0.51873E-07  2213   0.115E-03    0.381E-04
RMM:  16    -0.413889193380E+03   -0.20829E-05   -0.40726E-07  2025   0.990E-04    0.197E-04
RMM:  17    -0.413889194866E+03   -0.14867E-05   -0.28063E-07  1663   0.836E-04    0.162E-04
RMM:  18    -0.413889196189E+03   -0.13227E-05   -0.22138E-07  1508   0.769E-04    0.123E-04
RMM:  19    -0.413889197017E+03   -0.82847E-06   -0.15376E-07  1355   0.686E-04
  140 T=   230. E= -.41276078E+03 F= -.41388920E+03 E0= -.41386535E+03  EK= 0.11284E+01 SP= 0.00E+00 SK= 0.00E+00
       N       E                     dE             d eps       ncg     rms          rms(c)
RMM:   1    -0.414325124940E+03   -0.43593E+00   -0.30151E+01  4297   0.949E+00    0.161E+00
RMM:   2    -0.414058603522E+03    0.26652E+00   -0.84689E-01  5372   0.110E+00    0.158E+00
RMM:   3    -0.414092903891E+03   -0.34300E-01   -0.18036E-01  5616   0.469E-01    0.159E+00
RMM:   4    -0.414040191191E+03    0.52713E-01   -0.90759E-02  5270   0.344E-01    0.890E-01
RMM:   5    -0.414035676082E+03    0.45151E-02   -0.58733E-02  4663   0.331E-01    0.348E-01
RMM:   6    -0.414033065452E+03    0.26106E-02   -0.26734E-02  5022   0.199E-01    0.189E-01
RMM:   7    -0.414031023447E+03    0.20420E-02   -0.42822E-03  4786   0.928E-02    0.874E-02
RMM:   8    -0.414030924801E+03    0.98647E-04   -0.11349E-03  5599   0.415E-02    0.592E-02
RMM:   9    -0.414030878810E+03    0.45991E-04   -0.60190E-04  4635   0.318E-02    0.236E-02
RMM:  10    -0.414030882973E+03   -0.41633E-05   -0.12970E-04  5736   0.133E-02    0.153E-02
RMM:  11    -0.414030886843E+03   -0.38696E-05   -0.52086E-05  4961   0.945E-03    0.901E-03
RMM:  12    -0.414030893858E+03   -0.70149E-05   -0.88152E-06  3422   0.416E-03    0.435E-03
RMM:  13    -0.414030897089E+03   -0.32312E-05   -0.36297E-06  2863   0.267E-03    0.178E-03
RMM:  14    -0.414030899787E+03   -0.26977E-05   -0.13922E-06  2540   0.191E-03    0.940E-04
RMM:  15    -0.414030902201E+03   -0.24141E-05   -0.81419E-07  2407   0.143E-03    0.596E-04
RMM:  16    -0.414030903953E+03   -0.17522E-05   -0.49919E-07  2050   0.107E-03    0.311E-04
RMM:  17    -0.414030905206E+03   -0.12530E-05   -0.37636E-07  1826   0.915E-04    0.158E-04
RMM:  18    -0.414030906244E+03   -0.10383E-05   -0.37509E-07  1881   0.881E-04    0.129E-04
RMM:  19    -0.414030906572E+03   -0.32774E-06   -0.19135E-07  1367   0.700E-04
  141 T=   259. E= -.41275970E+03 F= -.41403091E+03 E0= -.41400790E+03  EK= 0.12712E+01 SP= 0.00E+00 SK= 0.00E+00
       N       E                     dE             d eps       ncg     rms          rms(c)
RMM:   1    -0.414261476631E+03   -0.23057E+00   -0.30442E+01  4299   0.976E+00    0.122E+00
RMM:   2    -0.413992848248E+03    0.26863E+00   -0.79815E-01  5396   0.108E+00    0.123E+00
RMM:   3    -0.414014598389E+03   -0.21750E-01   -0.13059E-01  5805   0.397E-01    0.119E+00
RMM:   4    -0.413991018624E+03    0.23580E-01   -0.46061E-02  5330   0.232E-01    0.853E-01
RMM:   5    -0.413982931515E+03    0.80871E-02   -0.45595E-02  4428   0.288E-01    0.363E-01
RMM:   6    -0.413981883971E+03    0.10475E-02   -0.21612E-02  4939   0.185E-01    0.181E-01
RMM:   7    -0.413980613577E+03    0.12704E-02   -0.42205E-03  5307   0.862E-02    0.127E-01
RMM:   8    -0.413980230573E+03    0.38300E-03   -0.98591E-04  4799   0.423E-02    0.793E-02
RMM:   9    -0.413980107312E+03    0.12326E-03   -0.11871E-03  4421   0.437E-02    0.237E-02
RMM:  10    -0.413980127567E+03   -0.20255E-04   -0.21123E-04  5777   0.171E-02    0.177E-02
RMM:  11    -0.413980129649E+03   -0.20820E-05   -0.50633E-05  4539   0.969E-03    0.770E-03
RMM:  12    -0.413980140682E+03   -0.11033E-04   -0.15744E-05  4137   0.513E-03    0.471E-03
RMM:  13    -0.413980144558E+03   -0.38759E-05   -0.39803E-06  2882   0.267E-03    0.237E-03
RMM:  14    -0.413980147440E+03   -0.28814E-05   -0.16233E-06  2591   0.192E-03    0.141E-03
RMM:  15    -0.413980149925E+03   -0.24855E-05   -0.10329E-06  2444   0.155E-03    0.789E-04
RMM:  16    -0.413980151753E+03   -0.18278E-05   -0.68089E-07  2238   0.119E-03    0.358E-04
RMM:  17    -0.413980152673E+03   -0.91978E-06   -0.42995E-07  1918   0.954E-04
  142 T=   250. E= -.41275000E+03 F= -.41398015E+03 E0= -.41395896E+03  EK= 0.12302E+01 SP= 0.00E+00 SK= 0.00E+00
       N       E                     dE             d eps       ncg     rms          rms(c)
RMM:   1    -0.414060529110E+03   -0.80377E-01   -0.27332E+01  4295   0.944E+00    0.106E+00
RMM:   2    -0.413856617872E+03    0.20391E+00   -0.69174E-01  5410   0.101E+00    0.105E+00
RMM:   3    -0.413856662645E+03   -0.44773E-04   -0.90828E-02  5798   0.323E-01    0.813E-01
RMM:   4    -0.413919775845E+03   -0.63113E-01   -0.84857E-02  5168   0.290E-01    0.116E+00
RMM:   5    -0.413855279652E+03    0.64496E-01   -0.69243E-02  4900   0.294E-01    0.407E-01
RMM:   6    -0.413850923681E+03    0.43560E-02   -0.24066E-02  5366   0.195E-01    0.177E-01
RMM:   7    -0.413850012499E+03    0.91118E-03   -0.37619E-03  5599   0.773E-02    0.132E-01
RMM:   8    -0.413849602722E+03    0.40978E-03   -0.11514E-03  4604   0.444E-02    0.762E-02
RMM:   9    -0.413849537196E+03    0.65526E-04   -0.12397E-03  4667   0.430E-02    0.267E-02
RMM:  10    -0.413849561702E+03   -0.24507E-04   -0.28119E-04  5874   0.190E-02    0.198E-02
RMM:  11    -0.413849563644E+03   -0.19417E-05   -0.59663E-05  5143   0.945E-03    0.111E-02
RMM:  12    -0.413849570328E+03   -0.66842E-05   -0.17681E-05  4259   0.578E-03    0.410E-03
RMM:  13    -0.413849575159E+03   -0.48307E-05   -0.41728E-06  2906   0.279E-03    0.252E-03
RMM:  14    -0.413849579521E+03   -0.43620E-05   -0.20627E-06  2641   0.219E-03    0.123E-03
RMM:  15    -0.413849582602E+03   -0.30807E-05   -0.12250E-06  2500   0.169E-03    0.709E-04
RMM:  16    -0.413849584700E+03   -0.20988E-05   -0.81399E-07  2331   0.130E-03    0.414E-04
RMM:  17    -0.413849585716E+03   -0.10152E-05   -0.49840E-07  2037   0.103E-03    0.277E-04
RMM:  18    -0.413849586730E+03   -0.10144E-05   -0.58282E-07  2143   0.103E-03    0.240E-04
RMM:  19    -0.413849586786E+03   -0.55545E-07   -0.23136E-07  1369   0.708E-04
  143 T=   225. E= -.41274492E+03 F= -.41384959E+03 E0= -.41382986E+03  EK= 0.11047E+01 SP= 0.00E+00 SK= 0.00E+00
       N       E                     dE             d eps       ncg     rms          rms(c)
RMM:   1    -0.413855433021E+03   -0.58463E-02   -0.23594E+01  4293   0.892E+00    0.102E+00
RMM:   2    -0.413715480934E+03    0.13995E+00   -0.56530E-01  5400   0.929E-01    0.102E+00
RMM:   3    -0.413731441754E+03   -0.15961E-01   -0.10396E-01  5921   0.320E-01    0.102E+00
RMM:   4    -0.413711093695E+03    0.20348E-01   -0.21431E-02  5205   0.168E-01    0.703E-01
RMM:   5    -0.413708412848E+03    0.26808E-02   -0.55703E-02  4337   0.304E-01    0.274E-01
RMM:   6    -0.413706615898E+03    0.17970E-02   -0.12287E-02  5204   0.144E-01    0.161E-01
RMM:   7    -0.413706040197E+03    0.57570E-03   -0.21522E-03  5637   0.577E-02    0.120E-01
RMM:   8    -0.413705657713E+03    0.38248E-03   -0.13598E-03  4541   0.479E-02    0.558E-02
RMM:   9    -0.413705667029E+03   -0.93163E-05   -0.97989E-04  4938   0.383E-02    0.287E-02
RMM:  10    -0.413705674463E+03   -0.74335E-05   -0.13204E-04  5456   0.148E-02    0.167E-02
RMM:  11    -0.413705678992E+03   -0.45295E-05   -0.38094E-05  4923   0.803E-03    0.762E-03
RMM:  12    -0.413705685330E+03   -0.63382E-05   -0.88515E-06  3374   0.372E-03    0.440E-03
RMM:  13    -0.413705690374E+03   -0.50433E-05   -0.29432E-06  2799   0.258E-03    0.223E-03
RMM:  14    -0.413705694519E+03   -0.41450E-05   -0.24313E-06  2716   0.226E-03    0.963E-04
RMM:  15    -0.413705697797E+03   -0.32780E-05   -0.11219E-06  2481   0.163E-03    0.623E-04
RMM:  16    -0.413705699439E+03   -0.16422E-05   -0.57273E-07  2197   0.113E-03    0.340E-04
RMM:  17    -0.413705700885E+03   -0.14462E-05   -0.42343E-07  1956   0.966E-04    0.180E-04
RMM:  18    -0.413705702104E+03   -0.12193E-05   -0.39462E-07  1910   0.893E-04    0.134E-04
RMM:  19    -0.413705702491E+03   -0.38674E-06   -0.19128E-07  1411   0.692E-04
  144 T=   196. E= -.41274426E+03 F= -.41370570E+03 E0= -.41368702E+03  EK= 0.96144E+00 SP= 0.00E+00 SK= 0.00E+00
       N       E                     dE             d eps       ncg     rms          rms(c)
RMM:   1    -0.413658721840E+03    0.46980E-01   -0.19874E+01  4284   0.836E+00    0.988E-01
RMM:   2    -0.413570094957E+03    0.88627E-01   -0.45626E-01  5385   0.848E-01    0.101E+00
RMM:   3    -0.413578203614E+03   -0.81087E-02   -0.90873E-02  5918   0.295E-01    0.100E+00
RMM:   4    -0.413560722977E+03    0.17481E-01   -0.16114E-02  4925   0.161E-01    0.648E-01
RMM:   5    -0.413559792244E+03    0.93073E-03   -0.51887E-02  4316   0.296E-01    0.231E-01
RMM:   6    -0.413557997752E+03    0.17945E-02   -0.73234E-03  5350   0.112E-01    0.143E-01
RMM:   7    -0.413557496638E+03    0.50111E-03   -0.12482E-03  4908   0.475E-02    0.839E-02
RMM:   8    -0.413557387267E+03    0.10937E-03   -0.11421E-03  4561   0.435E-02    0.323E-02
RMM:   9    -0.413557401512E+03   -0.14245E-04   -0.43476E-04  5750   0.244E-02    0.248E-02
RMM:  10    -0.413557400919E+03    0.59296E-06   -0.95688E-05  5378   0.116E-02    0.135E-02
RMM:  11    -0.413557405661E+03   -0.47415E-05   -0.27432E-05  4947   0.673E-03    0.650E-03
RMM:  12    -0.413557411317E+03   -0.56557E-05   -0.61290E-06  3181   0.327E-03    0.363E-03
RMM:  13    -0.413557416391E+03   -0.50742E-05   -0.25175E-06  2729   0.242E-03    0.181E-03
RMM:  14    -0.413557421099E+03   -0.47080E-05   -0.18717E-06  2599   0.208E-03    0.982E-04
RMM:  15    -0.413557424505E+03   -0.34065E-05   -0.91339E-07  2439   0.147E-03    0.517E-04
RMM:  16    -0.413557425929E+03   -0.14240E-05   -0.42997E-07  2019   0.101E-03    0.298E-04
RMM:  17    -0.413557428332E+03   -0.24032E-05   -0.48865E-07  2070   0.101E-03    0.177E-04
RMM:  18    -0.413557429323E+03   -0.99008E-06   -0.24046E-07  1433   0.748E-04
  145 T=   166. E= -.41274432E+03 F= -.41355743E+03 E0= -.41353959E+03  EK= 0.81311E+00 SP= 0.00E+00 SK= 0.00E+00
       N       E                     dE             d eps       ncg     rms          rms(c)
RMM:   1    -0.413465234236E+03    0.92194E-01   -0.15956E+01  4279   0.765E+00    0.904E-01
RMM:   2    -0.413414003130E+03    0.51231E-01   -0.33508E-01  5358   0.735E-01    0.897E-01
RMM:   3    -0.413421152652E+03   -0.71495E-02   -0.70682E-02  5915   0.259E-01    0.898E-01
RMM:   4    -0.413406332159E+03    0.14820E-01   -0.14648E-02  4812   0.156E-01    0.524E-01
RMM:   5    -0.413406721486E+03   -0.38933E-03   -0.34905E-02  4347   0.246E-01    0.201E-01
RMM:   6    -0.413405265747E+03    0.14557E-02   -0.50074E-03  5213   0.935E-02    0.124E-01
RMM:   7    -0.413404961616E+03    0.30413E-03   -0.11490E-03  5409   0.425E-02    0.898E-02
RMM:   8    -0.413404765706E+03    0.19591E-03   -0.87740E-04  4412   0.391E-02    0.290E-02
RMM:   9    -0.413404794228E+03   -0.28521E-04   -0.36635E-04  5742   0.227E-02    0.196E-02
RMM:  10    -0.413404796881E+03   -0.26533E-05   -0.64118E-05  5407   0.967E-03    0.108E-02
RMM:  11    -0.413404801687E+03   -0.48055E-05   -0.18132E-05  4435   0.554E-03    0.509E-03
RMM:  12    -0.413404807346E+03   -0.56591E-05   -0.44343E-06  2970   0.294E-03    0.305E-03
RMM:  13    -0.413404811593E+03   -0.42472E-05   -0.17231E-06  2622   0.205E-03    0.147E-03
RMM:  14    -0.413404815302E+03   -0.37094E-05   -0.13581E-06  2532   0.177E-03    0.714E-04
RMM:  15    -0.413404818108E+03   -0.28054E-05   -0.78421E-07  2325   0.133E-03    0.431E-04
RMM:  16    -0.413404819450E+03   -0.13420E-05   -0.39648E-07  1919   0.973E-04    0.259E-04
RMM:  17    -0.413404821494E+03   -0.20443E-05   -0.42770E-07  1950   0.953E-04    0.152E-04
RMM:  18    -0.413404822425E+03   -0.93132E-06   -0.23756E-07  1510   0.743E-04
  146 T=   135. E= -.41274177E+03 F= -.41340482E+03 E0= -.41338739E+03  EK= 0.66305E+00 SP= 0.00E+00 SK= 0.00E+00
       N       E                     dE             d eps       ncg     rms          rms(c)
RMM:   1    -0.413309934508E+03    0.94887E-01   -0.12159E+01  4280   0.679E+00    0.690E-01
RMM:   2    -0.413282329675E+03    0.27605E-01   -0.22261E-01  5307   0.594E-01    0.616E-01
RMM:   3    -0.413296505744E+03   -0.14176E-01   -0.50279E-02  5889   0.216E-01    0.696E-01
RMM:   4    -0.413281456171E+03    0.15050E-01   -0.14397E-02  4914   0.142E-01    0.328E-01
RMM:   5    -0.413281705184E+03   -0.24901E-03   -0.14552E-02  4474   0.163E-01    0.136E-01
RMM:   6    -0.413281119273E+03    0.58591E-03   -0.25682E-03  5261   0.654E-02    0.937E-02
RMM:   7    -0.413280949778E+03    0.16950E-03   -0.71589E-04  5288   0.334E-02    0.617E-02
RMM:   8    -0.413280875233E+03    0.74546E-04   -0.46376E-04  4451   0.280E-02    0.170E-02
RMM:   9    -0.413280894900E+03   -0.19668E-04   -0.14788E-04  5867   0.141E-02    0.129E-02
RMM:  10    -0.413280898505E+03   -0.36050E-05   -0.25078E-05  4816   0.598E-03    0.816E-03
RMM:  11    -0.413280901667E+03   -0.31624E-05   -0.87227E-06  3642   0.411E-03    0.362E-03
RMM:  12    -0.413280906526E+03   -0.48585E-05   -0.25823E-06  2738   0.256E-03    0.234E-03
RMM:  13    -0.413280909667E+03   -0.31407E-05   -0.14529E-06  2573   0.186E-03    0.902E-04
RMM:  14    -0.413280911726E+03   -0.20595E-05   -0.86714E-07  2403   0.142E-03    0.543E-04
RMM:  15    -0.413280913418E+03   -0.16923E-05   -0.62375E-07  2181   0.115E-03    0.365E-04
RMM:  16    -0.413280914283E+03   -0.86465E-06   -0.39116E-07  1840   0.926E-04
  147 T=   110. E= -.41273953E+03 F= -.41328091E+03 E0= -.41326329E+03  EK= 0.54139E+00 SP= 0.00E+00 SK= 0.00E+00
       N       E                     dE             d eps       ncg     rms          rms(c)
RMM:   1    -0.413228814563E+03    0.52099E-01   -0.96435E+00  4290   0.611E+00    0.624E-01
RMM:   2    -0.413215094145E+03    0.13720E-01   -0.16803E-01  5281   0.511E-01    0.510E-01
RMM:   3    -0.413231466844E+03   -0.16373E-01   -0.43772E-02  5789   0.208E-01    0.683E-01
RMM:   4    -0.413214031677E+03    0.17435E-01   -0.16615E-02  5053   0.148E-01    0.280E-01
RMM:   5    -0.413214306788E+03   -0.27511E-03   -0.13988E-02  4880   0.153E-01    0.152E-01
RMM:   6    -0.413213707544E+03    0.59924E-03   -0.35867E-03  5104   0.761E-02    0.896E-02
RMM:   7    -0.413213545353E+03    0.16219E-03   -0.67560E-04  5350   0.330E-02    0.582E-02
RMM:   8    -0.413213483444E+03    0.61909E-04   -0.42969E-04  4699   0.264E-02    0.207E-02
RMM:   9    -0.413213497457E+03   -0.14013E-04   -0.15512E-04  5509   0.142E-02    0.134E-02
RMM:  10    -0.413213500025E+03   -0.25684E-05   -0.29526E-05  4906   0.657E-03    0.714E-03
RMM:  11    -0.413213505016E+03   -0.49910E-05   -0.11401E-05  3999   0.436E-03    0.444E-03
RMM:  12    -0.413213508783E+03   -0.37669E-05   -0.25905E-06  2746   0.262E-03    0.199E-03
RMM:  13    -0.413213510317E+03   -0.15338E-05   -0.11837E-06  2542   0.166E-03    0.938E-04
RMM:  14    -0.413213511562E+03   -0.12454E-05   -0.80105E-07  2388   0.135E-03    0.547E-04
RMM:  15    -0.413213512178E+03   -0.61531E-06   -0.64858E-07  2175   0.111E-03
  148 T=    96. E= -.41274196E+03 F= -.41321351E+03 E0= -.41319545E+03  EK= 0.47155E+00 SP= 0.00E+00 SK= 0.00E+00
       N       E                     dE             d eps       ncg     rms          rms(c)
RMM:   1    -0.413185035690E+03    0.28476E-01   -0.83439E+00  4295   0.567E+00    0.759E-01
RMM:   2    -0.413187500121E+03   -0.24644E-02   -0.17563E-01  5367   0.519E-01    0.738E-01
RMM:   3    -0.413186529004E+03    0.97112E-03   -0.47900E-02  5536   0.230E-01    0.719E-01
RMM:   4    -0.413173367550E+03    0.13161E-01   -0.24102E-02  5235   0.181E-01    0.346E-01
RMM:   5    -0.413173206369E+03    0.16118E-03   -0.14158E-02  4866   0.153E-01    0.175E-01
RMM:   6    -0.413172719011E+03    0.48736E-03   -0.73907E-03  5187   0.103E-01    0.108E-01
RMM:   7    -0.413172223326E+03    0.49569E-03   -0.93087E-04  4615   0.443E-02    0.511E-02
RMM:   8    -0.413172207080E+03    0.16246E-04   -0.44295E-04  5664   0.242E-02    0.278E-02
RMM:   9    -0.413172205631E+03    0.14492E-05   -0.14507E-04  4872   0.145E-02    0.126E-02
RMM:  10    -0.413172208261E+03   -0.26305E-05   -0.38546E-05  5357   0.728E-03    0.705E-03
RMM:  11    -0.413172211789E+03   -0.35275E-05   -0.14567E-05  4380   0.478E-03    0.530E-03
RMM:  12    -0.413172214603E+03   -0.28138E-05   -0.28132E-06  2756   0.273E-03    0.263E-03
RMM:  13    -0.413172215694E+03   -0.10910E-05   -0.14867E-06  2585   0.184E-03    0.112E-03
RMM:  14    -0.413172216016E+03   -0.32200E-06   -0.88325E-07  2396   0.144E-03
  149 T=    87. E= -.41274436E+03 F= -.41317222E+03 E0= -.41315370E+03  EK= 0.42786E+00 SP= 0.00E+00 SK= 0.00E+00
       N       E                     dE             d eps       ncg     rms          rms(c)
RMM:   1    -0.413136354618E+03    0.35861E-01   -0.71383E+00  4296   0.523E+00    0.747E-01
RMM:   2    -0.413155134025E+03   -0.18779E-01   -0.18328E-01  5385   0.520E-01    0.860E-01
RMM:   3    -0.413137842131E+03    0.17292E-01   -0.49264E-02  5408   0.242E-01    0.691E-01
RMM:   4    -0.413126969881E+03    0.10872E-01   -0.24683E-02  5310   0.185E-01    0.349E-01
RMM:   5    -0.413127180193E+03   -0.21031E-03   -0.12095E-02  4960   0.140E-01    0.189E-01
RMM:   6    -0.413126619401E+03    0.56079E-03   -0.83955E-03  5081   0.108E-01    0.111E-01
RMM:   7    -0.413126078855E+03    0.54055E-03   -0.10477E-03  4589   0.480E-02    0.444E-02
RMM:   8    -0.413126075413E+03    0.34417E-05   -0.35222E-04  5744   0.212E-02    0.274E-02
RMM:   9    -0.413126071039E+03    0.43741E-05   -0.11327E-04  4609   0.134E-02    0.102E-02
RMM:  10    -0.413126074205E+03   -0.31659E-05   -0.29483E-05  4972   0.633E-03    0.638E-03
RMM:  11    -0.413126075172E+03   -0.96749E-06   -0.94041E-06  3879   0.409E-03
  150 T=    78. E= -.41274340E+03 F= -.41312608E+03 E0= -.41310712E+03  EK= 0.38267E+00 SP= 0.00E+00 SK= 0.00E+00
