       N       E                     dE             d eps       ncg     rms          rms(c)
RMM:   1     0.220132300060E+04    0.22013E+04   -0.52440E+04  2132   0.654E+02
RMM:   2     0.705330429031E+03   -0.14960E+04   -0.16261E+04  2132   0.177E+02
RMM:   3     0.137402280890E+03   -0.56793E+03   -0.65694E+03  2132   0.117E+02
RMM:   4    -0.159267979723E+03   -0.29667E+03   -0.27847E+03  2132   0.936E+01
RMM:   5    -0.287427579206E+03   -0.12816E+03   -0.11449E+03  2132   0.595E+01
RMM:   6    -0.349791689646E+03   -0.62364E+02   -0.55126E+02  2132   0.423E+01
RMM:   7    -0.382756866672E+03   -0.32965E+02   -0.30449E+02  2132   0.293E+01
RMM:   8    -0.404276914825E+03   -0.21520E+02   -0.18450E+02  2132   0.233E+01
RMM:   9    -0.435968909470E+03   -0.31692E+02   -0.30585E+02  6099   0.173E+01
RMM:  10    -0.441328732369E+03   -0.53598E+01   -0.63239E+01  6399   0.539E+00
RMM:  11    -0.442524060463E+03   -0.11953E+01   -0.10840E+01  6231   0.172E+00
RMM:  12    -0.442893633646E+03   -0.36957E+00   -0.26935E+00  6373   0.598E-01    0.134E+02
RMM:  13    -0.425659756434E+03    0.17234E+02   -0.81251E+01  4683   0.120E+01    0.712E+01
RMM:  14    -0.500322163870E+03   -0.74662E+02   -0.54719E+02  5419   0.233E+01    0.308E+01
RMM:  15    -0.414705434003E+03    0.85617E+02   -0.19764E+02  5061   0.164E+01    0.632E+00
RMM:  16    -0.414040608718E+03    0.66483E+00   -0.39534E+01  6080   0.606E+00    0.428E+00
RMM:  17    -0.413215575815E+03    0.82503E+00   -0.23293E+00  5350   0.183E+00    0.245E+00
RMM:  18    -0.413168760171E+03    0.46816E-01   -0.83840E-01  5968   0.940E-01    0.161E+00
RMM:  19    -0.413169841598E+03   -0.10814E-02   -0.27045E-01  5679   0.558E-01    0.854E-01
RMM:  20    -0.413187814765E+03   -0.17973E-01   -0.24917E-01  5402   0.542E-01    0.596E-01
RMM:  21    -0.413168254833E+03    0.19560E-01   -0.35423E-02  4961   0.245E-01    0.267E-01
RMM:  22    -0.413166229349E+03    0.20255E-02   -0.16580E-02  6100   0.113E-01    0.146E-01
RMM:  23    -0.413164689518E+03    0.15398E-02   -0.62933E-03  5903   0.733E-02    0.833E-02
RMM:  24    -0.413163374041E+03    0.13155E-02   -0.15386E-03  5255   0.405E-02    0.437E-02
RMM:  25    -0.413162956482E+03    0.41756E-03   -0.80332E-04  5587   0.259E-02    0.330E-02
RMM:  26    -0.413163095360E+03   -0.13888E-03   -0.78793E-04  5769   0.298E-02    0.314E-02
RMM:  27    -0.413163505478E+03   -0.41012E-03   -0.19013E-04  4611   0.194E-02    0.199E-02
RMM:  28    -0.413163961509E+03   -0.45603E-03   -0.18786E-04  5188   0.194E-02    0.942E-03
RMM:  29    -0.413164342665E+03   -0.38116E-03   -0.11050E-04  4421   0.154E-02    0.367E-03
RMM:  30    -0.413164557733E+03   -0.21507E-03   -0.83716E-05  4468   0.101E-02    0.395E-03
RMM:  31    -0.413164660360E+03   -0.10263E-03   -0.47143E-05  3120   0.600E-03    0.313E-03
RMM:  32    -0.413164681885E+03   -0.21525E-04   -0.18167E-05  2956   0.284E-03    0.160E-03
RMM:  33    -0.413164691283E+03   -0.93978E-05   -0.80315E-06  2782   0.211E-03    0.499E-04
RMM:  34    -0.413164694067E+03   -0.27842E-05   -0.62974E-06  2625   0.159E-03    0.662E-04
RMM:  35    -0.413164693780E+03    0.28749E-06   -0.21123E-06  2283   0.119E-03
    1 T=    61. E= -.41286691E+03 F= -.41316469E+03 E0= -.41314219E+03  EK= 0.29778E+00 SP= 0.00E+00 SK= 0.00E+00
       N       E                     dE             d eps       ncg     rms          rms(c)
RMM:   1    -0.413164103192E+03    0.59087E-03   -0.87767E+00  3988   0.606E-01    0.887E-01
RMM:   2    -0.413168775607E+03   -0.46724E-02   -0.10788E-01  3903   0.878E-02    0.652E-01
RMM:   3    -0.413164944940E+03    0.38307E-02   -0.18618E-02  4906   0.522E-02    0.113E-01
RMM:   4    -0.413192495375E+03   -0.27550E-01   -0.30453E-02  5192   0.145E-01    0.694E-01
RMM:   5    -0.413164193998E+03    0.28301E-01   -0.13698E-02  4837   0.117E-01    0.496E-02
RMM:   6    -0.413164394765E+03   -0.20077E-03   -0.25014E-03  5773   0.488E-02    0.343E-02
RMM:   7    -0.413164395675E+03   -0.90957E-06   -0.45758E-04  5712   0.195E-02    0.217E-02
RMM:   8    -0.413164391903E+03    0.37716E-05   -0.59716E-05  5184   0.844E-03    0.960E-03
RMM:   9    -0.413164393895E+03   -0.19911E-05   -0.12793E-05  3731   0.376E-03    0.712E-03
RMM:  10    -0.413164398874E+03   -0.49793E-05   -0.24244E-06  2602   0.227E-03    0.431E-03
RMM:  11    -0.413164402963E+03   -0.40891E-05   -0.13303E-06  2530   0.171E-03    0.244E-03
RMM:  12    -0.413164409871E+03   -0.69076E-05   -0.18794E-06  2581   0.194E-03    0.104E-03
RMM:  13    -0.413164412851E+03   -0.29800E-05   -0.74964E-07  2403   0.133E-03    0.798E-04
RMM:  14    -0.413164412760E+03    0.90684E-07   -0.36502E-07  1937   0.879E-04
    2 T=    61. E= -.41286672E+03 F= -.41316441E+03 E0= -.41314191E+03  EK= 0.29770E+00 SP= 0.00E+00 SK= 0.00E+00
       N       E                     dE             d eps       ncg     rms          rms(c)
RMM:   1    -0.413165103466E+03   -0.69062E-03   -0.87702E+00  4190   0.614E-01    0.905E-01
RMM:   2    -0.413168919211E+03   -0.38157E-02   -0.10701E-01  4001   0.888E-02    0.648E-01
RMM:   3    -0.413165376010E+03    0.35432E-02   -0.17392E-02  4843   0.487E-02    0.103E-01
RMM:   4    -0.413189689744E+03   -0.24314E-01   -0.25577E-02  5165   0.133E-01    0.653E-01
RMM:   5    -0.413164837202E+03    0.24853E-01   -0.11945E-02  4829   0.109E-01    0.482E-02
RMM:   6    -0.413165009529E+03   -0.17233E-03   -0.22206E-03  5770   0.456E-02    0.341E-02
RMM:   7    -0.413164996646E+03    0.12883E-04   -0.41394E-04  5609   0.195E-02    0.213E-02
RMM:   8    -0.413164986142E+03    0.10503E-04   -0.56256E-05  5048   0.850E-03    0.100E-02
RMM:   9    -0.413164984538E+03    0.16048E-05   -0.11495E-05  3680   0.374E-03    0.752E-03
RMM:  10    -0.413164984605E+03   -0.67364E-07   -0.20774E-06  2572   0.233E-03
    3 T=    61. E= -.41286704E+03 F= -.41316498E+03 E0= -.41314249E+03  EK= 0.29795E+00 SP= 0.00E+00 SK= 0.00E+00
       N       E                     dE             d eps       ncg     rms          rms(c)
RMM:   1    -0.413167481982E+03   -0.24974E-02   -0.87381E+00  4219   0.634E-01    0.890E-01
RMM:   2    -0.413168470321E+03   -0.98834E-03   -0.11105E-01  4204   0.882E-02    0.643E-01
RMM:   3    -0.413170550991E+03   -0.20807E-02   -0.20834E-02  5155   0.841E-02    0.329E-01
RMM:   4    -0.413189040683E+03   -0.18490E-01   -0.39531E-02  5107   0.170E-01    0.644E-01
RMM:   5    -0.413164707840E+03    0.24333E-01   -0.92722E-03  4704   0.105E-01    0.607E-02
RMM:   6    -0.413164720968E+03   -0.13128E-04   -0.18146E-03  5438   0.432E-02    0.321E-02
RMM:   7    -0.413164740135E+03   -0.19167E-04   -0.36118E-04  5982   0.173E-02    0.196E-02
RMM:   8    -0.413164735386E+03    0.47497E-05   -0.64398E-05  5166   0.925E-03    0.805E-03
RMM:   9    -0.413164733605E+03    0.17807E-05   -0.82410E-06  3441   0.367E-03    0.406E-03
RMM:  10    -0.413164734706E+03   -0.11013E-05   -0.17280E-06  2549   0.217E-03    0.262E-03
RMM:  11    -0.413164736356E+03   -0.16498E-05   -0.13716E-06  2532   0.183E-03    0.152E-03
RMM:  12    -0.413164737185E+03   -0.82880E-06   -0.79184E-07  2492   0.142E-03
    4 T=    61. E= -.41286673E+03 F= -.41316474E+03 E0= -.41314225E+03  EK= 0.29800E+00 SP= 0.00E+00 SK= 0.00E+00
       N       E                     dE             d eps       ncg     rms          rms(c)
RMM:   1    -0.413164420663E+03    0.31569E-03   -0.87764E+00  4235   0.619E-01    0.885E-01
RMM:   2    -0.413168950623E+03   -0.45300E-02   -0.10817E-01  3937   0.857E-02    0.651E-01
RMM:   3    -0.413165564938E+03    0.33857E-02   -0.18624E-02  4983   0.507E-02    0.124E-01
RMM:   4    -0.413196420295E+03   -0.30855E-01   -0.33552E-02  5152   0.153E-01    0.735E-01
RMM:   5    -0.413164660326E+03    0.31760E-01   -0.14996E-02  4814   0.122E-01    0.504E-02
RMM:   6    -0.413164860880E+03   -0.20055E-03   -0.26274E-03  5756   0.505E-02    0.341E-02
RMM:   7    -0.413164863038E+03   -0.21584E-05   -0.45541E-04  5729   0.198E-02    0.217E-02
RMM:   8    -0.413164858180E+03    0.48575E-05   -0.64402E-05  5151   0.885E-03    0.999E-03
RMM:   9    -0.413164858666E+03   -0.48518E-06   -0.12567E-05  3855   0.397E-03    0.724E-03
RMM:  10    -0.413164862673E+03   -0.40073E-05   -0.20776E-06  2586   0.227E-03    0.442E-03
RMM:  11    -0.413164866102E+03   -0.34296E-05   -0.11964E-06  2528   0.174E-03    0.246E-03
RMM:  12    -0.413164871763E+03   -0.56608E-05   -0.19281E-06  2607   0.199E-03    0.110E-03
RMM:  13    -0.413164873824E+03   -0.20609E-05   -0.63293E-07  2400   0.133E-03    0.807E-04
RMM:  14    -0.413164873695E+03    0.12910E-06   -0.24979E-07  1917   0.866E-04
    5 T=    61. E= -.41286667E+03 F= -.41316487E+03 E0= -.41314240E+03  EK= 0.29821E+00 SP= 0.00E+00 SK= 0.00E+00
       N       E                     dE             d eps       ncg     rms          rms(c)
RMM:   1    -0.413165273081E+03   -0.39926E-03   -0.87891E+00  4247   0.624E-01    0.902E-01
RMM:   2    -0.413169066418E+03   -0.37933E-02   -0.10753E-01  3904   0.837E-02    0.650E-01
RMM:   3    -0.413165742604E+03    0.33238E-02   -0.17564E-02  4900   0.453E-02    0.102E-01
RMM:   4    -0.413190035915E+03   -0.24293E-01   -0.25461E-02  5147   0.133E-01    0.653E-01
RMM:   5    -0.413165194590E+03    0.24841E-01   -0.11921E-02  4814   0.108E-01    0.480E-02
RMM:   6    -0.413165365987E+03   -0.17140E-03   -0.21881E-03  5764   0.454E-02    0.336E-02
RMM:   7    -0.413165356772E+03    0.92151E-05   -0.40515E-04  5603   0.193E-02    0.211E-02
RMM:   8    -0.413165346697E+03    0.10075E-04   -0.54969E-05  5006   0.840E-03    0.991E-03
RMM:   9    -0.413165345052E+03    0.16456E-05   -0.10732E-05  3624   0.370E-03    0.743E-03
RMM:  10    -0.413165345341E+03   -0.28935E-06   -0.19734E-06  2558   0.231E-03
    6 T=    61. E= -.41286688E+03 F= -.41316535E+03 E0= -.41314288E+03  EK= 0.29847E+00 SP= 0.00E+00 SK= 0.00E+00
       N       E                     dE             d eps       ncg     rms          rms(c)
RMM:   1    -0.413165003608E+03    0.34144E-03   -0.87406E+00  4258   0.627E-01    0.897E-01
RMM:   2    -0.413168851625E+03   -0.38480E-02   -0.10695E-01  4239   0.859E-02    0.644E-01
RMM:   3    -0.413170575235E+03   -0.17236E-02   -0.20905E-02  5137   0.810E-02    0.318E-01
RMM:   4    -0.413189629251E+03   -0.19054E-01   -0.38942E-02  5096   0.169E-01    0.646E-01
RMM:   5    -0.413165097632E+03    0.24532E-01   -0.94058E-03  4697   0.105E-01    0.599E-02
RMM:   6    -0.413165124395E+03   -0.26763E-04   -0.18683E-03  5464   0.434E-02    0.324E-02
RMM:   7    -0.413165135698E+03   -0.11303E-04   -0.35817E-04  5974   0.171E-02    0.195E-02
RMM:   8    -0.413165128153E+03    0.75449E-05   -0.62026E-05  5140   0.904E-03    0.804E-03
RMM:   9    -0.413165124729E+03    0.34239E-05   -0.75390E-06  3349   0.353E-03    0.413E-03
RMM:  10    -0.413165124586E+03    0.14341E-06   -0.17917E-06  2557   0.216E-03
    7 T=    61. E= -.41286666E+03 F= -.41316512E+03 E0= -.41314268E+03  EK= 0.29847E+00 SP= 0.00E+00 SK= 0.00E+00
       N       E                     dE             d eps       ncg     rms          rms(c)
RMM:   1    -0.413165292572E+03   -0.16784E-03   -0.87695E+00  4269   0.632E-01    0.883E-01
RMM:   2    -0.413169986855E+03   -0.46943E-02   -0.10779E-01  4086   0.874E-02    0.649E-01
RMM:   3    -0.413166567613E+03    0.34192E-02   -0.18385E-02  4970   0.535E-02    0.132E-01
RMM:   4    -0.413199436471E+03   -0.32869E-01   -0.36203E-02  5143   0.159E-01    0.759E-01
RMM:   5    -0.413165546512E+03    0.33890E-01   -0.15972E-02  4803   0.126E-01    0.518E-02
RMM:   6    -0.413165749193E+03   -0.20268E-03   -0.27818E-03  5731   0.521E-02    0.346E-02
RMM:   7    -0.413165747155E+03    0.20379E-05   -0.47301E-04  5756   0.199E-02    0.219E-02
RMM:   8    -0.413165742422E+03    0.47326E-05   -0.66067E-05  5190   0.888E-03    0.997E-03
RMM:   9    -0.413165741800E+03    0.62256E-06   -0.12753E-05  3863   0.399E-03    0.709E-03
RMM:  10    -0.413165744489E+03   -0.26892E-05   -0.21052E-06  2584   0.227E-03    0.433E-03
RMM:  11    -0.413165746647E+03   -0.21583E-05   -0.11497E-06  2522   0.170E-03    0.244E-03
RMM:  12    -0.413165750249E+03   -0.36021E-05   -0.18840E-06  2601   0.197E-03    0.107E-03
RMM:  13    -0.413165751644E+03   -0.13950E-05   -0.69079E-07  2422   0.135E-03    0.872E-04
RMM:  14    -0.413165751392E+03    0.25251E-06   -0.25139E-07  1919   0.870E-04
    8 T=    61. E= -.41286698E+03 F= -.41316575E+03 E0= -.41314332E+03  EK= 0.29877E+00 SP= 0.00E+00 SK= 0.00E+00
       N       E                     dE             d eps       ncg     rms          rms(c)
RMM:   1    -0.413165757564E+03   -0.59194E-05   -0.88073E+00  4283   0.637E-01    0.898E-01
RMM:   2    -0.413170076717E+03   -0.43192E-02   -0.10770E-01  4097   0.878E-02    0.652E-01
RMM:   3    -0.413166361975E+03    0.37147E-02   -0.17827E-02  4866   0.496E-02    0.105E-01
RMM:   4    -0.413191989700E+03   -0.25628E-01   -0.26983E-02  5133   0.137E-01    0.671E-01
RMM:   5    -0.413165749326E+03    0.26240E-01   -0.12604E-02  4808   0.111E-01    0.480E-02
RMM:   6    -0.413165926808E+03   -0.17748E-03   -0.22568E-03  5754   0.461E-02    0.329E-02
RMM:   7    -0.413165920372E+03    0.64357E-05   -0.40242E-04  5637   0.192E-02    0.210E-02
RMM:   8    -0.413165909593E+03    0.10779E-04   -0.58803E-05  5005   0.858E-03    0.100E-02
RMM:   9    -0.413165907710E+03    0.18825E-05   -0.11634E-05  3757   0.385E-03    0.750E-03
RMM:  10    -0.413165908049E+03   -0.33862E-06   -0.19509E-06  2556   0.229E-03
    9 T=    61. E= -.41286693E+03 F= -.41316591E+03 E0= -.41314350E+03  EK= 0.29898E+00 SP= 0.00E+00 SK= 0.00E+00
       N       E                     dE             d eps       ncg     rms          rms(c)
RMM:   1    -0.413165910152E+03   -0.24422E-05   -0.87807E+00  4294   0.642E-01    0.903E-01
RMM:   2    -0.413169875005E+03   -0.39649E-02   -0.10719E-01  4282   0.888E-02    0.646E-01
RMM:   3    -0.413171761164E+03   -0.18862E-02   -0.21162E-02  5137   0.839E-02    0.328E-01
RMM:   4    -0.413189418565E+03   -0.17657E-01   -0.38340E-02  5080   0.167E-01    0.632E-01
RMM:   5    -0.413165935861E+03    0.23483E-01   -0.88776E-03  4690   0.103E-01    0.593E-02
RMM:   6    -0.413165959121E+03   -0.23260E-04   -0.17895E-03  5451   0.422E-02    0.326E-02
RMM:   7    -0.413165966811E+03   -0.76895E-05   -0.34525E-04  5933   0.170E-02    0.194E-02
RMM:   8    -0.413165958592E+03    0.82181E-05   -0.60103E-05  5114   0.902E-03    0.794E-03
RMM:   9    -0.413165954231E+03    0.43618E-05   -0.74634E-06  3308   0.354E-03    0.411E-03
RMM:  10    -0.413165953017E+03    0.12133E-05   -0.17469E-06  2551   0.215E-03    0.260E-03
RMM:  11    -0.413165951117E+03    0.19002E-05   -0.12464E-06  2516   0.177E-03    0.142E-03
RMM:  12    -0.413165949223E+03    0.18939E-05   -0.76864E-07  2475   0.140E-03    0.583E-04
RMM:  13    -0.413165948077E+03    0.11460E-05   -0.38429E-07  2124   0.101E-03    0.326E-04
RMM:  14    -0.413165946979E+03    0.10983E-05   -0.23414E-07  1640   0.802E-04    0.218E-04
RMM:  15    -0.413165945129E+03    0.18505E-05   -0.24488E-07  1565   0.772E-04    0.169E-04
RMM:  16    -0.413165943294E+03    0.18344E-05   -0.19324E-07  1389   0.706E-04    0.150E-04
RMM:  17    -0.413165941571E+03    0.17235E-05   -0.15209E-07  1321   0.665E-04    0.751E-05
RMM:  18    -0.413165940329E+03    0.12421E-05   -0.90650E-08  1058   0.599E-04    0.408E-05
RMM:  19    -0.413165939793E+03    0.53566E-06   -0.44700E-08   847   0.550E-04
   10 T=    61. E= -.41286674E+03 F= -.41316594E+03 E0= -.41314355E+03  EK= 0.29920E+00 SP= 0.00E+00 SK= 0.00E+00
       N       E                     dE             d eps       ncg     rms          rms(c)
RMM:   1    -0.413166166375E+03   -0.22605E-03   -0.87694E+00  4288   0.645E-01    0.883E-01
RMM:   2    -0.413170686761E+03   -0.45204E-02   -0.10781E-01  4188   0.877E-02    0.647E-01
RMM:   3    -0.413167477232E+03    0.32095E-02   -0.18000E-02  4923   0.539E-02    0.129E-01
RMM:   4    -0.413199877584E+03   -0.32400E-01   -0.35458E-02  5134   0.157E-01    0.753E-01
RMM:   5    -0.413166500864E+03    0.33377E-01   -0.15783E-02  4790   0.125E-01    0.516E-02
RMM:   6    -0.413166716859E+03   -0.21600E-03   -0.28130E-03  5723   0.517E-02    0.350E-02
RMM:   7    -0.413166715649E+03    0.12097E-05   -0.47259E-04  5654   0.200E-02    0.221E-02
RMM:   8    -0.413166709006E+03    0.66437E-05   -0.66771E-05  5173   0.901E-03    0.102E-02
RMM:   9    -0.413166707120E+03    0.18858E-05   -0.13192E-05  3916   0.407E-03    0.730E-03
RMM:  10    -0.413166708458E+03   -0.13379E-05   -0.20662E-06  2576   0.228E-03    0.447E-03
RMM:  11    -0.413166709631E+03   -0.11727E-05   -0.10880E-06  2502   0.168E-03    0.257E-03
RMM:  12    -0.413166711612E+03   -0.19810E-05   -0.16950E-06  2557   0.196E-03    0.110E-03
RMM:  13    -0.413166712354E+03   -0.74237E-06   -0.65224E-07  2395   0.136E-03
   11 T=    61. E= -.41286697E+03 F= -.41316671E+03 E0= -.41314435E+03  EK= 0.29974E+00 SP= 0.00E+00 SK= 0.00E+00
       N       E                     dE             d eps       ncg     rms          rms(c)
RMM:   1    -0.413166305791E+03    0.40582E-03   -0.88423E+00  4290   0.650E-01    0.894E-01
RMM:   2    -0.413170646900E+03   -0.43411E-02   -0.10862E-01  4201   0.883E-02    0.654E-01
RMM:   3    -0.413167177772E+03    0.34691E-02   -0.18097E-02  4843   0.504E-02    0.108E-01
RMM:   4    -0.413193951174E+03   -0.26773E-01   -0.28350E-02  5127   0.140E-01    0.685E-01
RMM:   5    -0.413166504433E+03    0.27447E-01   -0.13061E-02  4793   0.113E-01    0.485E-02
RMM:   6    -0.413166691698E+03   -0.18727E-03   -0.24385E-03  5791   0.469E-02    0.327E-02
RMM:   7    -0.413166690205E+03    0.14931E-05   -0.39610E-04  5653   0.191E-02    0.210E-02
RMM:   8    -0.413166679297E+03    0.10908E-04   -0.63638E-05  4998   0.879E-03    0.104E-02
RMM:   9    -0.413166676898E+03    0.23994E-05   -0.12565E-05  3907   0.403E-03    0.776E-03
RMM:  10    -0.413166677290E+03   -0.39208E-06   -0.19676E-06  2556   0.231E-03
   12 T=    61. E= -.41286658E+03 F= -.41316668E+03 E0= -.41314435E+03  EK= 0.30010E+00 SP= 0.00E+00 SK= 0.00E+00
       N       E                     dE             d eps       ncg     rms          rms(c)
RMM:   1    -0.413167297673E+03   -0.62078E-03   -0.88354E+00  4302   0.656E-01    0.908E-01
RMM:   2    -0.413170789578E+03   -0.34919E-02   -0.10807E-01  4307   0.863E-02    0.649E-01
RMM:   3    -0.413174282695E+03   -0.34931E-02   -0.22134E-02  5142   0.874E-02    0.360E-01
RMM:   4    -0.413188303872E+03   -0.14021E-01   -0.37700E-02  5070   0.166E-01    0.599E-01
RMM:   5    -0.413167288300E+03    0.21016E-01   -0.75773E-03  4650   0.972E-02    0.589E-02
RMM:   6    -0.413167286362E+03    0.19385E-05   -0.15939E-03  5396   0.397E-02    0.326E-02
RMM:   7    -0.413167291660E+03   -0.52981E-05   -0.31626E-04  5910   0.166E-02    0.190E-02
RMM:   8    -0.413167282629E+03    0.90308E-05   -0.57692E-05  5108   0.885E-03    0.767E-03
RMM:   9    -0.413167277351E+03    0.52778E-05   -0.69150E-06  3242   0.346E-03    0.394E-03
RMM:  10    -0.413167275494E+03    0.18569E-05   -0.15324E-06  2516   0.209E-03    0.248E-03
RMM:  11    -0.413167272371E+03    0.31234E-05   -0.12038E-06  2510   0.174E-03    0.141E-03
RMM:  12    -0.413167269751E+03    0.26201E-05   -0.67501E-07  2458   0.135E-03    0.582E-04
RMM:  13    -0.413167268049E+03    0.17019E-05   -0.35038E-07  2087   0.980E-04    0.331E-04
RMM:  14    -0.413167266491E+03    0.15583E-05   -0.20537E-07  1565   0.774E-04    0.223E-04
RMM:  15    -0.413167263800E+03    0.26909E-05   -0.21543E-07  1478   0.751E-04    0.164E-04
RMM:  16    -0.413167261536E+03    0.22635E-05   -0.15845E-07  1313   0.680E-04    0.145E-04
RMM:  17    -0.413167259155E+03    0.23816E-05   -0.13918E-07  1299   0.662E-04    0.775E-05
RMM:  18    -0.413167257845E+03    0.13099E-05   -0.73384E-08  1000   0.581E-04    0.390E-05
RMM:  19    -0.413167257088E+03    0.75689E-06   -0.39991E-08   831   0.547E-04
   13 T=    61. E= -.41286666E+03 F= -.41316726E+03 E0= -.41314496E+03  EK= 0.30059E+00 SP= 0.00E+00 SK= 0.00E+00
       N       E                     dE             d eps       ncg     rms          rms(c)
RMM:   1    -0.413167466411E+03   -0.20857E-03   -0.87913E+00  4292   0.659E-01    0.886E-01
RMM:   2    -0.413171758536E+03   -0.42921E-02   -0.10806E-01  4215   0.855E-02    0.646E-01
RMM:   3    -0.413168723132E+03    0.30354E-02   -0.17661E-02  4967   0.511E-02    0.133E-01
RMM:   4    -0.413202248444E+03   -0.33525E-01   -0.37031E-02  5128   0.160E-01    0.765E-01
RMM:   5    -0.413167709319E+03    0.34539E-01   -0.16361E-02  4792   0.127E-01    0.522E-02
RMM:   6    -0.413167917336E+03   -0.20802E-03   -0.28432E-03  5742   0.521E-02    0.354E-02
RMM:   7    -0.413167908874E+03    0.84619E-05   -0.47693E-04  5651   0.202E-02    0.223E-02
RMM:   8    -0.413167900854E+03    0.80198E-05   -0.68897E-05  5204   0.913E-03    0.103E-02
RMM:   9    -0.413167897510E+03    0.33443E-05   -0.13557E-05  3958   0.413E-03    0.727E-03
RMM:  10    -0.413167897194E+03    0.31565E-06   -0.21034E-06  2575   0.228E-03
   14 T=    61. E= -.41286686E+03 F= -.41316790E+03 E0= -.41314563E+03  EK= 0.30104E+00 SP= 0.00E+00 SK= 0.00E+00
       N       E                     dE             d eps       ncg     rms          rms(c)
RMM:   1    -0.413167504786E+03    0.39272E-03   -0.88813E+00  4301   0.663E-01    0.892E-01
RMM:   2    -0.413172221860E+03   -0.47171E-02   -0.10924E-01  4309   0.880E-02    0.655E-01
RMM:   3    -0.413175304245E+03   -0.30824E-02   -0.23408E-02  5129   0.910E-02    0.366E-01
RMM:   4    -0.413190710659E+03   -0.15406E-01   -0.40327E-02  5068   0.172E-01    0.623E-01
RMM:   5    -0.413167911168E+03    0.22799E-01   -0.83237E-03  4651   0.101E-01    0.582E-02
RMM:   6    -0.413167926665E+03   -0.15498E-04   -0.16878E-03  5411   0.407E-02    0.311E-02
RMM:   7    -0.413167944479E+03   -0.17814E-04   -0.32599E-04  5927   0.166E-02    0.188E-02
RMM:   8    -0.413167941271E+03    0.32083E-05   -0.59433E-05  5115   0.886E-03    0.763E-03
RMM:   9    -0.413167939240E+03    0.20310E-05   -0.70872E-06  3238   0.351E-03    0.390E-03
RMM:  10    -0.413167940149E+03   -0.90951E-06   -0.15500E-06  2517   0.208E-03
   15 T=    61. E= -.41286659E+03 F= -.41316794E+03 E0= -.41314571E+03  EK= 0.30135E+00 SP= 0.00E+00 SK= 0.00E+00
       N       E                     dE             d eps       ncg     rms          rms(c)
RMM:   1    -0.413169546510E+03   -0.16073E-02   -0.88885E+00  4305   0.678E-01    0.910E-01
RMM:   2    -0.413172940701E+03   -0.33942E-02   -0.10854E-01  4238   0.894E-02    0.651E-01
RMM:   3    -0.413169857684E+03    0.30830E-02   -0.17440E-02  4962   0.535E-02    0.139E-01
RMM:   4    -0.413204520179E+03   -0.34662E-01   -0.38307E-02  5124   0.163E-01    0.778E-01
RMM:   5    -0.413168818577E+03    0.35702E-01   -0.16884E-02  4794   0.129E-01    0.533E-02
RMM:   6    -0.413169025149E+03   -0.20657E-03   -0.29868E-03  5738   0.536E-02    0.365E-02
RMM:   7    -0.413169012253E+03    0.12897E-04   -0.49822E-04  5702   0.208E-02    0.232E-02
RMM:   8    -0.413169000829E+03    0.11423E-04   -0.73518E-05  5211   0.949E-03    0.109E-02
RMM:   9    -0.413168994743E+03    0.60863E-05   -0.14002E-05  3995   0.422E-03    0.763E-03
RMM:  10    -0.413168990610E+03    0.41334E-05   -0.22701E-06  2593   0.237E-03    0.463E-03
RMM:  11    -0.413168987939E+03    0.26703E-05   -0.11271E-06  2504   0.173E-03    0.272E-03
RMM:  12    -0.413168982499E+03    0.54401E-05   -0.19538E-06  2593   0.208E-03    0.118E-03
RMM:  13    -0.413168979103E+03    0.33963E-05   -0.73138E-07  2433   0.143E-03    0.995E-04
RMM:  14    -0.413168979364E+03   -0.26132E-06   -0.27167E-07  2008   0.918E-04
   16 T=    61. E= -.41286692E+03 F= -.41316898E+03 E0= -.41314678E+03  EK= 0.30206E+00 SP= 0.00E+00 SK= 0.00E+00
       N       E                     dE             d eps       ncg     rms          rms(c)
RMM:   1    -0.413169770470E+03   -0.79137E-03   -0.88379E+00  4295   0.688E-01    0.892E-01
RMM:   2    -0.413173498934E+03   -0.37285E-02   -0.10815E-01  4246   0.920E-02    0.646E-01
RMM:   3    -0.413170045623E+03    0.34533E-02   -0.17216E-02  4870   0.517E-02    0.115E-01
RMM:   4    -0.413199279100E+03   -0.29233E-01   -0.31247E-02  5124   0.147E-01    0.715E-01
RMM:   5    -0.413169313884E+03    0.29965E-01   -0.14357E-02  4797   0.118E-01    0.499E-02
RMM:   6    -0.413169502661E+03   -0.18878E-03   -0.25998E-03  5782   0.487E-02    0.340E-02
RMM:   7    -0.413169493430E+03    0.92314E-05   -0.42286E-04  5638   0.197E-02    0.216E-02
RMM:   8    -0.413169480694E+03    0.12736E-04   -0.67459E-05  5053   0.908E-03    0.106E-02
RMM:   9    -0.413169475623E+03    0.50707E-05   -0.13133E-05  3944   0.414E-03    0.784E-03
RMM:  10    -0.413169472911E+03    0.27129E-05   -0.20639E-06  2575   0.232E-03    0.474E-03
RMM:  11    -0.413169470849E+03    0.20611E-05   -0.12528E-06  2509   0.182E-03    0.263E-03
RMM:  12    -0.413169467348E+03    0.35019E-05   -0.18012E-06  2571   0.204E-03    0.112E-03
RMM:  13    -0.413169465449E+03    0.18988E-05   -0.57776E-07  2385   0.134E-03    0.812E-04
RMM:  14    -0.413169465518E+03   -0.69373E-07   -0.25020E-07  1956   0.879E-04
   17 T=    62. E= -.41286682E+03 F= -.41316947E+03 E0= -.41314731E+03  EK= 0.30265E+00 SP= 0.00E+00 SK= 0.00E+00
       N       E                     dE             d eps       ncg     rms          rms(c)
RMM:   1    -0.413169410702E+03    0.54747E-04   -0.89244E+00  4295   0.675E-01    0.891E-01
RMM:   2    -0.413174090393E+03   -0.46797E-02   -0.11021E-01  4246   0.908E-02    0.656E-01
RMM:   3    -0.413170574104E+03    0.35163E-02   -0.18347E-02  4872   0.533E-02    0.117E-01
RMM:   4    -0.413200193777E+03   -0.29620E-01   -0.31806E-02  5118   0.148E-01    0.720E-01
RMM:   5    -0.413169776912E+03    0.30417E-01   -0.14578E-02  4792   0.119E-01    0.495E-02
RMM:   6    -0.413169968950E+03   -0.19204E-03   -0.25820E-03  5762   0.493E-02    0.333E-02
RMM:   7    -0.413169966774E+03    0.21763E-05   -0.42298E-04  5646   0.195E-02    0.212E-02
RMM:   8    -0.413169957404E+03    0.93701E-05   -0.66432E-05  5084   0.900E-03    0.103E-02
RMM:   9    -0.413169954405E+03    0.29991E-05   -0.13119E-05  3936   0.413E-03    0.754E-03
RMM:  10    -0.413169954491E+03   -0.85791E-07   -0.19894E-06  2569   0.227E-03
   18 T=    62. E= -.41286664E+03 F= -.41316995E+03 E0= -.41314784E+03  EK= 0.30332E+00 SP= 0.00E+00 SK= 0.00E+00
       N       E                     dE             d eps       ncg     rms          rms(c)
RMM:   1    -0.413171207305E+03   -0.12529E-02   -0.89469E+00  4301   0.696E-01    0.910E-01
RMM:   2    -0.413174826703E+03   -0.36194E-02   -0.10990E-01  4329   0.900E-02    0.654E-01
RMM:   3    -0.413177806102E+03   -0.29794E-02   -0.22016E-02  5135   0.873E-02    0.352E-01
RMM:   4    -0.413193807177E+03   -0.16001E-01   -0.39213E-02  5066   0.169E-01    0.621E-01
RMM:   5    -0.413171075018E+03    0.22732E-01   -0.83186E-03  4662   0.101E-01    0.586E-02
RMM:   6    -0.413171095324E+03   -0.20306E-04   -0.17270E-03  5425   0.409E-02    0.324E-02
RMM:   7    -0.413171099337E+03   -0.40121E-05   -0.33115E-04  5902   0.169E-02    0.194E-02
RMM:   8    -0.413171089974E+03    0.93626E-05   -0.59765E-05  5108   0.899E-03    0.785E-03
RMM:   9    -0.413171083628E+03    0.63459E-05   -0.72933E-06  3278   0.356E-03    0.402E-03
RMM:  10    -0.413171081204E+03    0.24243E-05   -0.16188E-06  2525   0.212E-03    0.254E-03
RMM:  11    -0.413171077403E+03    0.38007E-05   -0.11499E-06  2499   0.173E-03    0.140E-03
RMM:  12    -0.413171073929E+03    0.34737E-05   -0.67084E-07  2454   0.135E-03    0.550E-04
RMM:  13    -0.413171071779E+03    0.21502E-05   -0.33874E-07  2074   0.980E-04    0.320E-04
RMM:  14    -0.413171069878E+03    0.19010E-05   -0.19312E-07  1568   0.774E-04    0.218E-04
RMM:  15    -0.413171066349E+03    0.35291E-05   -0.19188E-07  1495   0.749E-04    0.171E-04
RMM:  16    -0.413171063613E+03    0.27360E-05   -0.12988E-07  1294   0.668E-04    0.144E-04
RMM:  17    -0.413171060592E+03    0.30206E-05   -0.11793E-07  1282   0.654E-04    0.728E-05
RMM:  18    -0.413171058850E+03    0.17427E-05   -0.64136E-08   979   0.581E-04    0.400E-05
RMM:  19    -0.413171057930E+03    0.91989E-06   -0.36912E-08   846   0.549E-04
   19 T=    62. E= -.41286683E+03 F= -.41317106E+03 E0= -.41314898E+03  EK= 0.30423E+00 SP= 0.00E+00 SK= 0.00E+00
       N       E                     dE             d eps       ncg     rms          rms(c)
RMM:   1    -0.413171153429E+03   -0.94580E-04   -0.89039E+00  4297   0.690E-01    0.899E-01
RMM:   2    -0.413175028365E+03   -0.38749E-02   -0.10954E-01  4241   0.874E-02    0.648E-01
RMM:   3    -0.413172361603E+03    0.26668E-02   -0.17223E-02  4984   0.510E-02    0.140E-01
RMM:   4    -0.413207459347E+03   -0.35098E-01   -0.39075E-02  5122   0.164E-01    0.782E-01
RMM:   5    -0.413171295882E+03    0.36163E-01   -0.17173E-02  4788   0.130E-01    0.534E-02
RMM:   6    -0.413171501038E+03   -0.20516E-03   -0.29931E-03  5740   0.534E-02    0.364E-02
RMM:   7    -0.413171488780E+03    0.12258E-04   -0.49676E-04  5653   0.207E-02    0.230E-02
RMM:   8    -0.413171476405E+03    0.12375E-04   -0.74923E-05  5219   0.961E-03    0.108E-02
RMM:   9    -0.413171470198E+03    0.62069E-05   -0.14533E-05  4059   0.433E-03    0.753E-03
RMM:  10    -0.413171466619E+03    0.35795E-05   -0.22195E-06  2579   0.235E-03    0.463E-03
RMM:  11    -0.413171464328E+03    0.22906E-05   -0.10979E-06  2502   0.170E-03    0.271E-03
RMM:  12    -0.413171459838E+03    0.44901E-05   -0.17194E-06  2552   0.203E-03    0.116E-03
RMM:  13    -0.413171457128E+03    0.27097E-05   -0.69168E-07  2407   0.141E-03    0.970E-04
RMM:  14    -0.413171457290E+03   -0.16208E-06   -0.27511E-07  2009   0.922E-04
   20 T=    62. E= -.41286659E+03 F= -.41317146E+03 E0= -.41314942E+03  EK= 0.30487E+00 SP= 0.00E+00 SK= 0.00E+00
       N       E                     dE             d eps       ncg     rms          rms(c)
RMM:   1    -0.413171974446E+03   -0.51732E-03   -0.89732E+00  4291   0.690E-01    0.891E-01
RMM:   2    -0.413176671979E+03   -0.46975E-02   -0.11105E-01  4249   0.890E-02    0.656E-01
RMM:   3    -0.413173111679E+03    0.35603E-02   -0.18100E-02  4885   0.498E-02    0.109E-01
RMM:   4    -0.413200684783E+03   -0.27573E-01   -0.29354E-02  5123   0.143E-01    0.695E-01
RMM:   5    -0.413172431579E+03    0.28253E-01   -0.13668E-02  4791   0.115E-01    0.484E-02
RMM:   6    -0.413172599333E+03   -0.16775E-03   -0.23818E-03  5811   0.469E-02    0.316E-02
RMM:   7    -0.413172601360E+03   -0.20273E-05   -0.36894E-04  5626   0.187E-02    0.198E-02
RMM:   8    -0.413172592356E+03    0.90045E-05   -0.67654E-05  5026   0.889E-03    0.104E-02
RMM:   9    -0.413172588409E+03    0.39463E-05   -0.12943E-05  3960   0.414E-03    0.762E-03
RMM:  10    -0.413172587643E+03    0.76663E-06   -0.19015E-06  2552   0.225E-03
   21 T=    62. E= -.41286682E+03 F= -.41317259E+03 E0= -.41315060E+03  EK= 0.30577E+00 SP= 0.00E+00 SK= 0.00E+00
       N       E                     dE             d eps       ncg     rms          rms(c)
RMM:   1    -0.413173552246E+03   -0.96384E-03   -0.90172E+00  4302   0.701E-01    0.909E-01
RMM:   2    -0.413177805172E+03   -0.42529E-02   -0.11102E-01  4327   0.903E-02    0.658E-01
RMM:   3    -0.413179434596E+03   -0.16294E-02   -0.21347E-02  5118   0.835E-02    0.324E-01
RMM:   4    -0.413200016552E+03   -0.20582E-01   -0.41659E-02  5082   0.174E-01    0.667E-01
RMM:   5    -0.413173708837E+03    0.26308E-01   -0.10082E-02  4678   0.109E-01    0.583E-02
RMM:   6    -0.413173757371E+03   -0.48533E-04   -0.20328E-03  5496   0.442E-02    0.326E-02
RMM:   7    -0.413173756042E+03    0.13287E-05   -0.36448E-04  5881   0.174E-02    0.200E-02
RMM:   8    -0.413173748637E+03    0.74047E-05   -0.64565E-05  5134   0.915E-03    0.829E-03
RMM:   9    -0.413173742594E+03    0.60433E-05   -0.84016E-06  3392   0.367E-03    0.433E-03
RMM:  10    -0.413173740135E+03    0.24592E-05   -0.18648E-06  2552   0.216E-03    0.279E-03
RMM:  11    -0.413173736720E+03    0.34149E-05   -0.11035E-06  2490   0.171E-03    0.146E-03
RMM:  12    -0.413173732942E+03    0.37779E-05   -0.71665E-07  2456   0.139E-03    0.524E-04
RMM:  13    -0.413173730941E+03    0.20012E-05   -0.35197E-07  2110   0.100E-03    0.316E-04
RMM:  14    -0.413173729305E+03    0.16355E-05   -0.19490E-07  1617   0.779E-04    0.219E-04
RMM:  15    -0.413173726115E+03    0.31905E-05   -0.16233E-07  1430   0.728E-04    0.154E-04
RMM:  16    -0.413173723358E+03    0.27563E-05   -0.11871E-07  1297   0.672E-04    0.160E-04
RMM:  17    -0.413173720909E+03    0.24488E-05   -0.85853E-08  1121   0.624E-04    0.775E-05
RMM:  18    -0.413173718511E+03    0.23987E-05   -0.70179E-08  1079   0.604E-04    0.349E-05
RMM:  19    -0.413173717386E+03    0.11251E-05   -0.35780E-08   863   0.560E-04    0.327E-05
RMM:  20    -0.413173716972E+03    0.41322E-06   -0.16922E-08   734   0.541E-04
   22 T=    62. E= -.41286697E+03 F= -.41317372E+03 E0= -.41315177E+03  EK= 0.30675E+00 SP= 0.00E+00 SK= 0.00E+00
       N       E                     dE             d eps       ncg     rms          rms(c)
RMM:   1    -0.413174224521E+03   -0.50714E-03   -0.89991E+00  4291   0.705E-01    0.909E-01
RMM:   2    -0.413178400556E+03   -0.41760E-02   -0.11060E-01  4269   0.913E-02    0.652E-01
RMM:   3    -0.413175173511E+03    0.32270E-02   -0.17089E-02  4934   0.527E-02    0.134E-01
RMM:   4    -0.413209477534E+03   -0.34304E-01   -0.37515E-02  5123   0.161E-01    0.773E-01
RMM:   5    -0.413174244412E+03    0.35233E-01   -0.16891E-02  4787   0.128E-01    0.527E-02
RMM:   6    -0.413174437514E+03   -0.19310E-03   -0.29665E-03  5756   0.529E-02    0.364E-02
RMM:   7    -0.413174423545E+03    0.13970E-04   -0.47905E-04  5633   0.208E-02    0.228E-02
RMM:   8    -0.413174409312E+03    0.14232E-04   -0.76808E-05  5176   0.973E-03    0.111E-02
RMM:   9    -0.413174402198E+03    0.71145E-05   -0.14836E-05  4091   0.440E-03    0.783E-03
RMM:  10    -0.413174397491E+03    0.47072E-05   -0.22960E-06  2597   0.239E-03    0.479E-03
RMM:  11    -0.413174394371E+03    0.31194E-05   -0.11385E-06  2502   0.173E-03    0.284E-03
RMM:  12    -0.413174388203E+03    0.61686E-05   -0.18999E-06  2573   0.212E-03    0.123E-03
RMM:  13    -0.413174384765E+03    0.34375E-05   -0.70498E-07  2413   0.144E-03    0.975E-04
RMM:  14    -0.413174384904E+03   -0.13886E-06   -0.28164E-07  2034   0.932E-04
   23 T=    63. E= -.41286678E+03 F= -.41317438E+03 E0= -.41315249E+03  EK= 0.30761E+00 SP= 0.00E+00 SK= 0.00E+00
       N       E                     dE             d eps       ncg     rms          rms(c)
RMM:   1    -0.413175329323E+03   -0.94456E-03   -0.90313E+00  4295   0.710E-01    0.893E-01
RMM:   2    -0.413180387966E+03   -0.50586E-02   -0.11193E-01  4270   0.917E-02    0.656E-01
RMM:   3    -0.413176310055E+03    0.40779E-02   -0.17652E-02  4806   0.506E-02    0.991E-02
RMM:   4    -0.413200069388E+03   -0.23759E-01   -0.24727E-02  5121   0.131E-01    0.646E-01
RMM:   5    -0.413175796529E+03    0.24273E-01   -0.11849E-02  4804   0.106E-01    0.468E-02
RMM:   6    -0.413175924244E+03   -0.12772E-03   -0.20796E-03  5819   0.431E-02    0.296E-02
RMM:   7    -0.413175920853E+03    0.33913E-05   -0.26962E-04  5644   0.165E-02    0.161E-02
RMM:   8    -0.413175915833E+03    0.50195E-05   -0.56240E-05  4987   0.783E-03    0.102E-02
RMM:   9    -0.413175911013E+03    0.48203E-05   -0.11267E-05  3885   0.392E-03    0.750E-03
RMM:  10    -0.413175909417E+03    0.15962E-05   -0.18366E-06  2555   0.225E-03    0.448E-03
RMM:  11    -0.413175907848E+03    0.15687E-05   -0.14159E-06  2519   0.191E-03    0.238E-03
RMM:  12    -0.413175905418E+03    0.24297E-05   -0.14843E-06  2520   0.189E-03    0.102E-03
RMM:  13    -0.413175904403E+03    0.10155E-05   -0.47808E-07  2304   0.123E-03    0.649E-04
RMM:  14    -0.413175904060E+03    0.34280E-06   -0.21817E-07  1824   0.830E-04
   24 T=    63. E= -.41286707E+03 F= -.41317590E+03 E0= -.41315406E+03  EK= 0.30883E+00 SP= 0.00E+00 SK= 0.00E+00
       N       E                     dE             d eps       ncg     rms          rms(c)
RMM:   1    -0.413176581068E+03   -0.67667E-03   -0.91111E+00  4293   0.717E-01    0.907E-01
RMM:   2    -0.413181169908E+03   -0.45888E-02   -0.11271E-01  4269   0.929E-02    0.662E-01
RMM:   3    -0.413177390317E+03    0.37796E-02   -0.17709E-02  4840   0.532E-02    0.110E-01
RMM:   4    -0.413205639453E+03   -0.28249E-01   -0.29761E-02  5118   0.144E-01    0.702E-01
RMM:   5    -0.413176744111E+03    0.28895E-01   -0.13963E-02  4797   0.116E-01    0.493E-02
RMM:   6    -0.413176905201E+03   -0.16109E-03   -0.24929E-03  5802   0.478E-02    0.336E-02
RMM:   7    -0.413176899473E+03    0.57287E-05   -0.40293E-04  5620   0.193E-02    0.209E-02
RMM:   8    -0.413176887545E+03    0.11928E-04   -0.67737E-05  5069   0.910E-03    0.106E-02
RMM:   9    -0.413176882054E+03    0.54908E-05   -0.12929E-05  3947   0.415E-03    0.767E-03
RMM:  10    -0.413176879032E+03    0.30226E-05   -0.20069E-06  2566   0.229E-03    0.462E-03
RMM:  11    -0.413176876772E+03    0.22594E-05   -0.12226E-06  2509   0.179E-03    0.256E-03
RMM:  12    -0.413176872928E+03    0.38449E-05   -0.16637E-06  2542   0.199E-03    0.111E-03
RMM:  13    -0.413176870882E+03    0.20458E-05   -0.55184E-07  2365   0.131E-03    0.767E-04
RMM:  14    -0.413176870730E+03    0.15220E-06   -0.24366E-07  1929   0.865E-04
   25 T=    63. E= -.41286679E+03 F= -.41317687E+03 E0= -.41315507E+03  EK= 0.31008E+00 SP= 0.00E+00 SK= 0.00E+00
       N       E                     dE             d eps       ncg     rms          rms(c)
RMM:   1    -0.413179652628E+03   -0.27817E-02   -0.91392E+00  4294   0.728E-01    0.918E-01
RMM:   2    -0.413181957190E+03   -0.23046E-02   -0.11309E-01  4272   0.941E-02    0.657E-01
RMM:   3    -0.413178541361E+03    0.34158E-02   -0.16825E-02  4745   0.510E-02    0.102E-01
RMM:   4    -0.413201338410E+03   -0.22797E-01   -0.23474E-02  5131   0.128E-01    0.632E-01
RMM:   5    -0.413178114711E+03    0.23224E-01   -0.11463E-02  4802   0.104E-01    0.476E-02
RMM:   6    -0.413178225685E+03   -0.11097E-03   -0.20228E-03  5818   0.427E-02    0.306E-02
RMM:   7    -0.413178215410E+03    0.10275E-04   -0.27088E-04  5615   0.168E-02    0.165E-02
RMM:   8    -0.413178206929E+03    0.84810E-05   -0.54863E-05  4979   0.788E-03    0.104E-02
RMM:   9    -0.413178200149E+03    0.67799E-05   -0.11050E-05  3852   0.389E-03    0.769E-03
RMM:  10    -0.413178194927E+03    0.52218E-05   -0.18941E-06  2554   0.234E-03    0.451E-03
RMM:  11    -0.413178189908E+03    0.50195E-05   -0.14330E-06  2524   0.192E-03    0.243E-03
RMM:  12    -0.413178182507E+03    0.74010E-05   -0.14361E-06  2517   0.191E-03    0.993E-04
RMM:  13    -0.413178179489E+03    0.30177E-05   -0.49630E-07  2314   0.125E-03    0.634E-04
RMM:  14    -0.413178178935E+03    0.55390E-06   -0.23263E-07  1833   0.846E-04
   26 T=    63. E= -.41286666E+03 F= -.41317818E+03 E0= -.41315643E+03  EK= 0.31152E+00 SP= 0.00E+00 SK= 0.00E+00
       N       E                     dE             d eps       ncg     rms          rms(c)
RMM:   1    -0.413179548604E+03   -0.13691E-02   -0.91254E+00  4292   0.735E-01    0.898E-01
RMM:   2    -0.413183960026E+03   -0.44114E-02   -0.11385E-01  4272   0.983E-02    0.657E-01
RMM:   3    -0.413180346285E+03    0.36137E-02   -0.17276E-02  4765   0.514E-02    0.943E-02
RMM:   4    -0.413201706418E+03   -0.21360E-01   -0.21991E-02  5132   0.124E-01    0.612E-01
RMM:   5    -0.413179936709E+03    0.21770E-01   -0.10740E-02  4805   0.101E-01    0.463E-02
RMM:   6    -0.413180045993E+03   -0.10928E-03   -0.19068E-03  5825   0.414E-02    0.299E-02
RMM:   7    -0.413180043527E+03    0.24661E-05   -0.27582E-04  5628   0.168E-02    0.170E-02
RMM:   8    -0.413180036193E+03    0.73341E-05   -0.54689E-05  4956   0.798E-03    0.101E-02
RMM:   9    -0.413180030989E+03    0.52037E-05   -0.10551E-05  3755   0.384E-03    0.739E-03
RMM:  10    -0.413180028145E+03    0.28445E-05   -0.17617E-06  2535   0.226E-03    0.433E-03
RMM:  11    -0.413180025262E+03    0.28828E-05   -0.14137E-06  2517   0.192E-03    0.223E-03
RMM:  12    -0.413180021459E+03    0.38032E-05   -0.13082E-06  2502   0.180E-03    0.950E-04
RMM:  13    -0.413180019929E+03    0.15296E-05   -0.45858E-07  2278   0.119E-03    0.602E-04
RMM:  14    -0.413180019361E+03    0.56859E-06   -0.21651E-07  1793   0.822E-04
   27 T=    64. E= -.41286695E+03 F= -.41318002E+03 E0= -.41315832E+03  EK= 0.31307E+00 SP= 0.00E+00 SK= 0.00E+00
       N       E                     dE             d eps       ncg     rms          rms(c)
RMM:   1    -0.413180789805E+03   -0.76988E-03   -0.92399E+00  4291   0.740E-01    0.909E-01
RMM:   2    -0.413185205345E+03   -0.44155E-02   -0.11515E-01  4269   0.100E-01    0.667E-01
RMM:   3    -0.413181407012E+03    0.37983E-02   -0.17985E-02  4723   0.531E-02    0.914E-02
RMM:   4    -0.413201668597E+03   -0.20262E-01   -0.20765E-02  5133   0.120E-01    0.597E-01
RMM:   5    -0.413181006113E+03    0.20662E-01   -0.10233E-02  4804   0.986E-02    0.458E-02
RMM:   6    -0.413181114838E+03   -0.10873E-03   -0.18364E-03  5833   0.405E-02    0.297E-02
RMM:   7    -0.413181112845E+03    0.19927E-05   -0.27049E-04  5607   0.167E-02    0.169E-02
RMM:   8    -0.413181106085E+03    0.67605E-05   -0.52176E-05  4945   0.786E-03    0.994E-03
RMM:   9    -0.413181101426E+03    0.46585E-05   -0.99745E-06  3682   0.375E-03    0.728E-03
RMM:  10    -0.413181099247E+03    0.21797E-05   -0.17123E-06  2530   0.225E-03    0.424E-03
RMM:  11    -0.413181096969E+03    0.22773E-05   -0.14548E-06  2527   0.193E-03    0.213E-03
RMM:  12    -0.413181094045E+03    0.29248E-05   -0.12265E-06  2494   0.176E-03    0.935E-04
RMM:  13    -0.413181092822E+03    0.12231E-05   -0.44627E-07  2257   0.117E-03    0.597E-04
RMM:  14    -0.413181092243E+03    0.57852E-06   -0.21121E-07  1769   0.816E-04
   28 T=    64. E= -.41286670E+03 F= -.41318109E+03 E0= -.41315944E+03  EK= 0.31439E+00 SP= 0.00E+00 SK= 0.00E+00
       N       E                     dE             d eps       ncg     rms          rms(c)
RMM:   1    -0.413184183614E+03   -0.30908E-02   -0.92749E+00  4293   0.765E-01    0.926E-01
RMM:   2    -0.413187067163E+03   -0.28835E-02   -0.11501E-01  4271   0.102E-01    0.663E-01
RMM:   3    -0.413183309391E+03    0.37578E-02   -0.16970E-02  4636   0.491E-02    0.874E-02
RMM:   4    -0.413196819040E+03   -0.13510E-01   -0.13704E-02  5143   0.978E-02    0.489E-01
RMM:   5    -0.413183118917E+03    0.13700E-01   -0.69162E-03  4826   0.806E-02    0.444E-02
RMM:   6    -0.413183172957E+03   -0.54040E-04   -0.12737E-03  5826   0.333E-02    0.269E-02
RMM:   7    -0.413183165944E+03    0.70129E-05   -0.16918E-04  5493   0.139E-02    0.135E-02
RMM:   8    -0.413183156125E+03    0.98188E-05   -0.24760E-05  4502   0.544E-03    0.812E-03
RMM:   9    -0.413183153833E+03    0.22918E-05   -0.63641E-06  3189   0.299E-03    0.647E-03
RMM:  10    -0.413183148311E+03    0.55220E-05   -0.13815E-06  2511   0.208E-03    0.356E-03
RMM:  11    -0.413183142360E+03    0.59512E-05   -0.13050E-06  2515   0.183E-03    0.185E-03
RMM:  12    -0.413183136282E+03    0.60775E-05   -0.88807E-07  2456   0.153E-03    0.995E-04
RMM:  13    -0.413183134218E+03    0.20646E-05   -0.34615E-07  2174   0.103E-03    0.520E-04
RMM:  14    -0.413183132813E+03    0.14050E-05   -0.16018E-07  1543   0.745E-04    0.390E-04
RMM:  15    -0.413183128426E+03    0.43871E-05   -0.16880E-07  1881   0.772E-04    0.293E-04
RMM:  16    -0.413183125015E+03    0.34110E-05   -0.83119E-08  1266   0.629E-04    0.280E-04
RMM:  17    -0.413183121977E+03    0.30374E-05   -0.45632E-08   883   0.563E-04    0.173E-04
RMM:  18    -0.413183118605E+03    0.33721E-05   -0.52574E-08  1026   0.596E-04    0.402E-05
RMM:  19    -0.413183116985E+03    0.16201E-05   -0.29555E-08   908   0.569E-04    0.855E-05
RMM:  20    -0.413183116736E+03    0.24888E-06   -0.96069E-09   661   0.525E-04
   29 T=    64. E= -.41286699E+03 F= -.41318312E+03 E0= -.41316152E+03  EK= 0.31612E+00 SP= 0.00E+00 SK= 0.00E+00
       N       E                     dE             d eps       ncg     rms          rms(c)
RMM:   1    -0.413186618690E+03   -0.35017E-02   -0.92650E+00  4289   0.800E-01    0.907E-01
RMM:   2    -0.413189416801E+03   -0.27981E-02   -0.11766E-01  4268   0.112E-01    0.660E-01
RMM:   3    -0.413185215159E+03    0.42016E-02   -0.16955E-02  4578   0.561E-02    0.853E-02
RMM:   4    -0.413199553188E+03   -0.14338E-01   -0.14481E-02  5136   0.101E-01    0.504E-01
RMM:   5    -0.413185003786E+03    0.14549E-01   -0.73258E-03  4822   0.831E-02    0.438E-02
RMM:   6    -0.413185065353E+03   -0.61567E-04   -0.13180E-03  5836   0.340E-02    0.265E-02
RMM:   7    -0.413185066051E+03   -0.69860E-06   -0.19507E-04  5506   0.145E-02    0.147E-02
RMM:   8    -0.413185054792E+03    0.11259E-04   -0.31434E-05  4695   0.619E-03    0.838E-03
RMM:   9    -0.413185053252E+03    0.15400E-05   -0.70325E-06  3313   0.321E-03    0.651E-03
RMM:  10    -0.413185049789E+03    0.34636E-05   -0.14398E-06  2509   0.210E-03    0.361E-03
RMM:  11    -0.413185046582E+03    0.32070E-05   -0.11212E-06  2502   0.172E-03    0.189E-03
RMM:  12    -0.413185042848E+03    0.37339E-05   -0.88142E-07  2459   0.151E-03    0.995E-04
RMM:  13    -0.413185041455E+03    0.13922E-05   -0.33748E-07  2160   0.102E-03    0.478E-04
RMM:  14    -0.413185040475E+03    0.98089E-06   -0.16034E-07  1543   0.739E-04
   30 T=    65. E= -.41286707E+03 F= -.41318504E+03 E0= -.41316349E+03  EK= 0.31797E+00 SP= 0.00E+00 SK= 0.00E+00
       N       E                     dE             d eps       ncg     rms          rms(c)
RMM:   1    -0.413186140891E+03   -0.10994E-02   -0.93797E+00  4293   0.764E-01    0.911E-01
RMM:   2    -0.413191575192E+03   -0.54343E-02   -0.11801E-01  4269   0.112E-01    0.672E-01
RMM:   3    -0.413186917476E+03    0.46577E-02   -0.18271E-02  4548   0.615E-02    0.785E-02
RMM:   4    -0.413200239630E+03   -0.13322E-01   -0.13384E-02  5135   0.973E-02    0.487E-01
RMM:   5    -0.413186687195E+03    0.13552E-01   -0.68138E-03  4821   0.801E-02    0.432E-02
RMM:   6    -0.413186746464E+03   -0.59269E-04   -0.12539E-03  5832   0.332E-02    0.266E-02
RMM:   7    -0.413186753277E+03   -0.68137E-05   -0.22306E-04  5473   0.153E-02    0.164E-02
RMM:   8    -0.413186739123E+03    0.14155E-04   -0.34124E-05  4735   0.668E-03    0.836E-03
RMM:   9    -0.413186737914E+03    0.12082E-05   -0.67653E-06  3198   0.318E-03    0.626E-03
RMM:  10    -0.413186735482E+03    0.24321E-05   -0.15582E-06  2504   0.213E-03    0.344E-03
RMM:  11    -0.413186733299E+03    0.21829E-05   -0.10850E-06  2498   0.170E-03    0.179E-03
RMM:  12    -0.413186730709E+03    0.25900E-05   -0.85204E-07  2454   0.146E-03    0.953E-04
RMM:  13    -0.413186729515E+03    0.11939E-05   -0.32398E-07  2125   0.997E-04    0.446E-04
RMM:  14    -0.413186728497E+03    0.10185E-05   -0.16125E-07  1531   0.739E-04    0.306E-04
RMM:  15    -0.413186726031E+03    0.24658E-05   -0.12925E-07  1487   0.711E-04    0.154E-04
RMM:  16    -0.413186723897E+03    0.21344E-05   -0.78491E-08  1140   0.635E-04    0.153E-04
RMM:  17    -0.413186722194E+03    0.17028E-05   -0.44465E-08   888   0.580E-04    0.100E-04
RMM:  18    -0.413186718958E+03    0.32356E-05   -0.58421E-08  1022   0.603E-04    0.352E-05
RMM:  19    -0.413186718232E+03    0.72672E-06   -0.19559E-08   745   0.547E-04
   31 T=    65. E= -.41286683E+03 F= -.41318672E+03 E0= -.41316522E+03  EK= 0.31989E+00 SP= 0.00E+00 SK= 0.00E+00
       N       E                     dE             d eps       ncg     rms          rms(c)
RMM:   1    -0.413193865606E+03   -0.71466E-02   -0.94769E+00  4291   0.831E-01    0.933E-01
RMM:   2    -0.413193660578E+03    0.20503E-03   -0.12020E-01  4275   0.119E-01    0.670E-01
RMM:   3    -0.413189410326E+03    0.42503E-02   -0.17244E-02  4449   0.634E-02    0.839E-02
RMM:   4    -0.413199014734E+03   -0.96044E-02   -0.97468E-03  5147   0.828E-02    0.414E-01
RMM:   5    -0.413189298071E+03    0.97167E-02   -0.49438E-03  4827   0.682E-02    0.432E-02
RMM:   6    -0.413189346892E+03   -0.48822E-04   -0.10375E-03  5797   0.300E-02    0.284E-02
RMM:   7    -0.413189342024E+03    0.48683E-05   -0.26516E-04  5352   0.166E-02    0.184E-02
RMM:   8    -0.413189324150E+03    0.17874E-04   -0.27512E-05  4620   0.658E-03    0.833E-03
RMM:   9    -0.413189321280E+03    0.28704E-05   -0.48231E-06  2914   0.277E-03    0.582E-03
RMM:  10    -0.413189316363E+03    0.49169E-05   -0.16783E-06  2524   0.210E-03    0.317E-03
RMM:  11    -0.413189311320E+03    0.50427E-05   -0.11165E-06  2483   0.175E-03    0.157E-03
RMM:  12    -0.413189306815E+03    0.45057E-05   -0.62417E-07  2370   0.132E-03    0.784E-04
RMM:  13    -0.413189304463E+03    0.23518E-05   -0.31198E-07  2002   0.947E-04    0.347E-04
RMM:  14    -0.413189302026E+03    0.24372E-05   -0.16762E-07  1531   0.746E-04    0.216E-04
RMM:  15    -0.413189298456E+03    0.35692E-05   -0.10510E-07  1263   0.672E-04    0.118E-04
RMM:  16    -0.413189295275E+03    0.31809E-05   -0.67413E-08  1043   0.629E-04    0.823E-05
RMM:  17    -0.413189293021E+03    0.22545E-05   -0.44067E-08   937   0.599E-04    0.535E-05
RMM:  18    -0.413189289162E+03    0.38585E-05   -0.60873E-08  1170   0.628E-04    0.426E-05
RMM:  19    -0.413189288225E+03    0.93754E-06   -0.23721E-08   802   0.548E-04
   32 T=    66. E= -.41286704E+03 F= -.41318929E+03 E0= -.41316784E+03  EK= 0.32225E+00 SP= 0.00E+00 SK= 0.00E+00
       N       E                     dE             d eps       ncg     rms          rms(c)
RMM:   1    -0.413192179761E+03   -0.28906E-02   -0.94357E+00  4296   0.825E-01    0.920E-01
RMM:   2    -0.413195319204E+03   -0.31394E-02   -0.12126E-01  4276   0.120E-01    0.666E-01
RMM:   3    -0.413191250272E+03    0.40689E-02   -0.16985E-02  4392   0.632E-02    0.769E-02
RMM:   4    -0.413195803522E+03   -0.45533E-02   -0.47991E-03  5160   0.582E-02    0.287E-01
RMM:   5    -0.413191216662E+03    0.45869E-02   -0.23711E-03  4824   0.475E-02    0.417E-02
RMM:   6    -0.413191254429E+03   -0.37766E-04   -0.69901E-04  5673   0.249E-02    0.302E-02
RMM:   7    -0.413191226552E+03    0.27876E-04   -0.25287E-04  5172   0.163E-02    0.178E-02
RMM:   8    -0.413191215462E+03    0.11091E-04   -0.22791E-05  4474   0.580E-03    0.730E-03
RMM:   9    -0.413191213245E+03    0.22172E-05   -0.28883E-06  2658   0.228E-03    0.470E-03
RMM:  10    -0.413191208756E+03    0.44889E-05   -0.11459E-06  2485   0.175E-03    0.257E-03
RMM:  11    -0.413191204480E+03    0.42758E-05   -0.80158E-07  2422   0.141E-03    0.113E-03
RMM:  12    -0.413191200630E+03    0.38502E-05   -0.42960E-07  2200   0.108E-03    0.498E-04
RMM:  13    -0.413191197922E+03    0.27074E-05   -0.23361E-07  1767   0.826E-04    0.266E-04
RMM:  14    -0.413191195051E+03    0.28709E-05   -0.11675E-07  1209   0.676E-04    0.180E-04
RMM:  15    -0.413191191110E+03    0.39418E-05   -0.86707E-08  1121   0.648E-04    0.863E-05
RMM:  16    -0.413191188446E+03    0.26634E-05   -0.56371E-08   990   0.613E-04    0.690E-05
RMM:  17    -0.413191185349E+03    0.30976E-05   -0.56499E-08  1093   0.607E-04    0.508E-05
RMM:  18    -0.413191182984E+03    0.23646E-05   -0.37497E-08   936   0.570E-04    0.313E-05
RMM:  19    -0.413191182375E+03    0.60939E-06   -0.15800E-08   673   0.525E-04
   33 T=    66. E= -.41286672E+03 F= -.41319118E+03 E0= -.41316978E+03  EK= 0.32446E+00 SP= 0.00E+00 SK= 0.00E+00
       N       E                     dE             d eps       ncg     rms          rms(c)
RMM:   1    -0.413194826574E+03   -0.36436E-02   -0.95699E+00  4302   0.829E-01    0.917E-01
RMM:   2    -0.413197850754E+03   -0.30242E-02   -0.12281E-01  4271   0.126E-01    0.677E-01
RMM:   3    -0.413193577735E+03    0.42730E-02   -0.18273E-02  4334   0.693E-02    0.633E-02
RMM:   4    -0.413196377335E+03   -0.27996E-02   -0.30001E-03  5152   0.464E-02    0.226E-01
RMM:   5    -0.413193553416E+03    0.28239E-02   -0.14973E-03  4828   0.378E-02    0.406E-02
RMM:   6    -0.413193586449E+03   -0.33033E-04   -0.56338E-04  5581   0.226E-02    0.294E-02
RMM:   7    -0.413193558562E+03    0.27888E-04   -0.22672E-04  5082   0.156E-02    0.184E-02
RMM:   8    -0.413193550160E+03    0.84015E-05   -0.23791E-05  4304   0.546E-03    0.663E-03
RMM:   9    -0.413193549376E+03    0.78462E-06   -0.25771E-06  2570   0.221E-03
   34 T=    67. E= -.41286671E+03 F= -.41319355E+03 E0= -.41317220E+03  EK= 0.32684E+00 SP= 0.00E+00 SK= 0.00E+00
       N       E                     dE             d eps       ncg     rms          rms(c)
RMM:   1    -0.413204756615E+03   -0.11206E-01   -0.97143E+00  4304   0.922E-01    0.938E-01
RMM:   2    -0.413200181758E+03    0.45749E-02   -0.13424E-01  4270   0.134E-01    0.680E-01
RMM:   3    -0.413196458834E+03    0.37229E-02   -0.16744E-02  4555   0.712E-02    0.103E-01
RMM:   4    -0.413215121437E+03   -0.18663E-01   -0.18942E-02  5143   0.116E-01    0.573E-01
RMM:   5    -0.413196212336E+03    0.18909E-01   -0.94705E-03  4818   0.946E-02    0.469E-02
RMM:   6    -0.413196301336E+03   -0.89000E-04   -0.17403E-03  5836   0.390E-02    0.319E-02
RMM:   7    -0.413196302247E+03   -0.91104E-06   -0.35392E-04  5473   0.186E-02    0.204E-02
RMM:   8    -0.413196280563E+03    0.21683E-04   -0.49091E-05  4983   0.816E-03    0.934E-03
RMM:   9    -0.413196276655E+03    0.39088E-05   -0.91665E-06  3482   0.365E-03    0.666E-03
RMM:  10    -0.413196270395E+03    0.62593E-05   -0.18374E-06  2547   0.230E-03    0.378E-03
RMM:  11    -0.413196264866E+03    0.55298E-05   -0.11755E-06  2504   0.178E-03    0.197E-03
RMM:  12    -0.413196257794E+03    0.70711E-05   -0.10341E-06  2486   0.163E-03    0.951E-04
RMM:  13    -0.413196254853E+03    0.29417E-05   -0.39806E-07  2209   0.110E-03    0.482E-04
RMM:  14    -0.413196253236E+03    0.16171E-05   -0.19564E-07  1680   0.788E-04    0.330E-04
RMM:  15    -0.413196248084E+03    0.51514E-05   -0.14657E-07  1553   0.739E-04    0.180E-04
RMM:  16    -0.413196244666E+03    0.34178E-05   -0.83243E-08  1176   0.642E-04    0.153E-04
RMM:  17    -0.413196240442E+03    0.42248E-05   -0.69711E-08  1130   0.623E-04    0.133E-04
RMM:  18    -0.413196235816E+03    0.46259E-05   -0.66544E-08  1148   0.616E-04    0.451E-05
RMM:  19    -0.413196234664E+03    0.11522E-05   -0.26412E-08   813   0.548E-04    0.270E-05
RMM:  20    -0.413196234089E+03    0.57424E-06   -0.17037E-08   752   0.535E-04
   35 T=    67. E= -.41286688E+03 F= -.41319623E+03 E0= -.41317493E+03  EK= 0.32935E+00 SP= 0.00E+00 SK= 0.00E+00
       N       E                     dE             d eps       ncg     rms          rms(c)
RMM:   1    -0.413200748015E+03   -0.45134E-02   -0.96641E+00  4301   0.876E-01    0.936E-01
RMM:   2    -0.413202158658E+03   -0.14106E-02   -0.12608E-01  4253   0.131E-01    0.674E-01
RMM:   3    -0.413198514704E+03    0.36440E-02   -0.17014E-02  4457   0.695E-02    0.874E-02
RMM:   4    -0.413206243860E+03   -0.77292E-02   -0.79135E-03  5162   0.751E-02    0.373E-01
RMM:   5    -0.413198483126E+03    0.77607E-02   -0.39988E-03  4819   0.618E-02    0.439E-02
RMM:   6    -0.413198501416E+03   -0.18290E-04   -0.93254E-04  5732   0.297E-02    0.316E-02
RMM:   7    -0.413198484619E+03    0.16797E-04   -0.30540E-04  5236   0.177E-02    0.191E-02
RMM:   8    -0.413198470047E+03    0.14572E-04   -0.30329E-05  4789   0.660E-03    0.842E-03
RMM:   9    -0.413198467435E+03    0.26129E-05   -0.46425E-06  2845   0.268E-03    0.509E-03
RMM:  10    -0.413198462210E+03    0.52246E-05   -0.14876E-06  2511   0.204E-03    0.269E-03
RMM:  11    -0.413198457138E+03    0.50724E-05   -0.89725E-07  2461   0.156E-03    0.136E-03
RMM:  12    -0.413198452172E+03    0.49658E-05   -0.52340E-07  2296   0.121E-03    0.651E-04
RMM:  13    -0.413198448989E+03    0.31827E-05   -0.27508E-07  1908   0.897E-04    0.309E-04
RMM:  14    -0.413198445896E+03    0.30927E-05   -0.13978E-07  1372   0.711E-04    0.199E-04
RMM:  15    -0.413198441557E+03    0.43394E-05   -0.83535E-08  1099   0.649E-04    0.110E-04
RMM:  16    -0.413198438158E+03    0.33993E-05   -0.59347E-08  1005   0.620E-04    0.709E-05
RMM:  17    -0.413198435532E+03    0.26258E-05   -0.41924E-08   910   0.595E-04    0.439E-05
RMM:  18    -0.413198431432E+03    0.41000E-05   -0.51177E-08  1108   0.612E-04    0.282E-05
RMM:  19    -0.413198430723E+03    0.70867E-06   -0.16620E-08   662   0.528E-04
   36 T=    68. E= -.41286677E+03 F= -.41319843E+03 E0= -.41317717E+03  EK= 0.33166E+00 SP= 0.00E+00 SK= 0.00E+00
       N       E                     dE             d eps       ncg     rms          rms(c)
RMM:   1    -0.413205697230E+03   -0.72658E-02   -0.97762E+00  4303   0.921E-01    0.924E-01
RMM:   2    -0.413205916025E+03   -0.21880E-03   -0.13082E-01  4249   0.133E-01    0.682E-01
RMM:   3    -0.413201526512E+03    0.43895E-02   -0.17484E-02  4522   0.668E-02    0.846E-02
RMM:   4    -0.413214360696E+03   -0.12834E-01   -0.12965E-02  5153   0.958E-02    0.479E-01
RMM:   5    -0.413201398339E+03    0.12962E-01   -0.65750E-03  4820   0.792E-02    0.449E-02
RMM:   6    -0.413201415509E+03   -0.17170E-04   -0.13145E-03  5787   0.342E-02    0.304E-02
RMM:   7    -0.413201422847E+03   -0.73379E-05   -0.33196E-04  5393   0.179E-02    0.202E-02
RMM:   8    -0.413201405232E+03    0.17615E-04   -0.39174E-05  4873   0.746E-03    0.910E-03
RMM:   9    -0.413201404061E+03    0.11710E-05   -0.71198E-06  3168   0.328E-03    0.591E-03
RMM:  10    -0.413201401660E+03    0.24014E-05   -0.16922E-06  2524   0.224E-03    0.317E-03
RMM:  11    -0.413201398990E+03    0.26695E-05   -0.12105E-06  2503   0.179E-03    0.162E-03
RMM:  12    -0.413201395867E+03    0.31235E-05   -0.80184E-07  2444   0.145E-03    0.841E-04
RMM:  13    -0.413201394216E+03    0.16501E-05   -0.35337E-07  2088   0.101E-03    0.410E-04
RMM:  14    -0.413201392766E+03    0.14501E-05   -0.18117E-07  1580   0.762E-04    0.261E-04
RMM:  15    -0.413201389963E+03    0.28035E-05   -0.11374E-07  1284   0.686E-04    0.118E-04
RMM:  16    -0.413201387659E+03    0.23036E-05   -0.71883E-08  1049   0.635E-04    0.852E-05
RMM:  17    -0.413201385803E+03    0.18564E-05   -0.45954E-08   923   0.604E-04    0.558E-05
RMM:  18    -0.413201382537E+03    0.32659E-05   -0.55445E-08  1117   0.625E-04    0.291E-05
RMM:  19    -0.413201381571E+03    0.96592E-06   -0.23523E-08   802   0.558E-04
   37 T=    68. E= -.41286712E+03 F= -.41320138E+03 E0= -.41318016E+03  EK= 0.33426E+00 SP= 0.00E+00 SK= 0.00E+00
       N       E                     dE             d eps       ncg     rms          rms(c)
RMM:   1    -0.413211293605E+03   -0.99111E-02   -0.99144E+00  4306   0.968E-01    0.942E-01
RMM:   2    -0.413208662453E+03    0.26312E-02   -0.13835E-01  4247   0.131E-01    0.689E-01
RMM:   3    -0.413204440620E+03    0.42218E-02   -0.16905E-02  4774   0.628E-02    0.125E-01
RMM:   4    -0.413237356384E+03   -0.32916E-01   -0.34100E-02  5129   0.154E-01    0.756E-01
RMM:   5    -0.413203922362E+03    0.33434E-01   -0.16715E-02  4799   0.126E-01    0.521E-02
RMM:   6    -0.413203981339E+03   -0.58978E-04   -0.27725E-03  5837   0.498E-02    0.333E-02
RMM:   7    -0.413203990817E+03   -0.94773E-05   -0.35497E-04  5625   0.181E-02    0.174E-02
RMM:   8    -0.413203982750E+03    0.80662E-05   -0.49712E-05  4861   0.744E-03    0.965E-03
RMM:   9    -0.413203982890E+03   -0.13917E-06   -0.19273E-05  4460   0.462E-03    0.800E-03
RMM:  10    -0.413203977313E+03    0.55767E-05   -0.30408E-06  2716   0.273E-03    0.441E-03
RMM:  11    -0.413203974694E+03    0.26187E-05   -0.15120E-06  2515   0.196E-03    0.274E-03
RMM:  12    -0.413203968081E+03    0.66134E-05   -0.20615E-06  2573   0.228E-03    0.134E-03
RMM:  13    -0.413203965207E+03    0.28740E-05   -0.66881E-07  2407   0.147E-03    0.838E-04
RMM:  14    -0.413203964894E+03    0.31280E-06   -0.26534E-07  2048   0.926E-04
   38 T=    69. E= -.41286712E+03 F= -.41320396E+03 E0= -.41318279E+03  EK= 0.33684E+00 SP= 0.00E+00 SK= 0.00E+00
       N       E                     dE             d eps       ncg     rms          rms(c)
RMM:   1    -0.413209380881E+03   -0.54157E-02   -0.99013E+00  4304   0.968E-01    0.953E-01
RMM:   2    -0.413211096313E+03   -0.17154E-02   -0.13170E-01  4247   0.123E-01    0.683E-01
RMM:   3    -0.413207142056E+03    0.39543E-02   -0.17013E-02  4881   0.592E-02    0.137E-01
RMM:   4    -0.413243973286E+03   -0.36831E-01   -0.38932E-02  5134   0.165E-01    0.799E-01
RMM:   5    -0.413206459220E+03    0.37514E-01   -0.18606E-02  4797   0.133E-01    0.546E-02
RMM:   6    -0.413206542858E+03   -0.83638E-04   -0.31544E-03  5828   0.527E-02    0.351E-02
RMM:   7    -0.413206551108E+03   -0.82497E-05   -0.40598E-04  5675   0.192E-02    0.190E-02
RMM:   8    -0.413206539644E+03    0.11464E-04   -0.64338E-05  5027   0.836E-03    0.108E-02
RMM:   9    -0.413206536955E+03    0.26890E-05   -0.21900E-05  4581   0.503E-03    0.810E-03
RMM:  10    -0.413206529019E+03    0.79360E-05   -0.29783E-06  2673   0.276E-03    0.457E-03
RMM:  11    -0.413206524702E+03    0.43167E-05   -0.13939E-06  2500   0.193E-03    0.284E-03
RMM:  12    -0.413206513808E+03    0.10895E-04   -0.19765E-06  2550   0.226E-03    0.139E-03
RMM:  13    -0.413206508707E+03    0.51011E-05   -0.73100E-07  2425   0.152E-03    0.911E-04
RMM:  14    -0.413206508197E+03    0.51008E-06   -0.28740E-07  2111   0.967E-04
   39 T=    69. E= -.41286700E+03 F= -.41320651E+03 E0= -.41318537E+03  EK= 0.33951E+00 SP= 0.00E+00 SK= 0.00E+00
       N       E                     dE             d eps       ncg     rms          rms(c)
RMM:   1    -0.413220640883E+03   -0.14132E-01   -0.10034E+01  4308   0.106E+00    0.933E-01
RMM:   2    -0.413214696831E+03    0.59441E-02   -0.14689E-01  4247   0.129E-01    0.688E-01
RMM:   3    -0.413210609990E+03    0.40868E-02   -0.16351E-02  4952   0.626E-02    0.164E-01
RMM:   4    -0.413257126550E+03   -0.46517E-01   -0.50827E-02  5129   0.188E-01    0.895E-01
RMM:   5    -0.413209503922E+03    0.47623E-01   -0.23343E-02  4790   0.150E-01    0.579E-02
RMM:   6    -0.413209635719E+03   -0.13180E-03   -0.38866E-03  5828   0.584E-02    0.361E-02
RMM:   7    -0.413209644546E+03   -0.88277E-05   -0.46291E-04  5699   0.200E-02    0.194E-02
RMM:   8    -0.413209643150E+03    0.13959E-05   -0.78293E-05  5114   0.877E-03    0.116E-02
RMM:   9    -0.413209635837E+03    0.73134E-05   -0.24376E-05  4608   0.523E-03    0.786E-03
RMM:  10    -0.413209631743E+03    0.40936E-05   -0.43588E-06  2862   0.300E-03    0.466E-03
RMM:  11    -0.413209628456E+03    0.32874E-05   -0.17038E-06  2514   0.214E-03    0.286E-03
RMM:  12    -0.413209620663E+03    0.77931E-05   -0.19359E-06  2540   0.225E-03    0.111E-03
RMM:  13    -0.413209616460E+03    0.42027E-05   -0.75697E-07  2441   0.152E-03    0.906E-04
RMM:  14    -0.413209616260E+03    0.20048E-06   -0.30709E-07  2141   0.984E-04
   40 T=    70. E= -.41286719E+03 F= -.41320962E+03 E0= -.41318851E+03  EK= 0.34242E+00 SP= 0.00E+00 SK= 0.00E+00
       N       E                     dE             d eps       ncg     rms          rms(c)
RMM:   1    -0.413223101015E+03   -0.13485E-01   -0.10183E+01  4309   0.111E+00    0.948E-01
RMM:   2    -0.413216963796E+03    0.61372E-02   -0.14075E-01  4250   0.136E-01    0.697E-01
RMM:   3    -0.413213307819E+03    0.36560E-02   -0.18177E-02  4990   0.673E-02    0.183E-01
RMM:   4    -0.413261438398E+03   -0.48131E-01   -0.55133E-02  5129   0.196E-01    0.914E-01
RMM:   5    -0.413211675469E+03    0.49763E-01   -0.23816E-02  4786   0.152E-01    0.593E-02
RMM:   6    -0.413211820516E+03   -0.14505E-03   -0.40494E-03  5815   0.597E-02    0.366E-02
RMM:   7    -0.413211831475E+03   -0.10959E-04   -0.49849E-04  5747   0.206E-02    0.210E-02
RMM:   8    -0.413211832300E+03   -0.82521E-06   -0.10590E-04  5222   0.102E-02    0.136E-02
RMM:   9    -0.413211820887E+03    0.11413E-04   -0.25462E-05  4687   0.574E-03    0.757E-03
RMM:  10    -0.413211817010E+03    0.38764E-05   -0.43533E-06  2832   0.297E-03    0.455E-03
RMM:  11    -0.413211814086E+03    0.29244E-05   -0.14898E-06  2499   0.205E-03    0.278E-03
RMM:  12    -0.413211807362E+03    0.67243E-05   -0.17088E-06  2537   0.211E-03    0.111E-03
RMM:  13    -0.413211803001E+03    0.43606E-05   -0.73749E-07  2440   0.148E-03    0.771E-04
RMM:  14    -0.413211802406E+03    0.59488E-06   -0.30780E-07  2124   0.978E-04
   41 T=    70. E= -.41286676E+03 F= -.41321180E+03 E0= -.41319073E+03  EK= 0.34504E+00 SP= 0.00E+00 SK= 0.00E+00
       N       E                     dE             d eps       ncg     rms          rms(c)
RMM:   1    -0.413230473434E+03   -0.18670E-01   -0.10268E+01  4310   0.120E+00    0.968E-01
RMM:   2    -0.413218997975E+03    0.11475E-01   -0.14319E-01  4285   0.134E-01    0.694E-01
RMM:   3    -0.413217269413E+03    0.17286E-02   -0.18621E-02  5068   0.749E-02    0.248E-01
RMM:   4    -0.413259630608E+03   -0.42361E-01   -0.55498E-02  5099   0.198E-01    0.873E-01
RMM:   5    -0.413214337864E+03    0.45293E-01   -0.20528E-02  4766   0.145E-01    0.614E-02
RMM:   6    -0.413214436884E+03   -0.99020E-04   -0.36308E-03  5787   0.569E-02    0.374E-02
RMM:   7    -0.413214442859E+03   -0.59749E-05   -0.49724E-04  5726   0.208E-02    0.227E-02
RMM:   8    -0.413214438423E+03    0.44360E-05   -0.13048E-04  5232   0.116E-02    0.140E-02
RMM:   9    -0.413214423037E+03    0.15385E-04   -0.22793E-05  4531   0.589E-03    0.641E-03
RMM:  10    -0.413214416937E+03    0.60999E-05   -0.51467E-06  2995   0.295E-03    0.394E-03
RMM:  11    -0.413214411974E+03    0.49631E-05   -0.12842E-06  2495   0.196E-03    0.226E-03
RMM:  12    -0.413214402441E+03    0.95334E-05   -0.11079E-06  2476   0.180E-03    0.885E-04
RMM:  13    -0.413214396549E+03    0.58920E-05   -0.52456E-07  2373   0.127E-03    0.514E-04
RMM:  14    -0.413214395136E+03    0.14133E-05   -0.25738E-07  1979   0.893E-04    0.363E-04
RMM:  15    -0.413214392067E+03    0.30685E-05   -0.13635E-07  1468   0.715E-04    0.195E-04
RMM:  16    -0.413214385005E+03    0.70624E-05   -0.11598E-07  1450   0.708E-04    0.227E-04
RMM:  17    -0.413214382459E+03    0.25456E-05   -0.55790E-08   996   0.603E-04    0.141E-04
RMM:  18    -0.413214377238E+03    0.52208E-05   -0.68067E-08  1344   0.647E-04    0.111E-04
RMM:  19    -0.413214374994E+03    0.22443E-05   -0.36528E-08  1015   0.567E-04    0.519E-05
RMM:  20    -0.413214373843E+03    0.11512E-05   -0.24189E-08   871   0.543E-04    0.337E-05
RMM:  21    -0.413214373614E+03    0.22917E-06   -0.13223E-08   708   0.519E-04
   42 T=    71. E= -.41286676E+03 F= -.41321437E+03 E0= -.41319333E+03  EK= 0.34761E+00 SP= 0.00E+00 SK= 0.00E+00
       N       E                     dE             d eps       ncg     rms          rms(c)
RMM:   1    -0.413241716039E+03   -0.27342E-01   -0.10353E+01  4309   0.129E+00    0.945E-01
RMM:   2    -0.413221349257E+03    0.20367E-01   -0.16588E-01  4298   0.147E-01    0.695E-01
RMM:   3    -0.413220814609E+03    0.53465E-03   -0.17642E-02  5069   0.818E-02    0.308E-01
RMM:   4    -0.413260510753E+03   -0.39696E-01   -0.58124E-02  5095   0.204E-01    0.861E-01
RMM:   5    -0.413216499312E+03    0.44011E-01   -0.19294E-02  4740   0.143E-01    0.636E-02
RMM:   6    -0.413216578111E+03   -0.78799E-04   -0.34880E-03  5746   0.560E-02    0.373E-02
RMM:   7    -0.413216580187E+03   -0.20764E-05   -0.52940E-04  5765   0.208E-02    0.245E-02
RMM:   8    -0.413216575140E+03    0.50475E-05   -0.13254E-04  5197   0.119E-02    0.131E-02
RMM:   9    -0.413216563082E+03    0.12058E-04   -0.21543E-05  4512   0.584E-03    0.536E-03
RMM:  10    -0.413216559789E+03    0.32933E-05   -0.47770E-06  2904   0.277E-03    0.340E-03
RMM:  11    -0.413216556402E+03    0.33870E-05   -0.13186E-06  2499   0.191E-03    0.188E-03
RMM:  12    -0.413216551035E+03    0.53669E-05   -0.88151E-07  2466   0.158E-03    0.701E-04
RMM:  13    -0.413216547585E+03    0.34504E-05   -0.43861E-07  2239   0.113E-03    0.351E-04
RMM:  14    -0.413216545919E+03    0.16657E-05   -0.23132E-07  1825   0.845E-04    0.250E-04
RMM:  15    -0.413216542787E+03    0.31318E-05   -0.13862E-07  1385   0.717E-04    0.119E-04
RMM:  16    -0.413216539585E+03    0.32019E-05   -0.94668E-08  1181   0.666E-04    0.101E-04
RMM:  17    -0.413216537257E+03    0.23286E-05   -0.66474E-08  1108   0.634E-04    0.669E-05
RMM:  18    -0.413216534492E+03    0.27645E-05   -0.58074E-08  1173   0.624E-04    0.431E-05
RMM:  19    -0.413216532533E+03    0.19593E-05   -0.35790E-08   970   0.579E-04    0.307E-05
RMM:  20    -0.413216531750E+03    0.78263E-06   -0.21813E-08   819   0.553E-04
   43 T=    71. E= -.41286675E+03 F= -.41321653E+03 E0= -.41319552E+03  EK= 0.34979E+00 SP= 0.00E+00 SK= 0.00E+00
       N       E                     dE             d eps       ncg     rms          rms(c)
RMM:   1    -0.413227521662E+03   -0.10989E-01   -0.10330E+01  4312   0.127E+00    0.951E-01
RMM:   2    -0.413222995430E+03    0.45262E-02   -0.15231E-01  4298   0.154E-01    0.706E-01
RMM:   3    -0.413223516154E+03   -0.52072E-03   -0.21024E-02  5065   0.923E-02    0.331E-01
RMM:   4    -0.413257540919E+03   -0.34025E-01   -0.55928E-02  5076   0.201E-01    0.817E-01
RMM:   5    -0.413217906485E+03    0.39634E-01   -0.16456E-02  4713   0.135E-01    0.614E-02
RMM:   6    -0.413217961600E+03   -0.55115E-04   -0.31040E-03  5730   0.527E-02    0.357E-02
RMM:   7    -0.413217961267E+03    0.33279E-06   -0.46714E-04  5728   0.201E-02    0.233E-02
RMM:   8    -0.413217957208E+03    0.40596E-05   -0.12233E-04  5175   0.116E-02    0.122E-02
RMM:   9    -0.413217946565E+03    0.10643E-04   -0.18845E-05  4385   0.556E-03    0.506E-03
RMM:  10    -0.413217944132E+03    0.24326E-05   -0.40650E-06  2804   0.262E-03    0.318E-03
RMM:  11    -0.413217941532E+03    0.26001E-05   -0.12695E-06  2497   0.186E-03    0.172E-03
RMM:  12    -0.413217937437E+03    0.40947E-05   -0.87453E-07  2468   0.154E-03    0.683E-04
RMM:  13    -0.413217934815E+03    0.26225E-05   -0.42875E-07  2165   0.110E-03    0.325E-04
RMM:  14    -0.413217933227E+03    0.15873E-05   -0.22929E-07  1722   0.826E-04    0.217E-04
RMM:  15    -0.413217929715E+03    0.35121E-05   -0.16468E-07  1394   0.738E-04    0.131E-04
RMM:  16    -0.413217927746E+03    0.19687E-05   -0.96688E-08  1143   0.662E-04    0.932E-05
RMM:  17    -0.413217925659E+03    0.20875E-05   -0.74852E-08  1139   0.642E-04    0.608E-05
RMM:  18    -0.413217923168E+03    0.24908E-05   -0.62470E-08  1160   0.627E-04    0.362E-05
RMM:  19    -0.413217921340E+03    0.18278E-05   -0.43288E-08  1026   0.587E-04    0.283E-05
RMM:  20    -0.413217920738E+03    0.60190E-06   -0.22985E-08   814   0.546E-04
   44 T=    72. E= -.41286651E+03 F= -.41321792E+03 E0= -.41319693E+03  EK= 0.35141E+00 SP= 0.00E+00 SK= 0.00E+00
       N       E                     dE             d eps       ncg     rms          rms(c)
RMM:   1    -0.413260774198E+03   -0.42853E-01   -0.10649E+01  4310   0.150E+00    0.974E-01
RMM:   2    -0.413224047655E+03    0.36727E-01   -0.17077E-01  4322   0.165E-01    0.704E-01
RMM:   3    -0.413227926489E+03   -0.38788E-02   -0.21491E-02  5113   0.103E-01    0.415E-01
RMM:   4    -0.413248621009E+03   -0.20695E-01   -0.49276E-02  5060   0.191E-01    0.707E-01
RMM:   5    -0.413219583213E+03    0.29038E-01   -0.11314E-02  4674   0.118E-01    0.613E-02
RMM:   6    -0.413219577266E+03    0.59474E-05   -0.22727E-03  5641   0.459E-02    0.359E-02
RMM:   7    -0.413219572518E+03    0.47479E-05   -0.38916E-04  5647   0.190E-02    0.235E-02
RMM:   8    -0.413219563956E+03    0.85626E-05   -0.12132E-04  5093   0.118E-02    0.112E-02
RMM:   9    -0.413219551117E+03    0.12838E-04   -0.16676E-05  4348   0.557E-03    0.455E-03
RMM:  10    -0.413219547195E+03    0.39225E-05   -0.33010E-06  2757   0.241E-03    0.272E-03
RMM:  11    -0.413219541610E+03    0.55847E-05   -0.12086E-06  2488   0.181E-03    0.147E-03
RMM:  12    -0.413219535326E+03    0.62842E-05   -0.65869E-07  2432   0.139E-03    0.644E-04
RMM:  13    -0.413219531646E+03    0.36796E-05   -0.31872E-07  1976   0.966E-04    0.307E-04
RMM:  14    -0.413219528386E+03    0.32599E-05   -0.17994E-07  1527   0.761E-04    0.180E-04
RMM:  15    -0.413219523099E+03    0.52869E-05   -0.13378E-07  1331   0.711E-04    0.126E-04
RMM:  16    -0.413219520253E+03    0.28466E-05   -0.84288E-08  1156   0.652E-04    0.905E-05
RMM:  17    -0.413219515739E+03    0.45141E-05   -0.80805E-08  1319   0.656E-04    0.596E-05
RMM:  18    -0.413219513560E+03    0.21786E-05   -0.47551E-08  1031   0.581E-04    0.445E-05
RMM:  19    -0.413219511653E+03    0.19068E-05   -0.33794E-08   954   0.562E-04    0.227E-05
RMM:  20    -0.413219511364E+03    0.28950E-06   -0.16103E-08   712   0.526E-04
   45 T=    72. E= -.41286685E+03 F= -.41321951E+03 E0= -.41319855E+03  EK= 0.35266E+00 SP= 0.00E+00 SK= 0.00E+00
       N       E                     dE             d eps       ncg     rms          rms(c)
RMM:   1    -0.413251793539E+03   -0.32282E-01   -0.10482E+01  4308   0.153E+00    0.956E-01
RMM:   2    -0.413224204518E+03    0.27589E-01   -0.16826E-01  4338   0.177E-01    0.698E-01
RMM:   3    -0.413230684462E+03   -0.64799E-02   -0.23380E-02  5111   0.114E-01    0.469E-01
RMM:   4    -0.413243048808E+03   -0.12364E-01   -0.46243E-02  5039   0.187E-01    0.637E-01
RMM:   5    -0.413219655662E+03    0.23393E-01   -0.84758E-03  4627   0.107E-01    0.592E-02
RMM:   6    -0.413219623873E+03    0.31789E-04   -0.18130E-03  5540   0.412E-02    0.341E-02
RMM:   7    -0.413219619251E+03    0.46221E-05   -0.33231E-04  5582   0.178E-02    0.226E-02
RMM:   8    -0.413219608479E+03    0.10772E-04   -0.12344E-04  5080   0.117E-02    0.106E-02
RMM:   9    -0.413219595907E+03    0.12573E-04   -0.15400E-05  4280   0.547E-03    0.437E-03
RMM:  10    -0.413219592513E+03    0.33938E-05   -0.28592E-06  2708   0.229E-03    0.251E-03
RMM:  11    -0.413219587180E+03    0.53331E-05   -0.11780E-06  2484   0.177E-03    0.133E-03
RMM:  12    -0.413219581852E+03    0.53277E-05   -0.61188E-07  2404   0.133E-03    0.643E-04
RMM:  13    -0.413219578429E+03    0.34231E-05   -0.29522E-07  1892   0.927E-04    0.313E-04
RMM:  14    -0.413219575149E+03    0.32803E-05   -0.16735E-07  1420   0.735E-04    0.173E-04
RMM:  15    -0.413219570469E+03    0.46802E-05   -0.12903E-07  1290   0.699E-04    0.122E-04
RMM:  16    -0.413219567790E+03    0.26786E-05   -0.81621E-08  1133   0.644E-04    0.920E-05
RMM:  17    -0.413219563185E+03    0.46050E-05   -0.87155E-08  1381   0.662E-04    0.673E-05
RMM:  18    -0.413219561398E+03    0.17870E-05   -0.43583E-08   964   0.563E-04    0.412E-05
RMM:  19    -0.413219559959E+03    0.14386E-05   -0.30809E-08   884   0.542E-04    0.234E-05
RMM:  20    -0.413219559403E+03    0.55599E-06   -0.17936E-08   733   0.520E-04
   46 T=    72. E= -.41286674E+03 F= -.41321956E+03 E0= -.41319861E+03  EK= 0.35282E+00 SP= 0.00E+00 SK= 0.00E+00
       N       E                     dE             d eps       ncg     rms          rms(c)
RMM:   1    -0.413236227991E+03   -0.16668E-01   -0.10380E+01  4311   0.153E+00    0.947E-01
RMM:   2    -0.413223865936E+03    0.12362E-01   -0.16378E-01  4363   0.184E-01    0.708E-01
RMM:   3    -0.413232498803E+03   -0.86329E-02   -0.26487E-02  5104   0.126E-01    0.509E-01
RMM:   4    -0.413241019535E+03   -0.85207E-02   -0.47764E-02  5031   0.191E-01    0.616E-01
RMM:   5    -0.413218937717E+03    0.22082E-01   -0.75484E-03  4607   0.104E-01    0.582E-02
RMM:   6    -0.413218888920E+03    0.48797E-04   -0.16041E-03  5463   0.391E-02    0.323E-02
RMM:   7    -0.413218881176E+03    0.77441E-05   -0.29489E-04  5586   0.169E-02    0.217E-02
RMM:   8    -0.413218870562E+03    0.10613E-04   -0.12630E-04  5080   0.118E-02    0.103E-02
RMM:   9    -0.413218859012E+03    0.11550E-04   -0.14790E-05  4213   0.544E-03    0.425E-03
RMM:  10    -0.413218856774E+03    0.22384E-05   -0.28673E-06  2714   0.227E-03    0.243E-03
RMM:  11    -0.413218853041E+03    0.37328E-05   -0.12515E-06  2495   0.180E-03    0.126E-03
RMM:  12    -0.413218849686E+03    0.33552E-05   -0.62508E-07  2394   0.133E-03    0.660E-04
RMM:  13    -0.413218847051E+03    0.26344E-05   -0.31010E-07  1834   0.937E-04    0.316E-04
RMM:  14    -0.413218844440E+03    0.26110E-05   -0.18501E-07  1429   0.751E-04    0.173E-04
RMM:  15    -0.413218841162E+03    0.32789E-05   -0.14458E-07  1318   0.707E-04    0.118E-04
RMM:  16    -0.413218839098E+03    0.20640E-05   -0.90513E-08  1176   0.646E-04    0.920E-05
RMM:  17    -0.413218835572E+03    0.35252E-05   -0.94576E-08  1312   0.660E-04    0.593E-05
RMM:  18    -0.413218834029E+03    0.15438E-05   -0.47517E-08   987   0.570E-04    0.422E-05
RMM:  19    -0.413218833128E+03    0.90032E-06   -0.27336E-08   814   0.535E-04
   47 T=    72. E= -.41286687E+03 F= -.41321883E+03 E0= -.41319790E+03  EK= 0.35196E+00 SP= 0.00E+00 SK= 0.00E+00
       N       E                     dE             d eps       ncg     rms          rms(c)
RMM:   1    -0.413244925159E+03   -0.26091E-01   -0.10410E+01  4306   0.169E+00    0.965E-01
RMM:   2    -0.413221842417E+03    0.23083E-01   -0.17028E-01  4424   0.198E-01    0.705E-01
RMM:   3    -0.413237254081E+03   -0.15412E-01   -0.30981E-02  5140   0.144E-01    0.616E-01
RMM:   4    -0.413231421543E+03    0.58325E-02   -0.43719E-02  4990   0.186E-01    0.502E-01
RMM:   5    -0.413217281987E+03    0.14140E-01   -0.47747E-03  4543   0.911E-02    0.578E-02
RMM:   6    -0.413217183372E+03    0.98615E-04   -0.83579E-04  5002   0.313E-02    0.310E-02
RMM:   7    -0.413217169048E+03    0.14324E-04   -0.17980E-04  5606   0.132E-02    0.147E-02
RMM:   8    -0.413217172165E+03   -0.31166E-05   -0.10876E-04  5251   0.106E-02    0.122E-02
RMM:   9    -0.413217155676E+03    0.16489E-04   -0.23002E-05  4584   0.602E-03    0.455E-03
RMM:  10    -0.413217153013E+03    0.26632E-05   -0.35073E-06  2772   0.252E-03    0.244E-03
RMM:  11    -0.413217147036E+03    0.59774E-05   -0.15044E-06  2451   0.201E-03    0.132E-03
RMM:  12    -0.413217142988E+03    0.40477E-05   -0.65782E-07  2367   0.142E-03    0.807E-04
RMM:  13    -0.413217138673E+03    0.43154E-05   -0.31526E-07  1899   0.995E-04    0.426E-04
RMM:  14    -0.413217134254E+03    0.44181E-05   -0.16372E-07  1515   0.750E-04    0.245E-04
RMM:  15    -0.413217130222E+03    0.40330E-05   -0.10454E-07  1155   0.651E-04    0.145E-04
RMM:  16    -0.413217127471E+03    0.27510E-05   -0.72790E-08  1081   0.608E-04    0.121E-04
RMM:  17    -0.413217123632E+03    0.38384E-05   -0.71089E-08  1147   0.612E-04    0.825E-05
RMM:  18    -0.413217121333E+03    0.22989E-05   -0.39142E-08   927   0.563E-04    0.633E-05
RMM:  19    -0.413217120227E+03    0.11064E-05   -0.21536E-08   720   0.518E-04    0.393E-05
RMM:  20    -0.413217118940E+03    0.12869E-05   -0.21202E-08   747   0.521E-04    0.239E-05
RMM:  21    -0.413217118731E+03    0.20937E-06   -0.82110E-09   562   0.492E-04
   48 T=    71. E= -.41286719E+03 F= -.41321712E+03 E0= -.41319620E+03  EK= 0.34993E+00 SP= 0.00E+00 SK= 0.00E+00
       N       E                     dE             d eps       ncg     rms          rms(c)
RMM:   1    -0.413245356633E+03   -0.28238E-01   -0.10276E+01  4303   0.181E+00    0.955E-01
RMM:   2    -0.413217761241E+03    0.27595E-01   -0.16991E-01  4479   0.209E-01    0.694E-01
RMM:   3    -0.413240347853E+03   -0.22587E-01   -0.36303E-02  5149   0.161E-01    0.710E-01
RMM:   4    -0.413222955331E+03    0.17393E-01   -0.42341E-02  4969   0.187E-01    0.420E-01
RMM:   5    -0.413213486441E+03    0.94689E-02   -0.39582E-03  4561   0.867E-02    0.611E-02
RMM:   6    -0.413213335631E+03    0.15081E-03   -0.47866E-04  4714   0.282E-02    0.325E-02
RMM:   7    -0.413213342946E+03   -0.73151E-05   -0.29712E-04  5777   0.177E-02    0.226E-02
RMM:   8    -0.413213312760E+03    0.30186E-04   -0.10323E-04  5057   0.115E-02    0.936E-03
RMM:   9    -0.413213306652E+03    0.61086E-05   -0.16334E-05  4558   0.539E-03    0.469E-03
RMM:  10    -0.413213302592E+03    0.40596E-05   -0.20422E-06  2599   0.233E-03    0.250E-03
RMM:  11    -0.413213296416E+03    0.61760E-05   -0.13056E-06  2488   0.187E-03    0.172E-03
[...]
RMM:  11    -0.412285944767E+03    0.51887E-06   -0.35518E-04  5725   0.211E-02    0.281E-02
RMM:  12    -0.412285949610E+03   -0.48433E-05   -0.14900E-04  4851   0.148E-02    0.126E-02
RMM:  13    -0.412285949053E+03    0.55719E-06   -0.40266E-05  5366   0.735E-03    0.746E-03
RMM:  14    -0.412285947859E+03    0.11936E-05   -0.12166E-05  4300   0.419E-03    0.476E-03
RMM:  15    -0.412285946238E+03    0.16215E-05   -0.23375E-06  2675   0.235E-03    0.242E-03
RMM:  16    -0.412285945519E+03    0.71880E-06   -0.14973E-06  2605   0.177E-03
  141 T=   993. E= -.40740613E+03 F= -.41228595E+03 E0= -.41226314E+03  EK= 0.48798E+01 SP= 0.00E+00 SK= 0.00E+00
       N       E                     dE             d eps       ncg     rms          rms(c)
RMM:   1    -0.414354146167E+03   -0.20682E+01   -0.10127E+02  4641   0.157E+01    0.255E+00
RMM:   2    -0.413532393282E+03    0.82175E+00   -0.70008E+00  5622   0.289E+00    0.404E+00
RMM:   3    -0.412933373265E+03    0.59902E+00   -0.11798E+00  5440   0.126E+00    0.316E+00
RMM:   4    -0.412694200567E+03    0.23917E+00   -0.27205E-01  5238   0.645E-01    0.225E+00
RMM:   5    -0.412651691245E+03    0.42509E-01   -0.95063E-02  4958   0.380E-01    0.174E+00
RMM:   6    -0.412617800658E+03    0.33891E-01   -0.56354E-01  4802   0.840E-01    0.724E-01
RMM:   7    -0.412608796879E+03    0.90038E-02   -0.16938E-01  5522   0.470E-01    0.534E-01
RMM:   8    -0.412601225780E+03    0.75711E-02   -0.26979E-02  5520   0.210E-01    0.278E-01
RMM:   9    -0.412598639516E+03    0.25863E-02   -0.86322E-03  4877   0.114E-01    0.133E-01
RMM:  10    -0.412598314198E+03    0.32532E-03   -0.31035E-03  5692   0.654E-02    0.676E-02
RMM:  11    -0.412598328297E+03   -0.14099E-04   -0.73985E-04  5830   0.306E-02    0.403E-02
RMM:  12    -0.412598385864E+03   -0.57567E-04   -0.36349E-04  4940   0.232E-02    0.141E-02
RMM:  13    -0.412598407504E+03   -0.21640E-04   -0.94684E-05  5731   0.111E-02    0.104E-02
RMM:  14    -0.412598414710E+03   -0.72057E-05   -0.24410E-05  4952   0.611E-03    0.688E-03
RMM:  15    -0.412598417457E+03   -0.27470E-05   -0.72583E-06  3215   0.359E-03    0.376E-03
RMM:  16    -0.412598418413E+03   -0.95634E-06   -0.73656E-06  3336   0.344E-03
  142 T=  1061. E= -.40738640E+03 F= -.41259842E+03 E0= -.41257717E+03  EK= 0.52120E+01 SP= 0.00E+00 SK= 0.00E+00
       N       E                     dE             d eps       ncg     rms          rms(c)
RMM:   1    -0.414772898265E+03   -0.21745E+01   -0.10781E+02  4410   0.172E+01    0.265E+00
RMM:   2    -0.414265647338E+03    0.50725E+00   -0.59209E+00  5378   0.301E+00    0.454E+00
RMM:   3    -0.413300118541E+03    0.96553E+00   -0.12610E+00  5380   0.136E+00    0.306E+00
RMM:   4    -0.413126924027E+03    0.17319E+00   -0.28972E-01  5455   0.669E-01    0.238E+00
RMM:   5    -0.413098939107E+03    0.27985E-01   -0.57782E-02  4873   0.314E-01    0.185E+00
RMM:   6    -0.413074541510E+03    0.24398E-01   -0.45188E-01  4665   0.800E-01    0.691E-01
RMM:   7    -0.413056414290E+03    0.18127E-01   -0.13269E-01  5403   0.436E-01    0.426E-01
RMM:   8    -0.413054375462E+03    0.20388E-02   -0.25800E-02  6022   0.190E-01    0.278E-01
RMM:   9    -0.413051703911E+03    0.26716E-02   -0.56684E-03  4630   0.979E-02    0.146E-01
RMM:  10    -0.413051071371E+03    0.63254E-03   -0.40552E-03  5597   0.760E-02    0.716E-02
RMM:  11    -0.413051062591E+03    0.87797E-05   -0.78283E-04  6035   0.322E-02    0.460E-02
RMM:  12    -0.413051051168E+03    0.11423E-04   -0.33562E-04  4682   0.247E-02    0.181E-02
RMM:  13    -0.413051049741E+03    0.14268E-05   -0.10094E-04  5524   0.120E-02    0.962E-03
RMM:  14    -0.413051048517E+03    0.12244E-05   -0.30694E-05  5305   0.635E-03    0.579E-03
RMM:  15    -0.413051044261E+03    0.42561E-05   -0.35427E-06  2860   0.283E-03    0.401E-03
RMM:  16    -0.413051039381E+03    0.48795E-05   -0.29277E-06  2822   0.248E-03    0.166E-03
RMM:  17    -0.413051036019E+03    0.33620E-05   -0.13647E-06  2537   0.176E-03    0.627E-04
RMM:  18    -0.413051032442E+03    0.35775E-05   -0.86877E-07  2350   0.138E-03    0.357E-04
RMM:  19    -0.413051028867E+03    0.35743E-05   -0.55579E-07  2129   0.109E-03    0.335E-04
RMM:  20    -0.413051023470E+03    0.53971E-05   -0.52783E-07  2018   0.987E-04    0.217E-04
RMM:  21    -0.413051019028E+03    0.44427E-05   -0.32571E-07  1609   0.799E-04    0.118E-04
RMM:  22    -0.413051015750E+03    0.32780E-05   -0.21125E-07  1478   0.709E-04    0.975E-05
RMM:  23    -0.413051013676E+03    0.20735E-05   -0.11933E-07  1189   0.614E-04    0.836E-05
RMM:  24    -0.413051012683E+03    0.99275E-06   -0.67640E-08   982   0.558E-04
  143 T=  1141. E= -.40744750E+03 F= -.41305101E+03 E0= -.41302913E+03  EK= 0.56035E+01 SP= 0.00E+00 SK= 0.00E+00
       N       E                     dE             d eps       ncg     rms          rms(c)
RMM:   1    -0.416140101214E+03   -0.30891E+01   -0.12830E+02  4415   0.187E+01    0.381E+00
RMM:   2    -0.414264884245E+03    0.18752E+01   -0.64139E+00  5422   0.313E+00    0.479E+00
RMM:   3    -0.413613880480E+03    0.65100E+00   -0.15532E+00  5344   0.145E+00    0.387E+00
RMM:   4    -0.413246814136E+03    0.36707E+00   -0.66411E-01  5211   0.100E+00    0.240E+00
RMM:   5    -0.413199401648E+03    0.47412E-01   -0.13919E-01  4477   0.535E-01    0.128E+00
RMM:   6    -0.413198195778E+03    0.12059E-02   -0.19877E-01  4738   0.559E-01    0.461E-01
RMM:   7    -0.413193634221E+03    0.45616E-02   -0.52330E-02  5588   0.280E-01    0.331E-01
RMM:   8    -0.413191815722E+03    0.18185E-02   -0.99032E-03  5641   0.125E-01    0.218E-01
RMM:   9    -0.413190256992E+03    0.15587E-02   -0.54133E-03  4380   0.101E-01    0.688E-02
RMM:  10    -0.413190261454E+03   -0.44620E-05   -0.18280E-03  5754   0.510E-02    0.437E-02
RMM:  11    -0.413190262566E+03   -0.11119E-05   -0.39702E-04  5713   0.239E-02    0.278E-02
RMM:  12    -0.413190252327E+03    0.10239E-04   -0.10969E-04  5183   0.134E-02    0.978E-03
RMM:  13    -0.413190256967E+03   -0.46401E-05   -0.39244E-05  5300   0.683E-03    0.797E-03
RMM:  14    -0.413190257953E+03   -0.98589E-06   -0.77659E-06  3445   0.407E-03
  144 T=  1153. E= -.40752439E+03 F= -.41319026E+03 E0= -.41316803E+03  EK= 0.56659E+01 SP= 0.00E+00 SK= 0.00E+00
       N       E                     dE             d eps       ncg     rms          rms(c)
RMM:   1    -0.416375299883E+03   -0.31850E+01   -0.14905E+02  4413   0.200E+01    0.474E+00
RMM:   2    -0.412606660890E+03    0.37686E+01   -0.59670E+00  5415   0.311E+00    0.512E+00
RMM:   3    -0.412675787899E+03   -0.69127E-01   -0.11624E+00  5551   0.121E+00    0.488E+00
RMM:   4    -0.412366842579E+03    0.30895E+00   -0.54023E-01  5250   0.844E-01    0.360E+00
RMM:   5    -0.412289050907E+03    0.77792E-01   -0.33925E-01  4352   0.836E-01    0.136E+00
RMM:   6    -0.412290375394E+03   -0.13245E-02   -0.27685E-01  5188   0.646E-01    0.661E-01
RMM:   7    -0.412272601752E+03    0.17774E-01   -0.61004E-02  5366   0.315E-01    0.438E-01
RMM:   8    -0.412268472385E+03    0.41294E-02   -0.85649E-03  4668   0.135E-01    0.262E-01
RMM:   9    -0.412266686768E+03    0.17856E-02   -0.11535E-02  4389   0.144E-01    0.626E-02
RMM:  10    -0.412266766121E+03   -0.79353E-04   -0.20385E-03  5784   0.530E-02    0.448E-02
RMM:  11    -0.412266745109E+03    0.21012E-04   -0.41583E-04  4849   0.257E-02    0.195E-02
RMM:  12    -0.412266759671E+03   -0.14561E-04   -0.10810E-04  5786   0.116E-02    0.113E-02
RMM:  13    -0.412266766814E+03   -0.71437E-05   -0.29315E-05  5071   0.633E-03    0.712E-03
RMM:  14    -0.412266771403E+03   -0.45883E-05   -0.82429E-06  3492   0.390E-03    0.452E-03
RMM:  15    -0.412266773769E+03   -0.23668E-05   -0.27861E-06  2756   0.258E-03    0.190E-03
RMM:  16    -0.412266775979E+03   -0.22093E-05   -0.17327E-06  2595   0.201E-03    0.845E-04
RMM:  17    -0.412266777411E+03   -0.14326E-05   -0.91068E-07  2494   0.152E-03    0.530E-04
RMM:  18    -0.412266778749E+03   -0.13378E-05   -0.67769E-07  2343   0.120E-03    0.473E-04
RMM:  19    -0.412266779538E+03   -0.78914E-06   -0.43112E-07  1824   0.929E-04
  145 T=   993. E= -.40738685E+03 F= -.41226678E+03 E0= -.41224347E+03  EK= 0.48799E+01 SP= 0.00E+00 SK= 0.00E+00
       N       E                     dE             d eps       ncg     rms          rms(c)
RMM:   1    -0.415955105023E+03   -0.36883E+01   -0.13844E+02  4347   0.193E+01    0.443E+00
RMM:   2    -0.412468443901E+03    0.34867E+01   -0.55131E+00  5403   0.295E+00    0.440E+00
RMM:   3    -0.412761931744E+03   -0.29349E+00   -0.14706E+00  5456   0.134E+00    0.448E+00
RMM:   4    -0.412222032813E+03    0.53990E+00   -0.77685E-01  5270   0.995E-01    0.277E+00
RMM:   5    -0.412157189168E+03    0.64844E-01   -0.27129E-01  4488   0.751E-01    0.104E+00
RMM:   6    -0.412174521517E+03   -0.17332E-01   -0.29194E-01  5154   0.641E-01    0.767E-01
RMM:   7    -0.412140607215E+03    0.33914E-01   -0.67969E-02  4879   0.345E-01    0.354E-01
RMM:   8    -0.412140630116E+03   -0.22901E-04   -0.20001E-02  5734   0.164E-01    0.210E-01
RMM:   9    -0.412139719696E+03    0.91042E-03   -0.61011E-03  4694   0.106E-01    0.734E-02
RMM:  10    -0.412139666913E+03    0.52783E-04   -0.16592E-03  5759   0.495E-02    0.435E-02
RMM:  11    -0.412139652265E+03    0.14648E-04   -0.33663E-04  5571   0.225E-02    0.297E-02
RMM:  12    -0.412139647449E+03    0.48164E-05   -0.15025E-04  5542   0.151E-02    0.144E-02
RMM:  13    -0.412139651877E+03   -0.44285E-05   -0.55624E-05  5706   0.803E-03    0.895E-03
RMM:  14    -0.412139651169E+03    0.70830E-06   -0.12134E-05  4180   0.468E-03    0.386E-03
RMM:  15    -0.412139652664E+03   -0.14950E-05   -0.36892E-06  2825   0.275E-03    0.191E-03
RMM:  16    -0.412139654759E+03   -0.20954E-05   -0.13323E-06  2521   0.193E-03    0.767E-04
RMM:  17    -0.412139655989E+03   -0.12295E-05   -0.60476E-07  2410   0.131E-03    0.486E-04
RMM:  18    -0.412139657269E+03   -0.12799E-05   -0.38303E-07  2109   0.998E-04    0.299E-04
RMM:  19    -0.412139658762E+03   -0.14937E-05   -0.32621E-07  1720   0.855E-04    0.180E-04
RMM:  20    -0.412139659832E+03   -0.10697E-05   -0.24264E-07  1470   0.754E-04    0.108E-04
RMM:  21    -0.412139660471E+03   -0.63901E-06   -0.16150E-07  1301   0.671E-04
  146 T=   942. E= -.40751286E+03 F= -.41213966E+03 E0= -.41211782E+03  EK= 0.46268E+01 SP= 0.00E+00 SK= 0.00E+00
       N       E                     dE             d eps       ncg     rms          rms(c)
RMM:   1    -0.416443052801E+03   -0.43034E+01   -0.15323E+02  4541   0.206E+01    0.551E+00
RMM:   2    -0.412904835747E+03    0.35382E+01   -0.78560E+00  5456   0.347E+00    0.611E+00
RMM:   3    -0.412700744814E+03    0.20409E+00   -0.20247E+00  5547   0.157E+00    0.551E+00
RMM:   4    -0.412176129132E+03    0.52462E+00   -0.81526E-01  5224   0.107E+00    0.361E+00
RMM:   5    -0.412115868218E+03    0.60261E-01   -0.42945E-01  4369   0.951E-01    0.143E+00
RMM:   6    -0.412115565842E+03    0.30238E-03   -0.34920E-01  5194   0.713E-01    0.769E-01
RMM:   7    -0.412087733435E+03    0.27832E-01   -0.64609E-02  5120   0.339E-01    0.471E-01
RMM:   8    -0.412084738927E+03    0.29945E-02   -0.15569E-02  5465   0.157E-01    0.303E-01
RMM:   9    -0.412082731290E+03    0.20076E-02   -0.12972E-02  4439   0.155E-01    0.748E-02
RMM:  10    -0.412082861049E+03   -0.12976E-03   -0.24864E-03  5812   0.573E-02    0.625E-02
RMM:  11    -0.412082798863E+03    0.62186E-04   -0.52923E-04  4723   0.300E-02    0.301E-02
RMM:  12    -0.412082820172E+03   -0.21309E-04   -0.22559E-04  5790   0.181E-02    0.203E-02
RMM:  13    -0.412082821663E+03   -0.14908E-05   -0.70195E-05  5138   0.102E-02    0.790E-03
RMM:  14    -0.412082828640E+03   -0.69774E-05   -0.34253E-05  5449   0.643E-03    0.721E-03
RMM:  15    -0.412082831411E+03   -0.27712E-05   -0.46778E-06  2976   0.317E-03    0.404E-03
RMM:  16    -0.412082834651E+03   -0.32398E-05   -0.33039E-06  2819   0.265E-03    0.132E-03
RMM:  17    -0.412082837025E+03   -0.23744E-05   -0.12233E-06  2465   0.186E-03    0.608E-04
RMM:  18    -0.412082840179E+03   -0.31535E-05   -0.87914E-07  2426   0.148E-03    0.488E-04
RMM:  19    -0.412082842616E+03   -0.24375E-05   -0.51746E-07  2201   0.115E-03    0.460E-04
RMM:  20    -0.412082844405E+03   -0.17889E-05   -0.29645E-07  1852   0.873E-04    0.388E-04
RMM:  21    -0.412082847444E+03   -0.30386E-05   -0.30834E-07  1615   0.814E-04    0.169E-04
RMM:  22    -0.412082849038E+03   -0.15943E-05   -0.18132E-07  1447   0.704E-04    0.135E-04
RMM:  23    -0.412082850259E+03   -0.12208E-05   -0.11749E-07  1148   0.614E-04    0.112E-04
RMM:  24    -0.412082851434E+03   -0.11749E-05   -0.93255E-08  1136   0.591E-04    0.109E-04
RMM:  25    -0.412082851839E+03   -0.40499E-06   -0.47761E-08   916   0.533E-04
  147 T=   944. E= -.40744675E+03 F= -.41208285E+03 E0= -.41206197E+03  EK= 0.46361E+01 SP= 0.00E+00 SK= 0.00E+00
       N       E                     dE             d eps       ncg     rms          rms(c)
RMM:   1    -0.416159374335E+03   -0.40765E+01   -0.13372E+02  4358   0.203E+01    0.483E+00
RMM:   2    -0.414299237981E+03    0.18601E+01   -0.73235E+00  5551   0.316E+00    0.599E+00
RMM:   3    -0.413138965990E+03    0.11603E+01   -0.18051E+00  5437   0.153E+00    0.435E+00
RMM:   4    -0.412912383436E+03    0.22658E+00   -0.80193E-01  5373   0.106E+00    0.281E+00
RMM:   5    -0.412869368286E+03    0.43015E-01   -0.48555E-01  4563   0.958E-01    0.132E+00
RMM:   6    -0.412862393155E+03    0.69751E-02   -0.32053E-01  5026   0.697E-01    0.821E-01
RMM:   7    -0.412837939046E+03    0.24454E-01   -0.52413E-02  4987   0.319E-01    0.525E-01
RMM:   8    -0.412834319310E+03    0.36197E-02   -0.20004E-02  5460   0.180E-01    0.253E-01
RMM:   9    -0.412833109249E+03    0.12101E-02   -0.10363E-02  4606   0.131E-01    0.821E-02
RMM:  10    -0.412833109386E+03   -0.13637E-06   -0.20587E-03  5827   0.568E-02    0.524E-02
RMM:  11    -0.412833103885E+03    0.55010E-05   -0.45864E-04  5428   0.274E-02    0.319E-02
RMM:  12    -0.412833125382E+03   -0.21497E-04   -0.16233E-04  5298   0.167E-02    0.158E-02
RMM:  13    -0.412833138997E+03   -0.13615E-04   -0.63427E-05  5614   0.884E-03    0.101E-02
RMM:  14    -0.412833148289E+03   -0.92925E-05   -0.17955E-05  4635   0.562E-03    0.523E-03
RMM:  15    -0.412833155536E+03   -0.72463E-05   -0.60983E-06  3207   0.342E-03    0.276E-03
RMM:  16    -0.412833161999E+03   -0.64628E-05   -0.24324E-06  2659   0.252E-03    0.115E-03
RMM:  17    -0.412833165390E+03   -0.33910E-05   -0.10173E-06  2517   0.167E-03    0.701E-04
RMM:  18    -0.412833169298E+03   -0.39083E-05   -0.69130E-07  2406   0.126E-03    0.498E-04
RMM:  19    -0.412833173858E+03   -0.45605E-05   -0.69008E-07  2213   0.112E-03    0.307E-04
RMM:  20    -0.412833176426E+03   -0.25680E-05   -0.36892E-07  1643   0.842E-04    0.185E-04
RMM:  21    -0.412833179041E+03   -0.26151E-05   -0.32995E-07  1802   0.831E-04    0.131E-04
RMM:  22    -0.412833180462E+03   -0.14202E-05   -0.17412E-07  1374   0.666E-04    0.847E-05
RMM:  23    -0.412833182029E+03   -0.15678E-05   -0.12723E-07  1270   0.639E-04    0.620E-05
RMM:  24    -0.412833182677E+03   -0.64717E-06   -0.73843E-08  1083   0.572E-04
  148 T=  1051. E= -.40766995E+03 F= -.41283318E+03 E0= -.41281199E+03  EK= 0.51632E+01 SP= 0.00E+00 SK= 0.00E+00
       N       E                     dE             d eps       ncg     rms          rms(c)
RMM:   1    -0.413618021545E+03   -0.78484E+00   -0.10289E+02  4323   0.175E+01    0.561E+00
RMM:   2    -0.415530862466E+03   -0.19128E+01   -0.13278E+01  5579   0.390E+00    0.647E+00
RMM:   3    -0.414294086277E+03    0.12368E+01   -0.40575E+00  5388   0.220E+00    0.543E+00
RMM:   4    -0.413136613904E+03    0.11575E+01   -0.14381E+00  5116   0.142E+00    0.277E+00
RMM:   5    -0.413012820021E+03    0.12379E+00   -0.49597E-01  4653   0.918E-01    0.196E+00
RMM:   6    -0.413011155124E+03    0.16649E-02   -0.10606E+00  5118   0.114E+00    0.134E+00
RMM:   7    -0.412980547788E+03    0.30607E-01   -0.25641E-01  5525   0.597E-01    0.102E+00
RMM:   8    -0.412956629181E+03    0.23919E-01   -0.50455E-02  5171   0.288E-01    0.561E-01
RMM:   9    -0.412948098851E+03    0.85303E-02   -0.63608E-02  4657   0.288E-01    0.126E-01
RMM:  10    -0.412948942552E+03   -0.84370E-03   -0.92129E-03  5844   0.111E-01    0.916E-02
RMM:  11    -0.412948819426E+03    0.12313E-03   -0.13234E-03  4624   0.487E-02    0.561E-02
RMM:  12    -0.412949058799E+03   -0.23937E-03   -0.74991E-04  5096   0.353E-02    0.387E-02
RMM:  13    -0.412949103918E+03   -0.45119E-04   -0.27583E-04  4559   0.217E-02    0.122E-02
RMM:  14    -0.412949159148E+03   -0.55231E-04   -0.14472E-04  6122   0.125E-02    0.133E-02
RMM:  15    -0.412949187131E+03   -0.27983E-04   -0.22906E-05  4254   0.629E-03    0.802E-03
RMM:  16    -0.412949212742E+03   -0.25611E-04   -0.27673E-05  4256   0.681E-03    0.318E-03
RMM:  17    -0.412949229325E+03   -0.16583E-04   -0.18631E-05  3654   0.547E-03    0.203E-03
RMM:  18    -0.412949233735E+03   -0.44107E-05   -0.92717E-06  3239   0.350E-03    0.164E-03
RMM:  19    -0.412949233773E+03   -0.37777E-07   -0.83950E-06  3200   0.347E-03
  149 T=  1096. E= -.40756560E+03 F= -.41294923E+03 E0= -.41292919E+03  EK= 0.53836E+01 SP= 0.00E+00 SK= 0.00E+00
       N       E                     dE             d eps       ncg     rms          rms(c)
RMM:   1    -0.411314037305E+03    0.16352E+01   -0.67562E+01  4316   0.137E+01    0.459E+00
RMM:   2    -0.415615400989E+03   -0.43014E+01   -0.15488E+01  5601   0.388E+00    0.646E+00
RMM:   3    -0.413708391887E+03    0.19070E+01   -0.44639E+00  5354   0.223E+00    0.514E+00
RMM:   4    -0.412522655168E+03    0.11857E+01   -0.10209E+00  5016   0.123E+00    0.277E+00
RMM:   5    -0.412369748844E+03    0.15291E+00   -0.31796E-01  5270   0.655E-01    0.203E+00
RMM:   6    -0.412229977862E+03    0.13977E+00   -0.10415E+00  5119   0.949E-01    0.105E+00
RMM:   7    -0.412263773270E+03   -0.33795E-01   -0.47870E-01  5670   0.639E-01    0.116E+00
RMM:   8    -0.412227261650E+03    0.36512E-01   -0.57520E-02  4724   0.311E-01    0.563E-01
RMM:   9    -0.412222838158E+03    0.44235E-02   -0.85712E-02  5002   0.291E-01    0.159E-01
RMM:  10    -0.412222923848E+03   -0.85690E-04   -0.54121E-03  5580   0.971E-02    0.929E-02
RMM:  11    -0.412222831711E+03    0.92137E-04   -0.15694E-03  4664   0.491E-02    0.532E-02
RMM:  12    -0.412223051256E+03   -0.21955E-03   -0.54515E-04  4873   0.288E-02    0.289E-02
RMM:  13    -0.412223255971E+03   -0.20471E-03   -0.26711E-04  4652   0.226E-02    0.194E-02
RMM:  14    -0.412223360304E+03   -0.10433E-03   -0.10975E-04  4776   0.133E-02    0.217E-02
RMM:  15    -0.412223397745E+03   -0.37441E-04   -0.86783E-05  4399   0.113E-02    0.952E-03
RMM:  16    -0.412223438526E+03   -0.40782E-04   -0.10100E-04  4625   0.107E-02    0.434E-03
RMM:  17    -0.412223455957E+03   -0.17431E-04   -0.54220E-05  3897   0.868E-03    0.471E-03
RMM:  18    -0.412223440786E+03    0.15172E-04   -0.34159E-05  3663   0.638E-03    0.364E-03
RMM:  19    -0.412223414537E+03    0.26249E-04   -0.18943E-05  3527   0.468E-03    0.193E-03
RMM:  20    -0.412223393907E+03    0.20630E-04   -0.69571E-06  3165   0.261E-03    0.115E-03
RMM:  21    -0.412223370997E+03    0.22910E-04   -0.29560E-06  2814   0.198E-03    0.616E-04
RMM:  22    -0.412223357827E+03    0.13170E-04   -0.10606E-06  2141   0.131E-03    0.469E-04
RMM:  23    -0.412223347043E+03    0.10784E-04   -0.66524E-07  2207   0.111E-03    0.357E-04
RMM:  24    -0.412223336008E+03    0.11035E-04   -0.59909E-07  2069   0.104E-03    0.276E-04
RMM:  25    -0.412223332041E+03    0.39668E-05   -0.28507E-07  1592   0.769E-04    0.150E-04
RMM:  26    -0.412223329317E+03    0.27247E-05   -0.22697E-07  1724   0.746E-04    0.916E-05
RMM:  27    -0.412223328507E+03    0.81000E-06   -0.12342E-07  1256   0.565E-04
  150 T=   955. E= -.40753062E+03 F= -.41222333E+03 E0= -.41220255E+03  EK= 0.46927E+01 SP= 0.00E+00 SK= 0.00E+00
