       N       E                     dE             d eps       ncg     rms          rms(c)
RMM:   1     0.220129801304E+04    0.22013E+04   -0.52446E+04  2132   0.654E+02
RMM:   2     0.705794880664E+03   -0.14955E+04   -0.16261E+04  2132   0.177E+02
RMM:   3     0.137636481828E+03   -0.56816E+03   -0.65733E+03  2132   0.117E+02
RMM:   4    -0.159381139793E+03   -0.29702E+03   -0.27849E+03  2132   0.936E+01
RMM:   5    -0.287529517348E+03   -0.12815E+03   -0.11443E+03  2132   0.595E+01
RMM:   6    -0.349749742741E+03   -0.62220E+02   -0.55148E+02  2132   0.423E+01
RMM:   7    -0.382651980627E+03   -0.32902E+02   -0.30434E+02  2132   0.293E+01
RMM:   8    -0.404160793597E+03   -0.21509E+02   -0.18437E+02  2132   0.234E+01
RMM:   9    -0.435980331753E+03   -0.31820E+02   -0.30670E+02  6097   0.173E+01
RMM:  10    -0.441261120402E+03   -0.52808E+01   -0.63034E+01  6387   0.540E+00
RMM:  11    -0.442524158050E+03   -0.12630E+01   -0.11133E+01  6227   0.174E+00
RMM:  12    -0.442898549886E+03   -0.37439E+00   -0.28112E+00  6376   0.610E-01    0.134E+02
RMM:  13    -0.425664979104E+03    0.17234E+02   -0.81374E+01  4678   0.120E+01    0.712E+01
RMM:  14    -0.500428520442E+03   -0.74764E+02   -0.54595E+02  5421   0.233E+01    0.309E+01
RMM:  15    -0.417162187438E+03    0.83266E+02   -0.20442E+02  5118   0.165E+01    0.787E+00
RMM:  16    -0.414031171416E+03    0.31310E+01   -0.40387E+01  6098   0.619E+00    0.432E+00
RMM:  17    -0.413206250157E+03    0.82492E+00   -0.26510E+00  5417   0.193E+00    0.243E+00
RMM:  18    -0.413181836158E+03    0.24414E-01   -0.73745E-01  6010   0.879E-01    0.172E+00
RMM:  19    -0.413174721981E+03    0.71142E-02   -0.25432E-01  5657   0.553E-01    0.925E-01
RMM:  20    -0.413197193302E+03   -0.22471E-01   -0.34632E-01  5585   0.601E-01    0.696E-01
RMM:  21    -0.413171087866E+03    0.26105E-01   -0.38162E-02  4972   0.258E-01    0.326E-01
RMM:  22    -0.413166433656E+03    0.46542E-02   -0.28921E-02  5816   0.167E-01    0.141E-01
RMM:  23    -0.413165444998E+03    0.98866E-03   -0.56227E-03  5980   0.669E-02    0.856E-02
RMM:  24    -0.413163977706E+03    0.14673E-02   -0.17907E-03  5373   0.421E-02    0.570E-02
RMM:  25    -0.413163033364E+03    0.94434E-03   -0.91804E-04  5037   0.303E-02    0.410E-02
RMM:  26    -0.413163036093E+03   -0.27286E-05   -0.12842E-03  5813   0.363E-02    0.384E-02
RMM:  27    -0.413163375093E+03   -0.33900E-03   -0.22017E-04  4595   0.207E-02    0.223E-02
RMM:  28    -0.413163777253E+03   -0.40216E-03   -0.18616E-04  5166   0.187E-02    0.955E-03
RMM:  29    -0.413164145463E+03   -0.36821E-03   -0.12177E-04  4833   0.160E-02    0.543E-03
RMM:  30    -0.413164394278E+03   -0.24882E-03   -0.84348E-05  4299   0.113E-02    0.503E-03
RMM:  31    -0.413164539286E+03   -0.14501E-03   -0.65689E-05  3317   0.787E-03    0.391E-03
RMM:  32    -0.413164562445E+03   -0.23159E-04   -0.24649E-05  3029   0.338E-03    0.222E-03
RMM:  33    -0.413164571122E+03   -0.86769E-05   -0.95595E-06  2797   0.230E-03    0.831E-04
RMM:  34    -0.413164572297E+03   -0.11748E-05   -0.49694E-06  2647   0.173E-03    0.438E-04
RMM:  35    -0.413164570796E+03    0.15003E-05   -0.23318E-06  2427   0.136E-03    0.607E-04
RMM:  36    -0.413164569032E+03    0.17646E-05   -0.36887E-06  1951   0.984E-04    0.419E-04
RMM:  37    -0.413164568191E+03    0.84043E-06   -0.10687E-06  1347   0.765E-04
    1 T=    61. E= -.41286679E+03 F= -.41316457E+03 E0= -.41314207E+03  EK= 0.29778E+00 SP= 0.00E+00 SK= 0.00E+00
       N       E                     dE             d eps       ncg     rms          rms(c)
RMM:   1    -0.413176768979E+03   -0.12200E-01   -0.55734E+00  3969   0.454E-01    0.925E-01
RMM:   2    -0.413172118110E+03    0.46509E-02   -0.74233E-02  4016   0.713E-02    0.667E-01
RMM:   3    -0.413171303203E+03    0.81491E-03   -0.64927E-02  5157   0.958E-02    0.419E-01
RMM:   4    -0.413177536691E+03   -0.62335E-02   -0.23901E-02  5111   0.135E-01    0.513E-01
RMM:   5    -0.413164204742E+03    0.13332E-01   -0.86614E-03  4624   0.841E-02    0.378E-02
RMM:   6    -0.413164277332E+03   -0.72590E-04   -0.10987E-03  5570   0.307E-02    0.252E-02
RMM:   7    -0.413164295639E+03   -0.18306E-04   -0.19151E-04  5429   0.133E-02    0.175E-02
RMM:   8    -0.413164300212E+03   -0.45734E-05   -0.30054E-05  4552   0.660E-03    0.529E-03
RMM:   9    -0.413164304847E+03   -0.46354E-05   -0.54266E-06  2872   0.273E-03    0.348E-03
RMM:  10    -0.413164310707E+03   -0.58593E-05   -0.11830E-06  2521   0.159E-03    0.222E-03
RMM:  11    -0.413164315537E+03   -0.48303E-05   -0.84483E-07  2251   0.116E-03    0.967E-04
RMM:  12    -0.413164321472E+03   -0.59352E-05   -0.83067E-07  2304   0.112E-03    0.537E-04
RMM:  13    -0.413164323811E+03   -0.23390E-05   -0.39216E-07  1653   0.822E-04    0.345E-04
RMM:  14    -0.413164325022E+03   -0.12110E-05   -0.26759E-07  1296   0.713E-04    0.142E-04
RMM:  15    -0.413164327096E+03   -0.20740E-05   -0.38945E-07  1669   0.790E-04    0.242E-04
RMM:  16    -0.413164328197E+03   -0.11014E-05   -0.30697E-07  1511   0.705E-04    0.198E-04
RMM:  17    -0.413164328318E+03   -0.12097E-06   -0.17373E-07  1115   0.577E-04
    2 T=    61. E= -.41286657E+03 F= -.41316433E+03 E0= -.41314183E+03  EK= 0.29776E+00 SP= 0.00E+00 SK= 0.00E+00
       N       E                     dE             d eps       ncg     rms          rms(c)
RMM:   1    -0.413177903170E+03   -0.13575E-01   -0.55126E+00  4190   0.452E-01    0.943E-01
RMM:   2    -0.413172331479E+03    0.55717E-02   -0.74753E-02  4099   0.737E-02    0.667E-01
RMM:   3    -0.413171129826E+03    0.12017E-02   -0.60623E-02  5139   0.929E-02    0.382E-01
RMM:   4    -0.413178985267E+03   -0.78554E-02   -0.24218E-02  5092   0.136E-01    0.518E-01
RMM:   5    -0.413164740204E+03    0.14245E-01   -0.80206E-03  4647   0.851E-02    0.393E-02
RMM:   6    -0.413164797350E+03   -0.57147E-04   -0.10998E-03  5533   0.316E-02    0.262E-02
RMM:   7    -0.413164828854E+03   -0.31504E-04   -0.19042E-04  5435   0.134E-02    0.182E-02
RMM:   8    -0.413164827648E+03    0.12061E-05   -0.30533E-05  4560   0.684E-03    0.552E-03
RMM:   9    -0.413164827395E+03    0.25277E-06   -0.55663E-06  2886   0.272E-03
    3 T=    61. E= -.41286678E+03 F= -.41316483E+03 E0= -.41314233E+03  EK= 0.29805E+00 SP= 0.00E+00 SK= 0.00E+00
       N       E                     dE             d eps       ncg     rms          rms(c)
RMM:   1    -0.413177094505E+03   -0.12267E-01   -0.54810E+00  4217   0.458E-01    0.927E-01
RMM:   2    -0.413171959294E+03    0.51352E-02   -0.74082E-02  4181   0.704E-02    0.660E-01
RMM:   3    -0.413175360332E+03   -0.34010E-02   -0.63556E-02  5185   0.109E-01    0.476E-01
RMM:   4    -0.413174295595E+03    0.10647E-02   -0.24054E-02  5048   0.138E-01    0.446E-01
RMM:   5    -0.413164591413E+03    0.97042E-02   -0.65471E-03  4508   0.722E-02    0.381E-02
RMM:   6    -0.413164604785E+03   -0.13373E-04   -0.70592E-04  5287   0.248E-02    0.251E-02
RMM:   7    -0.413164598621E+03    0.61639E-05   -0.13444E-04  5186   0.115E-02    0.160E-02
RMM:   8    -0.413164596670E+03    0.19513E-05   -0.23283E-05  4181   0.611E-03    0.400E-03
RMM:   9    -0.413164597644E+03   -0.97420E-06   -0.31625E-06  2655   0.225E-03
    4 T=    61. E= -.41286649E+03 F= -.41316460E+03 E0= -.41314211E+03  EK= 0.29811E+00 SP= 0.00E+00 SK= 0.00E+00
       N       E                     dE             d eps       ncg     rms          rms(c)
RMM:   1    -0.413176991107E+03   -0.12394E-01   -0.55739E+00  4235   0.467E-01    0.922E-01
RMM:   2    -0.413172317096E+03    0.46740E-02   -0.74237E-02  4092   0.683E-02    0.665E-01
RMM:   3    -0.413173750844E+03   -0.14337E-02   -0.65801E-02  5175   0.999E-02    0.458E-01
RMM:   4    -0.413176079288E+03   -0.23284E-02   -0.23668E-02  5067   0.136E-01    0.484E-01
RMM:   5    -0.413164671873E+03    0.11407E-01   -0.79604E-03  4567   0.781E-02    0.381E-02
RMM:   6    -0.413164719604E+03   -0.47731E-04   -0.86799E-04  5400   0.275E-02    0.245E-02
RMM:   7    -0.413164746108E+03   -0.26504E-04   -0.15391E-04  5309   0.119E-02    0.158E-02
RMM:   8    -0.413164752044E+03   -0.59359E-05   -0.24132E-05  4236   0.600E-03    0.418E-03
RMM:   9    -0.413164755974E+03   -0.39305E-05   -0.34425E-06  2703   0.228E-03    0.316E-03
RMM:  10    -0.413164761307E+03   -0.53325E-05   -0.10435E-06  2496   0.145E-03    0.181E-03
RMM:  11    -0.413164765344E+03   -0.40368E-05   -0.69556E-07  2059   0.107E-03    0.747E-04
RMM:  12    -0.413164770297E+03   -0.49532E-05   -0.78344E-07  2248   0.107E-03    0.452E-04
RMM:  13    -0.413164773062E+03   -0.27649E-05   -0.51556E-07  1610   0.857E-04    0.311E-04
RMM:  14    -0.413164774279E+03   -0.12168E-05   -0.43453E-07  1552   0.813E-04    0.213E-04
RMM:  15    -0.413164774278E+03    0.21828E-09   -0.25923E-07  1393   0.705E-04
    5 T=    61. E= -.41286652E+03 F= -.41316477E+03 E0= -.41314230E+03  EK= 0.29825E+00 SP= 0.00E+00 SK= 0.00E+00
       N       E                     dE             d eps       ncg     rms          rms(c)
RMM:   1    -0.413178209960E+03   -0.13436E-01   -0.55289E+00  4248   0.464E-01    0.939E-01
RMM:   2    -0.413172612061E+03    0.55979E-02   -0.74571E-02  4107   0.688E-02    0.667E-01
RMM:   3    -0.413171712346E+03    0.89971E-03   -0.61500E-02  5156   0.899E-02    0.392E-01
RMM:   4    -0.413179031890E+03   -0.73195E-02   -0.24143E-02  5080   0.135E-01    0.515E-01
RMM:   5    -0.413165151058E+03    0.13881E-01   -0.80932E-03  4636   0.843E-02    0.391E-02
RMM:   6    -0.413165213714E+03   -0.62656E-04   -0.10877E-03  5520   0.310E-02    0.259E-02
RMM:   7    -0.413165221638E+03   -0.79238E-05   -0.18483E-04  5434   0.129E-02    0.180E-02
RMM:   8    -0.413165222599E+03   -0.96144E-06   -0.29200E-05  4510   0.640E-03    0.529E-03
RMM:   9    -0.413165223135E+03   -0.53638E-06   -0.49222E-06  2820   0.266E-03
    6 T=    61. E= -.41286686E+03 F= -.41316522E+03 E0= -.41314276E+03  EK= 0.29837E+00 SP= 0.00E+00 SK= 0.00E+00
       N       E                     dE             d eps       ncg     rms          rms(c)
RMM:   1    -0.413177802268E+03   -0.12580E-01   -0.54842E+00  4265   0.469E-01    0.933E-01
RMM:   2    -0.413172389064E+03    0.54132E-02   -0.74231E-02  4201   0.690E-02    0.661E-01
RMM:   3    -0.413175734846E+03   -0.33458E-02   -0.62918E-02  5172   0.108E-01    0.470E-01
RMM:   4    -0.413174820541E+03    0.91430E-03   -0.24056E-02  5042   0.137E-01    0.444E-01
RMM:   5    -0.413165035376E+03    0.97852E-02   -0.63100E-03  4507   0.729E-02    0.382E-02
RMM:   6    -0.413165046563E+03   -0.11187E-04   -0.72157E-04  5303   0.250E-02    0.254E-02
RMM:   7    -0.413165063838E+03   -0.17275E-04   -0.13863E-04  5197   0.116E-02    0.164E-02
RMM:   8    -0.413165067882E+03   -0.40441E-05   -0.24014E-05  4214   0.582E-03    0.415E-03
RMM:   9    -0.413165068062E+03   -0.17960E-06   -0.31535E-06  2617   0.221E-03
    7 T=    61. E= -.41286683E+03 F= -.41316507E+03 E0= -.41314262E+03  EK= 0.29824E+00 SP= 0.00E+00 SK= 0.00E+00
       N       E                     dE             d eps       ncg     rms          rms(c)
RMM:   1    -0.413177908459E+03   -0.12841E-01   -0.55507E+00  4272   0.479E-01    0.920E-01
RMM:   2    -0.413173253727E+03    0.46547E-02   -0.73968E-02  4124   0.701E-02    0.663E-01
RMM:   3    -0.413174657270E+03   -0.14035E-02   -0.64831E-02  5130   0.102E-01    0.455E-01
RMM:   4    -0.413176794979E+03   -0.21377E-02   -0.23511E-02  5044   0.135E-01    0.480E-01
RMM:   5    -0.413165552439E+03    0.11243E-01   -0.77449E-03  4558   0.776E-02    0.376E-02
RMM:   6    -0.413165588703E+03   -0.36264E-04   -0.85996E-04  5395   0.271E-02    0.244E-02
RMM:   7    -0.413165608496E+03   -0.19793E-04   -0.15032E-04  5280   0.120E-02    0.158E-02
RMM:   8    -0.413165615522E+03   -0.70256E-05   -0.22728E-05  4204   0.578E-03    0.419E-03
RMM:   9    -0.413165618252E+03   -0.27301E-05   -0.32643E-06  2673   0.225E-03    0.309E-03
RMM:  10    -0.413165621888E+03   -0.36359E-05   -0.10068E-06  2481   0.144E-03    0.178E-03
RMM:  11    -0.413165624270E+03   -0.23825E-05   -0.64697E-07  2040   0.107E-03    0.753E-04
RMM:  12    -0.413165627185E+03   -0.29152E-05   -0.73592E-07  2262   0.108E-03    0.471E-04
RMM:  13    -0.413165628488E+03   -0.13026E-05   -0.52177E-07  1649   0.878E-04    0.308E-04
RMM:  14    -0.413165628257E+03    0.23064E-06   -0.30769E-07  1469   0.761E-04
    8 T=    61. E= -.41286716E+03 F= -.41316563E+03 E0= -.41314320E+03  EK= 0.29847E+00 SP= 0.00E+00 SK= 0.00E+00
       N       E                     dE             d eps       ncg     rms          rms(c)
RMM:   1    -0.413178612916E+03   -0.12984E-01   -0.55452E+00  4283   0.481E-01    0.934E-01
RMM:   2    -0.413173438750E+03    0.51742E-02   -0.74472E-02  4180   0.722E-02    0.667E-01
RMM:   3    -0.413172715105E+03    0.72364E-03   -0.62742E-02  5106   0.954E-02    0.406E-01
RMM:   4    -0.413179215020E+03   -0.64999E-02   -0.23786E-02  5060   0.135E-01    0.511E-01
RMM:   5    -0.413165772157E+03    0.13443E-01   -0.81879E-03  4624   0.835E-02    0.383E-02
RMM:   6    -0.413165824447E+03   -0.52290E-04   -0.10531E-03  5525   0.302E-02    0.256E-02
RMM:   7    -0.413165829626E+03   -0.51792E-05   -0.17910E-04  5390   0.130E-02    0.176E-02
RMM:   8    -0.413165825698E+03    0.39288E-05   -0.27833E-05  4412   0.668E-03    0.501E-03
RMM:   9    -0.413165826831E+03   -0.11336E-05   -0.50413E-06  2822   0.267E-03    0.323E-03
RMM:  10    -0.413165828568E+03   -0.17372E-05   -0.10385E-06  2502   0.154E-03    0.203E-03
RMM:  11    -0.413165829673E+03   -0.11044E-05   -0.65693E-07  2166   0.112E-03    0.887E-04
RMM:  12    -0.413165830647E+03   -0.97457E-06   -0.64258E-07  2241   0.108E-03
    9 T=    61. E= -.41286708E+03 F= -.41316583E+03 E0= -.41314342E+03  EK= 0.29875E+00 SP= 0.00E+00 SK= 0.00E+00
       N       E                     dE             d eps       ncg     rms          rms(c)
RMM:   1    -0.413178936596E+03   -0.13107E-01   -0.55009E+00  4288   0.482E-01    0.940E-01
RMM:   2    -0.413173232133E+03    0.57045E-02   -0.74684E-02  4215   0.727E-02    0.664E-01
RMM:   3    -0.413171853579E+03    0.13786E-02   -0.60149E-02  5099   0.908E-02    0.372E-01
RMM:   4    -0.413180607789E+03   -0.87542E-02   -0.24375E-02  5066   0.136E-01    0.525E-01
RMM:   5    -0.413165800094E+03    0.14808E-01   -0.81897E-03  4647   0.862E-02    0.387E-02
RMM:   6    -0.413165867104E+03   -0.67010E-04   -0.11513E-03  5593   0.320E-02    0.265E-02
RMM:   7    -0.413165856206E+03    0.10898E-04   -0.19914E-04  5451   0.137E-02    0.188E-02
RMM:   8    -0.413165856907E+03   -0.70122E-06   -0.31548E-05  4519   0.700E-03    0.580E-03
RMM:   9    -0.413165855781E+03    0.11264E-05   -0.61000E-06  2901   0.292E-03    0.341E-03
RMM:  10    -0.413165854638E+03    0.11426E-05   -0.11309E-06  2518   0.164E-03    0.219E-03
RMM:  11    -0.413165853310E+03    0.13281E-05   -0.70888E-07  2280   0.119E-03    0.102E-03
RMM:  12    -0.413165850599E+03    0.27118E-05   -0.80646E-07  2394   0.118E-03    0.637E-04
RMM:  13    -0.413165848969E+03    0.16300E-05   -0.28103E-07  1661   0.828E-04    0.405E-04
RMM:  14    -0.413165847412E+03    0.15564E-05   -0.17765E-07  1292   0.716E-04    0.166E-04
RMM:  15    -0.413165843907E+03    0.35047E-05   -0.28254E-07  1776   0.803E-04    0.315E-04
RMM:  16    -0.413165840637E+03    0.32700E-05   -0.21026E-07  1370   0.677E-04    0.215E-04
RMM:  17    -0.413165838921E+03    0.17161E-05   -0.10659E-07  1035   0.578E-04    0.138E-04
RMM:  18    -0.413165837428E+03    0.14937E-05   -0.75794E-08   948   0.565E-04    0.406E-05
RMM:  19    -0.413165837081E+03    0.34638E-06   -0.34153E-08   779   0.526E-04
   10 T=    61. E= -.41286677E+03 F= -.41316584E+03 E0= -.41314345E+03  EK= 0.29907E+00 SP= 0.00E+00 SK= 0.00E+00
       N       E                     dE             d eps       ncg     rms          rms(c)
RMM:   1    -0.413179466921E+03   -0.13629E-01   -0.55442E+00  4291   0.508E-01    0.918E-01
RMM:   2    -0.413174369235E+03    0.50977E-02   -0.77838E-02  4224   0.770E-02    0.663E-01
RMM:   3    -0.413172668623E+03    0.17006E-02   -0.62644E-02  5099   0.912E-02    0.395E-01
RMM:   4    -0.413182252876E+03   -0.95843E-02   -0.25393E-02  5067   0.138E-01    0.547E-01
RMM:   5    -0.413166500939E+03    0.15752E-01   -0.93276E-03  4656   0.895E-02    0.389E-02
RMM:   6    -0.413166578110E+03   -0.77172E-04   -0.12140E-03  5574   0.329E-02    0.256E-02
RMM:   7    -0.413166595006E+03   -0.16896E-04   -0.19901E-04  5398   0.147E-02    0.178E-02
RMM:   8    -0.413166598016E+03   -0.30103E-05   -0.31305E-05  4495   0.702E-03    0.549E-03
RMM:   9    -0.413166600337E+03   -0.23208E-05   -0.62383E-06  2921   0.287E-03    0.363E-03
RMM:  10    -0.413166603332E+03   -0.29952E-05   -0.11583E-06  2506   0.165E-03    0.232E-03
RMM:  11    -0.413166605551E+03   -0.22187E-05   -0.77448E-07  2266   0.121E-03    0.935E-04
RMM:  12    -0.413166607408E+03   -0.18569E-05   -0.59811E-07  2215   0.108E-03    0.515E-04
RMM:  13    -0.413166607649E+03   -0.24150E-06   -0.23907E-07  1535   0.799E-04
   11 T=    61. E= -.41286698E+03 F= -.41316661E+03 E0= -.41314425E+03  EK= 0.29963E+00 SP= 0.00E+00 SK= 0.00E+00
       N       E                     dE             d eps       ncg     rms          rms(c)
RMM:   1    -0.413179240754E+03   -0.12633E-01   -0.55824E+00  4293   0.497E-01    0.932E-01
RMM:   2    -0.413174283757E+03    0.49570E-02   -0.74544E-02  4227   0.762E-02    0.669E-01
RMM:   3    -0.413173451590E+03    0.83217E-03   -0.63871E-02  5117   0.945E-02    0.412E-01
RMM:   4    -0.413180147012E+03   -0.66954E-02   -0.23877E-02  5055   0.135E-01    0.515E-01
RMM:   5    -0.413166492202E+03    0.13655E-01   -0.84464E-03  4617   0.840E-02    0.383E-02
RMM:   6    -0.413166563654E+03   -0.71452E-04   -0.10924E-03  5532   0.304E-02    0.255E-02
RMM:   7    -0.413166591438E+03   -0.27784E-04   -0.18530E-04  5386   0.133E-02    0.178E-02
RMM:   8    -0.413166595359E+03   -0.39212E-05   -0.28759E-05  4430   0.681E-03    0.517E-03
RMM:   9    -0.413166597077E+03   -0.17175E-05   -0.52171E-06  2834   0.277E-03    0.345E-03
RMM:  10    -0.413166599481E+03   -0.24042E-05   -0.10625E-06  2506   0.158E-03    0.218E-03
RMM:  11    -0.413166601102E+03   -0.16204E-05   -0.71789E-07  2229   0.116E-03    0.903E-04
RMM:  12    -0.413166602329E+03   -0.12273E-05   -0.61930E-07  2188   0.107E-03    0.535E-04
RMM:  13    -0.413166602095E+03    0.23374E-06   -0.22570E-07  1451   0.775E-04
   12 T=    61. E= -.41286673E+03 F= -.41316660E+03 E0= -.41314427E+03  EK= 0.29987E+00 SP= 0.00E+00 SK= 0.00E+00
       N       E                     dE             d eps       ncg     rms          rms(c)
RMM:   1    -0.413180362447E+03   -0.13760E-01   -0.55282E+00  4293   0.494E-01    0.945E-01
RMM:   2    -0.413174469874E+03    0.58926E-02   -0.74932E-02  4264   0.675E-02    0.667E-01
RMM:   3    -0.413173850992E+03    0.61888E-03   -0.60487E-02  5146   0.910E-02    0.390E-01
RMM:   4    -0.413180795998E+03   -0.69450E-02   -0.24467E-02  5063   0.136E-01    0.508E-01
RMM:   5    -0.413167116680E+03    0.13679E-01   -0.76133E-03  4631   0.833E-02    0.388E-02
RMM:   6    -0.413167158357E+03   -0.41678E-04   -0.10763E-03  5541   0.304E-02    0.263E-02
RMM:   7    -0.413167174192E+03   -0.15835E-04   -0.18612E-04  5376   0.135E-02    0.186E-02
RMM:   8    -0.413167172513E+03    0.16795E-05   -0.28890E-05  4480   0.669E-03    0.555E-03
RMM:   9    -0.413167170856E+03    0.16568E-05   -0.52398E-06  2818   0.271E-03    0.328E-03
RMM:  10    -0.413167169149E+03    0.17068E-05   -0.10931E-06  2513   0.160E-03    0.207E-03
RMM:  11    -0.413167167157E+03    0.19925E-05   -0.72959E-07  2245   0.118E-03    0.910E-04
RMM:  12    -0.413167163559E+03    0.35977E-05   -0.71459E-07  2285   0.114E-03    0.570E-04
RMM:  13    -0.413167161219E+03    0.23395E-05   -0.25484E-07  1569   0.805E-04    0.355E-04
RMM:  14    -0.413167158770E+03    0.24488E-05   -0.16760E-07  1253   0.715E-04    0.151E-04
RMM:  15    -0.413167154310E+03    0.44601E-05   -0.22205E-07  1670   0.773E-04    0.288E-04
RMM:  16    -0.413167150287E+03    0.40235E-05   -0.16180E-07  1305   0.654E-04    0.179E-04
RMM:  17    -0.413167148380E+03    0.19066E-05   -0.81441E-08   973   0.559E-04    0.115E-04
RMM:  18    -0.413167146719E+03    0.16609E-05   -0.61705E-08   911   0.558E-04    0.350E-05
RMM:  19    -0.413167146320E+03    0.39963E-06   -0.28281E-08   723   0.522E-04
   13 T=    61. E= -.41286695E+03 F= -.41316715E+03 E0= -.41314485E+03  EK= 0.30020E+00 SP= 0.00E+00 SK= 0.00E+00
       N       E                     dE             d eps       ncg     rms          rms(c)
RMM:   1    -0.413180386276E+03   -0.13240E-01   -0.55271E+00  4293   0.502E-01    0.923E-01
RMM:   2    -0.413175340705E+03    0.50456E-02   -0.74037E-02  4265   0.672E-02    0.662E-01
RMM:   3    -0.413174771552E+03    0.56915E-03   -0.62704E-02  5136   0.917E-02    0.407E-01
RMM:   4    -0.413181470340E+03   -0.66988E-02   -0.24127E-02  5064   0.135E-01    0.514E-01
RMM:   5    -0.413167829511E+03    0.13641E-01   -0.83217E-03  4626   0.836E-02    0.382E-02
RMM:   6    -0.413167888376E+03   -0.58865E-04   -0.10884E-03  5537   0.303E-02    0.256E-02
RMM:   7    -0.413167903197E+03   -0.14821E-04   -0.18347E-04  5349   0.134E-02    0.179E-02
RMM:   8    -0.413167904289E+03   -0.10920E-05   -0.28087E-05  4442   0.645E-03    0.515E-03
RMM:   9    -0.413167905283E+03   -0.99350E-06   -0.50447E-06  2824   0.265E-03
   14 T=    61. E= -.41286733E+03 F= -.41316791E+03 E0= -.41314564E+03  EK= 0.30058E+00 SP= 0.00E+00 SK= 0.00E+00
       N       E                     dE             d eps       ncg     rms          rms(c)
RMM:   1    -0.413180496040E+03   -0.12592E-01   -0.56094E+00  4293   0.508E-01    0.928E-01
RMM:   2    -0.413175636651E+03    0.48594E-02   -0.74938E-02  4299   0.690E-02    0.669E-01
RMM:   3    -0.413180425243E+03   -0.47886E-02   -0.67850E-02  5154   0.115E-01    0.517E-01
RMM:   4    -0.413176958650E+03    0.34666E-02   -0.24368E-02  5010   0.139E-01    0.445E-01
RMM:   5    -0.413167901331E+03    0.90573E-02   -0.70897E-03  4465   0.714E-02    0.369E-02
RMM:   6    -0.413167928371E+03   -0.27040E-04   -0.66633E-04  5265   0.235E-02    0.244E-02
RMM:   7    -0.413167939756E+03   -0.11385E-04   -0.12768E-04  5052   0.112E-02    0.151E-02
RMM:   8    -0.413167944842E+03   -0.50859E-05   -0.20878E-05  3961   0.537E-03    0.367E-03
RMM:   9    -0.413167946612E+03   -0.17705E-05   -0.24985E-06  2563   0.204E-03    0.291E-03
RMM:  10    -0.413167948734E+03   -0.21222E-05   -0.95535E-07  2378   0.133E-03    0.151E-03
RMM:  11    -0.413167949540E+03   -0.80592E-06   -0.49571E-07  1702   0.937E-04
   15 T=    61. E= -.41286709E+03 F= -.41316795E+03 E0= -.41314572E+03  EK= 0.30086E+00 SP= 0.00E+00 SK= 0.00E+00
       N       E                     dE             d eps       ncg     rms          rms(c)
RMM:   1    -0.413182171976E+03   -0.14223E-01   -0.55551E+00  4296   0.505E-01    0.946E-01
RMM:   2    -0.413176541417E+03    0.56306E-02   -0.75290E-02  4259   0.738E-02    0.669E-01
RMM:   3    -0.413175810299E+03    0.73112E-03   -0.61095E-02  5093   0.958E-02    0.393E-01
RMM:   4    -0.413182637614E+03   -0.68273E-02   -0.24375E-02  5054   0.136E-01    0.509E-01
RMM:   5    -0.413168944105E+03    0.13694E-01   -0.77252E-03  4623   0.835E-02    0.384E-02
RMM:   6    -0.413169003764E+03   -0.59659E-04   -0.10904E-03  5579   0.303E-02    0.264E-02
RMM:   7    -0.413169007638E+03   -0.38739E-05   -0.18653E-04  5380   0.135E-02    0.186E-02
RMM:   8    -0.413169004092E+03    0.35466E-05   -0.28748E-05  4462   0.669E-03    0.555E-03
RMM:   9    -0.413169002197E+03    0.18949E-05   -0.52496E-06  2835   0.278E-03    0.329E-03
RMM:  10    -0.413168999974E+03    0.22228E-05   -0.11376E-06  2519   0.163E-03    0.210E-03
RMM:  11    -0.413168997358E+03    0.26158E-05   -0.73799E-07  2234   0.119E-03    0.944E-04
RMM:  12    -0.413168992554E+03    0.48044E-05   -0.78648E-07  2315   0.119E-03    0.602E-04
RMM:  13    -0.413168989096E+03    0.34577E-05   -0.27582E-07  1579   0.817E-04    0.376E-04
RMM:  14    -0.413168986363E+03    0.27337E-05   -0.15341E-07  1176   0.695E-04    0.158E-04
RMM:  15    -0.413168980468E+03    0.58945E-05   -0.21611E-07  1569   0.769E-04    0.301E-04
RMM:  16    -0.413168975332E+03    0.51355E-05   -0.15543E-07  1308   0.666E-04    0.211E-04
RMM:  17    -0.413168973545E+03    0.17872E-05   -0.67993E-08   935   0.551E-04    0.132E-04
RMM:  18    -0.413168971364E+03    0.21811E-05   -0.57792E-08   935   0.562E-04    0.298E-05
RMM:  19    -0.413168971057E+03    0.30699E-06   -0.24426E-08   693   0.519E-04
   16 T=    61. E= -.41286734E+03 F= -.41316897E+03 E0= -.41314677E+03  EK= 0.30163E+00 SP= 0.00E+00 SK= 0.00E+00
       N       E                     dE             d eps       ncg     rms          rms(c)
RMM:   1    -0.413182044558E+03   -0.13073E-01   -0.55378E+00  4297   0.512E-01    0.929E-01
RMM:   2    -0.413177120337E+03    0.49242E-02   -0.74696E-02  4256   0.765E-02    0.663E-01
RMM:   3    -0.413176320913E+03    0.79942E-03   -0.62063E-02  5071   0.967E-02    0.401E-01
RMM:   4    -0.413183189125E+03   -0.68682E-02   -0.24294E-02  5046   0.136E-01    0.515E-01
RMM:   5    -0.413169281828E+03    0.13907E-01   -0.81703E-03  4622   0.841E-02    0.384E-02
RMM:   6    -0.413169346600E+03   -0.64771E-04   -0.11071E-03  5583   0.304E-02    0.261E-02
RMM:   7    -0.413169379791E+03   -0.33191E-04   -0.18726E-04  5376   0.134E-02    0.182E-02
RMM:   8    -0.413169381302E+03   -0.15107E-05   -0.28900E-05  4431   0.704E-03    0.535E-03
RMM:   9    -0.413169381142E+03    0.16003E-06   -0.56092E-06  2853   0.283E-03
   17 T=    62. E= -.41286712E+03 F= -.41316938E+03 E0= -.41314722E+03  EK= 0.30226E+00 SP= 0.00E+00 SK= 0.00E+00
       N       E                     dE             d eps       ncg     rms          rms(c)
RMM:   1    -0.413182327378E+03   -0.12946E-01   -0.56427E+00  4297   0.521E-01    0.927E-01
RMM:   2    -0.413177921613E+03    0.44058E-02   -0.75219E-02  4288   0.754E-02    0.670E-01
RMM:   3    -0.413182221571E+03   -0.43000E-02   -0.68097E-02  5125   0.118E-01    0.517E-01
RMM:   4    -0.413179111697E+03    0.31099E-02   -0.24374E-02  5001   0.139E-01    0.449E-01
RMM:   5    -0.413169885499E+03    0.92262E-02   -0.72660E-03  4469   0.724E-02    0.369E-02
RMM:   6    -0.413169913925E+03   -0.28426E-04   -0.68500E-04  5300   0.237E-02    0.244E-02
RMM:   7    -0.413169916774E+03   -0.28491E-05   -0.13191E-04  5040   0.116E-02    0.152E-02
RMM:   8    -0.413169916796E+03   -0.22501E-07   -0.21437E-05  3944   0.614E-03    0.364E-03
RMM:   9    -0.413169918154E+03   -0.13576E-05   -0.29004E-06  2595   0.216E-03    0.291E-03
RMM:  10    -0.413169919663E+03   -0.15087E-05   -0.10003E-06  2405   0.138E-03    0.155E-03
RMM:  11    -0.413169920018E+03   -0.35560E-06   -0.51102E-07  1708   0.958E-04
   18 T=    62. E= -.41286699E+03 F= -.41316992E+03 E0= -.41314780E+03  EK= 0.30293E+00 SP= 0.00E+00 SK= 0.00E+00
       N       E                     dE             d eps       ncg     rms          rms(c)
RMM:   1    -0.413184352939E+03   -0.14433E-01   -0.55992E+00  4298   0.520E-01    0.947E-01
RMM:   2    -0.413178720789E+03    0.56322E-02   -0.75560E-02  4278   0.713E-02    0.671E-01
RMM:   3    -0.413177835278E+03    0.88551E-03   -0.61552E-02  5114   0.922E-02    0.393E-01
RMM:   4    -0.413185309875E+03   -0.74746E-02   -0.24780E-02  5064   0.137E-01    0.518E-01
RMM:   5    -0.413171068298E+03    0.14242E-01   -0.80316E-03  4627   0.845E-02    0.386E-02
RMM:   6    -0.413171132991E+03   -0.64692E-04   -0.11332E-03  5594   0.308E-02    0.265E-02
RMM:   7    -0.413171148403E+03   -0.15412E-04   -0.19187E-04  5377   0.141E-02    0.188E-02
RMM:   8    -0.413171148968E+03   -0.56503E-06   -0.29926E-05  4493   0.718E-03    0.556E-03
RMM:   9    -0.413171146881E+03    0.20867E-05   -0.59444E-06  2881   0.291E-03    0.334E-03
RMM:  10    -0.413171144781E+03    0.20999E-05   -0.11317E-06  2519   0.165E-03    0.213E-03
RMM:  11    -0.413171142313E+03    0.24686E-05   -0.73095E-07  2245   0.118E-03    0.983E-04
RMM:  12    -0.413171137417E+03    0.48955E-05   -0.81807E-07  2341   0.120E-03    0.633E-04
RMM:  13    -0.413171133846E+03    0.35710E-05   -0.27941E-07  1567   0.814E-04    0.370E-04
RMM:  14    -0.413171131367E+03    0.24795E-05   -0.14776E-07  1152   0.678E-04    0.158E-04
RMM:  15    -0.413171124432E+03    0.69342E-05   -0.21985E-07  1395   0.756E-04    0.274E-04
RMM:  16    -0.413171119449E+03    0.49832E-05   -0.13593E-07  1286   0.669E-04    0.241E-04
RMM:  17    -0.413171118588E+03    0.86164E-06   -0.56296E-08   861   0.549E-04
   19 T=    62. E= -.41286733E+03 F= -.41317112E+03 E0= -.41314904E+03  EK= 0.30379E+00 SP= 0.00E+00 SK= 0.00E+00
       N       E                     dE             d eps       ncg     rms          rms(c)
RMM:   1    -0.413184480052E+03   -0.13361E-01   -0.55700E+00  4294   0.524E-01    0.937E-01
RMM:   2    -0.413178893923E+03    0.55861E-02   -0.75318E-02  4282   0.708E-02    0.666E-01
RMM:   3    -0.413178223457E+03    0.67047E-03   -0.61268E-02  5128   0.915E-02    0.393E-01
RMM:   4    -0.413185723069E+03   -0.74996E-02   -0.24917E-02  5055   0.137E-01    0.519E-01
RMM:   5    -0.413171464047E+03    0.14259E-01   -0.80781E-03  4627   0.848E-02    0.388E-02
RMM:   6    -0.413171527755E+03   -0.63708E-04   -0.11417E-03  5598   0.308E-02    0.263E-02
RMM:   7    -0.413171531220E+03   -0.34650E-05   -0.19155E-04  5378   0.137E-02    0.188E-02
RMM:   8    -0.413171533964E+03   -0.27438E-05   -0.30142E-05  4501   0.675E-03    0.564E-03
RMM:   9    -0.413171533303E+03    0.66149E-06   -0.58152E-06  2875   0.278E-03
   20 T=    62. E= -.41286724E+03 F= -.41317153E+03 E0= -.41314950E+03  EK= 0.30429E+00 SP= 0.00E+00 SK= 0.00E+00
       N       E                     dE             d eps       ncg     rms          rms(c)
RMM:   1    -0.413185140054E+03   -0.13606E-01   -0.56618E+00  4302   0.532E-01    0.927E-01
RMM:   2    -0.413180397351E+03    0.47427E-02   -0.75386E-02  4303   0.724E-02    0.670E-01
RMM:   3    -0.413185062992E+03   -0.46656E-02   -0.67957E-02  5153   0.115E-01    0.514E-01
RMM:   4    -0.413182165664E+03    0.28973E-02   -0.24676E-02  5007   0.139E-01    0.452E-01
RMM:   5    -0.413172681946E+03    0.94837E-02   -0.72539E-03  4466   0.729E-02    0.370E-02
RMM:   6    -0.413172702801E+03   -0.20855E-04   -0.70666E-04  5322   0.240E-02    0.246E-02
RMM:   7    -0.413172715307E+03   -0.12506E-04   -0.13517E-04  5053   0.117E-02    0.156E-02
RMM:   8    -0.413172723990E+03   -0.86824E-05   -0.22913E-05  4028   0.647E-03    0.370E-03
RMM:   9    -0.413172725001E+03   -0.10109E-05   -0.29019E-06  2610   0.220E-03    0.294E-03
RMM:  10    -0.413172725592E+03   -0.59108E-06   -0.99138E-07  2416   0.137E-03
   21 T=    62. E= -.41286764E+03 F= -.41317273E+03 E0= -.41315074E+03  EK= 0.30508E+00 SP= 0.00E+00 SK= 0.00E+00
       N       E                     dE             d eps       ncg     rms          rms(c)
RMM:   1    -0.413186799003E+03   -0.14074E-01   -0.56481E+00  4294   0.531E-01    0.944E-01
RMM:   2    -0.413181347718E+03    0.54513E-02   -0.76041E-02  4287   0.740E-02    0.673E-01
RMM:   3    -0.413181093087E+03    0.25463E-03   -0.62841E-02  5121   0.949E-02    0.409E-01
RMM:   4    -0.413187472673E+03   -0.63796E-02   -0.24753E-02  5054   0.137E-01    0.513E-01
RMM:   5    -0.413173700818E+03    0.13772E-01   -0.79989E-03  4613   0.842E-02    0.388E-02
RMM:   6    -0.413173765650E+03   -0.64832E-04   -0.11119E-03  5574   0.300E-02    0.260E-02
RMM:   7    -0.413173793406E+03   -0.27755E-04   -0.18783E-04  5332   0.141E-02    0.185E-02
RMM:   8    -0.413173795199E+03   -0.17930E-05   -0.30260E-05  4446   0.746E-03    0.540E-03
RMM:   9    -0.413173793283E+03    0.19156E-05   -0.61183E-06  2894   0.282E-03    0.331E-03
RMM:  10    -0.413173791410E+03    0.18736E-05   -0.10976E-06  2520   0.162E-03    0.212E-03
RMM:  11    -0.413173788967E+03    0.24426E-05   -0.75226E-07  2240   0.118E-03    0.928E-04
RMM:  12    -0.413173784412E+03    0.45545E-05   -0.76191E-07  2244   0.114E-03    0.579E-04
RMM:  13    -0.413173780580E+03    0.38325E-05   -0.28053E-07  1509   0.798E-04    0.329E-04
RMM:  14    -0.413173777189E+03    0.33912E-05   -0.16020E-07  1146   0.682E-04    0.161E-04
RMM:  15    -0.413173769882E+03    0.73065E-05   -0.21432E-07  1353   0.734E-04    0.261E-04
RMM:  16    -0.413173764162E+03    0.57199E-05   -0.14439E-07  1285   0.671E-04    0.193E-04
RMM:  17    -0.413173763012E+03    0.11506E-05   -0.58575E-08   863   0.556E-04    0.138E-04
RMM:  18    -0.413173760047E+03    0.29643E-05   -0.56060E-08   991   0.575E-04    0.535E-05
RMM:  19    -0.413173759235E+03    0.81251E-06   -0.26591E-08   757   0.533E-04
   22 T=    62. E= -.41286772E+03 F= -.41317376E+03 E0= -.41315182E+03  EK= 0.30604E+00 SP= 0.00E+00 SK= 0.00E+00
       N       E                     dE             d eps       ncg     rms          rms(c)
RMM:   1    -0.413187737054E+03   -0.13977E-01   -0.56197E+00  4289   0.536E-01    0.945E-01
RMM:   2    -0.413182057860E+03    0.56792E-02   -0.76145E-02  4286   0.772E-02    0.670E-01
RMM:   3    -0.413180757724E+03    0.13001E-02   -0.60743E-02  5076   0.923E-02    0.377E-01
RMM:   4    -0.413189786542E+03   -0.90288E-02   -0.25237E-02  5057   0.138E-01    0.533E-01
RMM:   5    -0.413174482449E+03    0.15304E-01   -0.83564E-03  4645   0.879E-02    0.391E-02
RMM:   6    -0.413174568474E+03   -0.86024E-04   -0.12196E-03  5650   0.320E-02    0.267E-02
RMM:   7    -0.413174575715E+03   -0.72412E-05   -0.20414E-04  5409   0.142E-02    0.193E-02
RMM:   8    -0.413174573819E+03    0.18953E-05   -0.32388E-05  4566   0.716E-03    0.606E-03
RMM:   9    -0.413174572199E+03    0.16203E-05   -0.66466E-06  2937   0.312E-03    0.342E-03
RMM:  10    -0.413174570627E+03    0.15727E-05   -0.12323E-06  2533   0.171E-03    0.221E-03
RMM:  11    -0.413174568594E+03    0.20327E-05   -0.79277E-07  2345   0.123E-03    0.105E-03
RMM:  12    -0.413174564448E+03    0.41457E-05   -0.89885E-07  2405   0.123E-03    0.667E-04
RMM:  13    -0.413174561753E+03    0.26950E-05   -0.28394E-07  1609   0.814E-04    0.366E-04
RMM:  14    -0.413174559828E+03    0.19247E-05   -0.14543E-07  1152   0.669E-04    0.159E-04
RMM:  15    -0.413174554362E+03    0.54663E-05   -0.16089E-07  1220   0.703E-04    0.202E-04
RMM:  16    -0.413174549940E+03    0.44222E-05   -0.10705E-07  1062   0.642E-04    0.168E-04
RMM:  17    -0.413174548047E+03    0.18931E-05   -0.56469E-08   904   0.588E-04    0.120E-04
RMM:  18    -0.413174544819E+03    0.32278E-05   -0.55176E-08  1022   0.594E-04    0.695E-05
RMM:  19    -0.413174544136E+03    0.68274E-06   -0.25295E-08   738   0.541E-04
   23 T=    63. E= -.41286743E+03 F= -.41317454E+03 E0= -.41315265E+03  EK= 0.30711E+00 SP= 0.00E+00 SK= 0.00E+00
       N       E                     dE             d eps       ncg     rms          rms(c)
RMM:   1    -0.413188766430E+03   -0.14222E-01   -0.56903E+00  4289   0.545E-01    0.930E-01
RMM:   2    -0.413183925494E+03    0.48409E-02   -0.76288E-02  4295   0.810E-02    0.671E-01
RMM:   3    -0.413182421964E+03    0.15035E-02   -0.63960E-02  5053   0.952E-02    0.396E-01
RMM:   4    -0.413191776995E+03   -0.93550E-02   -0.24743E-02  5054   0.137E-01    0.546E-01
RMM:   5    -0.413175994405E+03    0.15783E-01   -0.93205E-03  4662   0.902E-02    0.387E-02
RMM:   6    -0.413176082964E+03   -0.88558E-04   -0.12655E-03  5693   0.324E-02    0.258E-02
RMM:   7    -0.413176108275E+03   -0.25311E-04   -0.20971E-04  5390   0.149E-02    0.185E-02
RMM:   8    -0.413176114167E+03   -0.58919E-05   -0.34439E-05  4493   0.804E-03    0.572E-03
RMM:   9    -0.413176115798E+03   -0.16305E-05   -0.80259E-06  3013   0.315E-03    0.362E-03
RMM:  10    -0.413176117415E+03   -0.16171E-05   -0.11838E-06  2520   0.171E-03    0.235E-03
RMM:  11    -0.413176118193E+03   -0.77816E-06   -0.74582E-07  2339   0.122E-03
   24 T=    63. E= -.41286764E+03 F= -.41317612E+03 E0= -.41315427E+03  EK= 0.30848E+00 SP= 0.00E+00 SK= 0.00E+00
       N       E                     dE             d eps       ncg     rms          rms(c)
RMM:   1    -0.413190207655E+03   -0.14090E-01   -0.57324E+00  4293   0.546E-01    0.944E-01
RMM:   2    -0.413185200578E+03    0.50071E-02   -0.77123E-02  4293   0.797E-02    0.677E-01
RMM:   3    -0.413182289528E+03    0.29110E-02   -0.62930E-02  5034   0.912E-02    0.368E-01
RMM:   4    -0.413194429428E+03   -0.12140E-01   -0.24826E-02  5075   0.137E-01    0.566E-01
RMM:   5    -0.413177047319E+03    0.17382E-01   -0.96841E-03  4691   0.935E-02    0.386E-02
RMM:   6    -0.413177160368E+03   -0.11305E-03   -0.14232E-03  5752   0.347E-02    0.263E-02
RMM:   7    -0.413177175843E+03   -0.15474E-04   -0.22422E-04  5448   0.152E-02    0.195E-02
RMM:   8    -0.413177171083E+03    0.47593E-05   -0.38628E-05  4646   0.789E-03    0.691E-03
RMM:   9    -0.413177169919E+03    0.11646E-05   -0.88716E-06  3139   0.356E-03    0.414E-03
RMM:  10    -0.413177169362E+03    0.55633E-06   -0.13931E-06  2541   0.189E-03
   25 T=    63. E= -.41286742E+03 F= -.41317717E+03 E0= -.41315537E+03  EK= 0.30975E+00 SP= 0.00E+00 SK= 0.00E+00
       N       E                     dE             d eps       ncg     rms          rms(c)
RMM:   1    -0.413192040274E+03   -0.14870E-01   -0.57000E+00  4291   0.548E-01    0.955E-01
RMM:   2    -0.413186348628E+03    0.56916E-02   -0.77596E-02  4311   0.785E-02    0.676E-01
RMM:   3    -0.413187411610E+03   -0.10630E-02   -0.62531E-02  5080   0.111E-01    0.432E-01
RMM:   4    -0.413190931514E+03   -0.35199E-02   -0.25058E-02  5027   0.140E-01    0.487E-01
RMM:   5    -0.413178565254E+03    0.12366E-01   -0.69525E-03  4571   0.807E-02    0.386E-02
RMM:   6    -0.413178598769E+03   -0.33515E-04   -0.96602E-04  5542   0.285E-02    0.265E-02
RMM:   7    -0.413178601893E+03   -0.31238E-05   -0.17349E-04  5197   0.140E-02    0.186E-02
RMM:   8    -0.413178600423E+03    0.14700E-05   -0.27601E-05  4287   0.756E-03    0.507E-03
RMM:   9    -0.413178597329E+03    0.30944E-05   -0.60210E-06  2855   0.281E-03    0.305E-03
RMM:  10    -0.413178593380E+03    0.39491E-05   -0.11266E-06  2521   0.162E-03    0.194E-03
RMM:  11    -0.413178589531E+03    0.38483E-05   -0.70510E-07  2161   0.115E-03    0.916E-04
RMM:  12    -0.413178582137E+03    0.73944E-05   -0.84464E-07  2291   0.118E-03    0.533E-04
RMM:  13    -0.413178577061E+03    0.50760E-05   -0.32960E-07  1486   0.807E-04    0.391E-04
RMM:  14    -0.413178571549E+03    0.55123E-05   -0.19911E-07  1203   0.705E-04    0.170E-04
RMM:  15    -0.413178564908E+03    0.66408E-05   -0.15580E-07  1191   0.680E-04    0.226E-04
RMM:  16    -0.413178555219E+03    0.96884E-05   -0.18732E-07  1388   0.711E-04    0.181E-04
RMM:  17    -0.413178554442E+03    0.77716E-06   -0.57103E-08   868   0.562E-04
   26 T=    63. E= -.41286738E+03 F= -.41317855E+03 E0= -.41315681E+03  EK= 0.31118E+00 SP= 0.00E+00 SK= 0.00E+00
       N       E                     dE             d eps       ncg     rms          rms(c)
RMM:   1    -0.413193194134E+03   -0.14639E-01   -0.57372E+00  4289   0.558E-01    0.935E-01
RMM:   2    -0.413188229736E+03    0.49644E-02   -0.77333E-02  4291   0.779E-02    0.673E-01
RMM:   3    -0.413186058277E+03    0.21715E-02   -0.63062E-02  5075   0.919E-02    0.380E-01
RMM:   4    -0.413197194300E+03   -0.11136E-01   -0.25329E-02  5065   0.138E-01    0.562E-01
RMM:   5    -0.413180266545E+03    0.16928E-01   -0.95260E-03  4668   0.928E-02    0.392E-02
RMM:   6    -0.413180370851E+03   -0.10431E-03   -0.13699E-03  5720   0.340E-02    0.263E-02
RMM:   7    -0.413180392548E+03   -0.21697E-04   -0.21982E-04  5442   0.147E-02    0.195E-02
RMM:   8    -0.413180391826E+03    0.72268E-06   -0.35495E-05  4625   0.744E-03    0.648E-03
RMM:   9    -0.413180391813E+03    0.12362E-07   -0.75995E-06  3051   0.325E-03
   27 T=    64. E= -.41286770E+03 F= -.41318039E+03 E0= -.41315869E+03  EK= 0.31269E+00 SP= 0.00E+00 SK= 0.00E+00
       N       E                     dE             d eps       ncg     rms          rms(c)
RMM:   1    -0.413194422170E+03   -0.14030E-01   -0.58251E+00  4300   0.563E-01    0.945E-01
RMM:   2    -0.413189550854E+03    0.48713E-02   -0.78150E-02  4329   0.790E-02    0.681E-01
RMM:   3    -0.413194136231E+03   -0.45854E-02   -0.68370E-02  5139   0.120E-01    0.514E-01
RMM:   4    -0.413191625385E+03    0.25108E-02   -0.25535E-02  5007   0.142E-01    0.461E-01
RMM:   5    -0.413181578508E+03    0.10047E-01   -0.71855E-03  4467   0.758E-02    0.377E-02
RMM:   6    -0.413181598361E+03   -0.19853E-04   -0.76616E-04  5407   0.251E-02    0.249E-02
RMM:   7    -0.413181608189E+03   -0.98273E-05   -0.14678E-04  5053   0.127E-02    0.167E-02
RMM:   8    -0.413181615905E+03   -0.77162E-05   -0.23850E-05  4157   0.652E-03    0.412E-03
RMM:   9    -0.413181615952E+03   -0.46632E-07   -0.35836E-06  2667   0.231E-03
   28 T=    64. E= -.41286761E+03 F= -.41318162E+03 E0= -.41315997E+03  EK= 0.31400E+00 SP= 0.00E+00 SK= 0.00E+00
       N       E                     dE             d eps       ncg     rms          rms(c)
RMM:   1    -0.413197278285E+03   -0.15662E-01   -0.57879E+00  4295   0.567E-01    0.962E-01
RMM:   2    -0.413191313131E+03    0.59652E-02   -0.79304E-02  4299   0.804E-02    0.681E-01
RMM:   3    -0.413191530714E+03   -0.21758E-03   -0.62048E-02  5104   0.101E-01    0.411E-01
RMM:   4    -0.413197617546E+03   -0.60868E-02   -0.26045E-02  5039   0.141E-01    0.513E-01
RMM:   5    -0.413183578516E+03    0.14039E-01   -0.75618E-03  4603   0.848E-02    0.395E-02
RMM:   6    -0.413183639858E+03   -0.61342E-04   -0.11424E-03  5635   0.306E-02    0.267E-02
RMM:   7    -0.413183661363E+03   -0.21505E-04   -0.19407E-04  5328   0.140E-02    0.194E-02
RMM:   8    -0.413183663651E+03   -0.22873E-05   -0.30841E-05  4493   0.754E-03    0.591E-03
RMM:   9    -0.413183659896E+03    0.37544E-05   -0.60860E-06  2876   0.296E-03    0.330E-03
RMM:  10    -0.413183655331E+03    0.45657E-05   -0.11239E-06  2520   0.165E-03    0.208E-03
RMM:  11    -0.413183650515E+03    0.48157E-05   -0.75217E-07  2273   0.120E-03    0.971E-04
RMM:  12    -0.413183642225E+03    0.82901E-05   -0.83246E-07  2330   0.118E-03    0.592E-04
RMM:  13    -0.413183636706E+03    0.55186E-05   -0.31443E-07  1601   0.824E-04    0.403E-04
RMM:  14    -0.413183632365E+03    0.43416E-05   -0.16104E-07  1151   0.680E-04    0.181E-04
RMM:  15    -0.413183622999E+03    0.93658E-05   -0.18794E-07  1301   0.721E-04    0.242E-04
RMM:  16    -0.413183613678E+03    0.93208E-05   -0.15795E-07  1390   0.697E-04    0.218E-04
RMM:  17    -0.413183612496E+03    0.11823E-05   -0.55005E-08   881   0.551E-04    0.172E-04
RMM:  18    -0.413183609139E+03    0.33565E-05   -0.48242E-08   983   0.567E-04    0.796E-05
RMM:  19    -0.413183608317E+03    0.82194E-06   -0.25769E-08   801   0.527E-04
   29 T=    64. E= -.41286790E+03 F= -.41318361E+03 E0= -.41316201E+03  EK= 0.31571E+00 SP= 0.00E+00 SK= 0.00E+00
       N       E                     dE             d eps       ncg     rms          rms(c)
RMM:   1    -0.413198616555E+03   -0.15007E-01   -0.58016E+00  4297   0.581E-01    0.944E-01
RMM:   2    -0.413193468619E+03    0.51479E-02   -0.78705E-02  4272   0.815E-02    0.677E-01
RMM:   3    -0.413190343536E+03    0.31251E-02   -0.62235E-02  5035   0.897E-02    0.358E-01
RMM:   4    -0.413203945107E+03   -0.13602E-01   -0.26397E-02  5077   0.140E-01    0.583E-01
RMM:   5    -0.413185288968E+03    0.18656E-01   -0.10220E-02  4693   0.979E-02    0.396E-02
RMM:   6    -0.413185401557E+03   -0.11259E-03   -0.15241E-03  5769   0.363E-02    0.268E-02
RMM:   7    -0.413185427897E+03   -0.26340E-04   -0.23502E-04  5480   0.153E-02    0.201E-02
RMM:   8    -0.413185433594E+03   -0.56968E-05   -0.41111E-05  4714   0.804E-03    0.763E-03
RMM:   9    -0.413185433050E+03    0.54402E-06   -0.94039E-06  3229   0.364E-03
   30 T=    65. E= -.41286785E+03 F= -.41318543E+03 E0= -.41316389E+03  EK= 0.31758E+00 SP= 0.00E+00 SK= 0.00E+00
       N       E                     dE             d eps       ncg     rms          rms(c)
RMM:   1    -0.413202119387E+03   -0.16686E-01   -0.59494E+00  4303   0.624E-01    0.948E-01
RMM:   2    -0.413195695475E+03    0.64239E-02   -0.80135E-02  4308   0.926E-02    0.686E-01
RMM:   3    -0.413198639508E+03   -0.29440E-02   -0.69072E-02  5081   0.122E-01    0.500E-01
RMM:   4    -0.413198213603E+03    0.42590E-03   -0.25792E-02  5002   0.142E-01    0.482E-01
RMM:   5    -0.413186993843E+03    0.11220E-01   -0.77281E-03  4503   0.795E-02    0.383E-02
RMM:   6    -0.413187047621E+03   -0.53778E-04   -0.87770E-04  5475   0.268E-02    0.251E-02
RMM:   7    -0.413187070617E+03   -0.22996E-04   -0.16119E-04  5119   0.131E-02    0.171E-02
RMM:   8    -0.413187078767E+03   -0.81501E-05   -0.27149E-05  4338   0.716E-03    0.455E-03
RMM:   9    -0.413187078667E+03    0.10013E-06   -0.43762E-06  2739   0.266E-03
   31 T=    65. E= -.41286756E+03 F= -.41318708E+03 E0= -.41316558E+03  EK= 0.31952E+00 SP= 0.00E+00 SK= 0.00E+00
       N       E                     dE             d eps       ncg     rms          rms(c)
RMM:   1    -0.413204730830E+03   -0.17652E-01   -0.59141E+00  4302   0.601E-01    0.968E-01
RMM:   2    -0.413197948318E+03    0.67825E-02   -0.82302E-02  4296   0.954E-02    0.687E-01
RMM:   3    -0.413197737136E+03    0.21118E-03   -0.62886E-02  5049   0.114E-01    0.418E-01
RMM:   4    -0.413204217983E+03   -0.64808E-02   -0.26756E-02  5036   0.143E-01    0.524E-01
RMM:   5    -0.413189532534E+03    0.14685E-01   -0.79358E-03  4600   0.877E-02    0.396E-02
RMM:   6    -0.413189611066E+03   -0.78532E-04   -0.11973E-03  5653   0.318E-02    0.272E-02
RMM:   7    -0.413189631365E+03   -0.20299E-04   -0.20282E-04  5282   0.149E-02    0.197E-02
RMM:   8    -0.413189632452E+03   -0.10867E-05   -0.32711E-05  4493   0.774E-03    0.616E-03
RMM:   9    -0.413189628105E+03    0.43469E-05   -0.70140E-06  2934   0.316E-03    0.348E-03
RMM:  10    -0.413189623593E+03    0.45122E-05   -0.11816E-06  2521   0.174E-03    0.224E-03
RMM:  11    -0.413189618384E+03    0.52086E-05   -0.79530E-07  2348   0.127E-03    0.104E-03
RMM:  12    -0.413189609946E+03    0.84384E-05   -0.78284E-07  2327   0.118E-03    0.611E-04
RMM:  13    -0.413189606200E+03    0.37457E-05   -0.25503E-07  1609   0.810E-04    0.423E-04
RMM:  14    -0.413189600657E+03    0.55431E-05   -0.16336E-07  1161   0.694E-04    0.178E-04
RMM:  15    -0.413189590391E+03    0.10266E-04   -0.19881E-07  1409   0.731E-04    0.280E-04
RMM:  16    -0.413189582006E+03    0.83852E-05   -0.12917E-07  1299   0.673E-04    0.197E-04
RMM:  17    -0.413189578749E+03    0.32568E-05   -0.66530E-08  1041   0.582E-04    0.140E-04
RMM:  18    -0.413189575354E+03    0.33942E-05   -0.50766E-08  1059   0.574E-04    0.461E-05
RMM:  19    -0.413189574893E+03    0.46096E-06   -0.21203E-08   717   0.510E-04
   32 T=    66. E= -.41286778E+03 F= -.41318957E+03 E0= -.41316812E+03  EK= 0.32180E+00 SP= 0.00E+00 SK= 0.00E+00
       N       E                     dE             d eps       ncg     rms          rms(c)
RMM:   1    -0.413205568552E+03   -0.15993E-01   -0.59091E+00  4300   0.613E-01    0.957E-01
RMM:   2    -0.413199628181E+03    0.59404E-02   -0.81981E-02  4273   0.100E-01    0.684E-01
RMM:   3    -0.413195474279E+03    0.41539E-02   -0.61370E-02  4967   0.961E-02    0.328E-01
RMM:   4    -0.413212410063E+03   -0.16936E-01   -0.27336E-02  5091   0.143E-01    0.614E-01
RMM:   5    -0.413191141458E+03    0.21269E-01   -0.11099E-02  4728   0.104E-01    0.406E-02
RMM:   6    -0.413191298340E+03   -0.15688E-03   -0.17679E-03  5793   0.396E-02    0.276E-02
RMM:   7    -0.413191348906E+03   -0.50567E-04   -0.25146E-04  5466   0.167E-02    0.203E-02
RMM:   8    -0.413191357532E+03   -0.86256E-05   -0.51430E-05  4779   0.899E-03    0.874E-03
RMM:   9    -0.413191356375E+03    0.11566E-05   -0.12743E-05  3515   0.433E-03    0.491E-03
RMM:  10    -0.413191355046E+03    0.13289E-05   -0.19190E-06  2582   0.228E-03    0.317E-03
RMM:  11    -0.413191352628E+03    0.24184E-05   -0.11717E-06  2507   0.163E-03    0.150E-03
RMM:  12    -0.413191348673E+03    0.39547E-05   -0.10829E-06  2453   0.150E-03    0.101E-03
RMM:  13    -0.413191346542E+03    0.21315E-05   -0.33211E-07  2020   0.965E-04    0.568E-04
RMM:  14    -0.413191345218E+03    0.13235E-05   -0.16824E-07  1341   0.717E-04    0.294E-04
RMM:  15    -0.413191339554E+03    0.56645E-05   -0.16656E-07  1477   0.739E-04    0.246E-04
RMM:  16    -0.413191336212E+03    0.33423E-05   -0.88139E-08  1062   0.629E-04    0.205E-04
RMM:  17    -0.413191330270E+03    0.59411E-05   -0.95084E-08  1212   0.645E-04    0.204E-04
RMM:  18    -0.413191327622E+03    0.26483E-05   -0.50150E-08   924   0.572E-04    0.666E-05
RMM:  19    -0.413191326123E+03    0.14989E-05   -0.31752E-08   852   0.556E-04    0.231E-05
RMM:  20    -0.413191325737E+03    0.38627E-06   -0.19409E-08   734   0.536E-04
   33 T=    66. E= -.41286742E+03 F= -.41319133E+03 E0= -.41316992E+03  EK= 0.32391E+00 SP= 0.00E+00 SK= 0.00E+00
       N       E                     dE             d eps       ncg     rms          rms(c)
RMM:   1    -0.413206947065E+03   -0.15621E-01   -0.60382E+00  4302   0.628E-01    0.954E-01
RMM:   2    -0.413202064644E+03    0.48824E-02   -0.82323E-02  4263   0.997E-02    0.691E-01
RMM:   3    -0.413197722015E+03    0.43426E-02   -0.65326E-02  4931   0.947E-02    0.349E-01
RMM:   4    -0.413214318824E+03   -0.16597E-01   -0.25954E-02  5103   0.139E-01    0.610E-01
RMM:   5    -0.413193519003E+03    0.20800E-01   -0.11338E-02  4736   0.103E-01    0.398E-02
RMM:   6    -0.413193671932E+03   -0.15293E-03   -0.17084E-03  5788   0.391E-02    0.260E-02
RMM:   7    -0.413193709773E+03   -0.37842E-04   -0.22663E-04  5506   0.158E-02    0.183E-02
RMM:   8    -0.413193716070E+03   -0.62966E-05   -0.52454E-05  4865   0.845E-03    0.833E-03
RMM:   9    -0.413193716181E+03   -0.11113E-06   -0.11353E-05  3602   0.423E-03    0.500E-03
RMM:  10    -0.413193717710E+03   -0.15291E-05   -0.17767E-06  2568   0.224E-03    0.322E-03
RMM:  11    -0.413193718111E+03   -0.40114E-06   -0.12874E-06  2512   0.167E-03
   34 T=    66. E= -.41286756E+03 F= -.41319372E+03 E0= -.41317236E+03  EK= 0.32615E+00 SP= 0.00E+00 SK= 0.00E+00
       N       E                     dE             d eps       ncg     rms          rms(c)
RMM:   1    -0.413210474562E+03   -0.16757E-01   -0.60369E+00  4306   0.638E-01    0.975E-01
RMM:   2    -0.413204467016E+03    0.60075E-02   -0.84118E-02  4276   0.111E-01    0.695E-01
RMM:   3    -0.413198950024E+03    0.55170E-02   -0.61500E-02  4755   0.100E-01    0.287E-01
RMM:   4    -0.413215904698E+03   -0.16955E-01   -0.22183E-02  5106   0.130E-01    0.586E-01
RMM:   5    -0.413196193664E+03    0.19711E-01   -0.10106E-02  4770   0.993E-02    0.388E-02
RMM:   6    -0.413196314505E+03   -0.12084E-03   -0.15987E-03  5793   0.379E-02    0.257E-02
RMM:   7    -0.413196355012E+03   -0.40507E-04   -0.17923E-04  5451   0.151E-02    0.154E-02
RMM:   8    -0.413196353656E+03    0.13554E-05   -0.44663E-05  4856   0.741E-03    0.817E-03
RMM:   9    -0.413196354406E+03   -0.74935E-06   -0.12661E-05  3933   0.443E-03    0.543E-03
RMM:  10    -0.413196351547E+03    0.28590E-05   -0.19615E-06  2583   0.239E-03    0.337E-03
RMM:  11    -0.413196348087E+03    0.34596E-05   -0.13554E-06  2509   0.177E-03    0.165E-03
RMM:  12    -0.413196342263E+03    0.58237E-05   -0.10990E-06  2436   0.160E-03    0.961E-04
RMM:  13    -0.413196339358E+03    0.29055E-05   -0.31096E-07  2035   0.973E-04    0.549E-04
RMM:  14    -0.413196337379E+03    0.19785E-05   -0.15279E-07  1335   0.703E-04    0.289E-04
RMM:  15    -0.413196327961E+03    0.94179E-05   -0.21892E-07  1762   0.793E-04    0.422E-04
RMM:  16    -0.413196324589E+03    0.33727E-05   -0.75735E-08  1030   0.597E-04    0.304E-04
RMM:  17    -0.413196316620E+03    0.79692E-05   -0.97071E-08  1190   0.640E-04    0.193E-04
RMM:  18    -0.413196313612E+03    0.30073E-05   -0.52381E-08  1001   0.590E-04    0.507E-05
RMM:  19    -0.413196312276E+03    0.13364E-05   -0.33924E-08   957   0.564E-04    0.588E-05
RMM:  20    -0.413196311940E+03    0.33614E-06   -0.17504E-08   749   0.522E-04
   35 T=    67. E= -.41286792E+03 F= -.41319631E+03 E0= -.41317500E+03  EK= 0.32839E+00 SP= 0.00E+00 SK= 0.00E+00
       N       E                     dE             d eps       ncg     rms          rms(c)
RMM:   1    -0.413212499024E+03   -0.16187E-01   -0.60279E+00  4305   0.663E-01    0.973E-01
RMM:   2    -0.413206304934E+03    0.61941E-02   -0.84958E-02  4263   0.113E-01    0.692E-01
RMM:   3    -0.413200346434E+03    0.59585E-02   -0.60830E-02  4601   0.978E-02    0.261E-01
RMM:   4    -0.413210778689E+03   -0.10432E-01   -0.14234E-02  5122   0.104E-01    0.467E-01
RMM:   5    -0.413198314512E+03    0.12464E-01   -0.62863E-03  4785   0.780E-02    0.360E-02
RMM:   6    -0.413198396402E+03   -0.81890E-04   -0.10403E-03  5789   0.309E-02    0.258E-02
RMM:   7    -0.413198432232E+03   -0.35830E-04   -0.19281E-04  5385   0.149E-02    0.185E-02
RMM:   8    -0.413198421849E+03    0.10383E-04   -0.33914E-05  4657   0.700E-03    0.718E-03
RMM:   9    -0.413198421580E+03    0.26912E-06   -0.83397E-06  3218   0.353E-03
   36 T=    67. E= -.41286796E+03 F= -.41319842E+03 E0= -.41317716E+03  EK= 0.33046E+00 SP= 0.00E+00 SK= 0.00E+00
       N       E                     dE             d eps       ncg     rms          rms(c)
RMM:   1    -0.413215058314E+03   -0.16636E-01   -0.61382E+00  4314   0.690E-01    0.959E-01
RMM:   2    -0.413209667990E+03    0.53903E-02   -0.87653E-02  4272   0.122E-01    0.695E-01
RMM:   3    -0.413205368116E+03    0.42999E-02   -0.64747E-02  4812   0.115E-01    0.336E-01
RMM:   4    -0.413223970795E+03   -0.18603E-01   -0.26906E-02  5084   0.143E-01    0.632E-01
RMM:   5    -0.413201413304E+03    0.22557E-01   -0.12050E-02  4754   0.107E-01    0.408E-02
RMM:   6    -0.413201539139E+03   -0.12584E-03   -0.18211E-03  5797   0.401E-02    0.263E-02
RMM:   7    -0.413201567769E+03   -0.28630E-04   -0.19507E-04  5552   0.140E-02    0.152E-02
RMM:   8    -0.413201567383E+03    0.38614E-06   -0.38211E-05  4758   0.658E-03    0.716E-03
RMM:   9    -0.413201568840E+03   -0.14568E-05   -0.13604E-05  4013   0.410E-03    0.543E-03
RMM:  10    -0.413201565926E+03    0.29144E-05   -0.19837E-06  2583   0.233E-03    0.337E-03
RMM:  11    -0.413201563651E+03    0.22748E-05   -0.12874E-06  2504   0.170E-03    0.176E-03
RMM:  12    -0.413201558418E+03    0.52324E-05   -0.13861E-06  2489   0.167E-03    0.108E-03
RMM:  13    -0.413201555530E+03    0.28884E-05   -0.34773E-07  2106   0.103E-03    0.643E-04
RMM:  14    -0.413201553777E+03    0.17530E-05   -0.15570E-07  1349   0.709E-04    0.323E-04
RMM:  15    -0.413201544421E+03    0.93557E-05   -0.29168E-07  2077   0.856E-04    0.641E-04
RMM:  16    -0.413201540723E+03    0.36985E-05   -0.79868E-08  1012   0.575E-04    0.470E-04
RMM:  17    -0.413201534146E+03    0.65766E-05   -0.88405E-08  1030   0.605E-04    0.277E-04
RMM:  18    -0.413201530190E+03    0.39564E-05   -0.67742E-08  1235   0.629E-04    0.113E-04
RMM:  19    -0.413201528749E+03    0.14408E-05   -0.31117E-08   926   0.554E-04    0.136E-04
RMM:  20    -0.413201527860E+03    0.88869E-06   -0.18821E-08   818   0.524E-04
   37 T=    68. E= -.41286841E+03 F= -.41320153E+03 E0= -.41318031E+03  EK= 0.33312E+00 SP= 0.00E+00 SK= 0.00E+00
       N       E                     dE             d eps       ncg     rms          rms(c)
RMM:   1    -0.413218882731E+03   -0.17354E-01   -0.61952E+00  4313   0.702E-01    0.976E-01
RMM:   2    -0.413212501062E+03    0.63817E-02   -0.91391E-02  4250   0.114E-01    0.703E-01
RMM:   3    -0.413205819920E+03    0.66811E-02   -0.62336E-02  4412   0.918E-02    0.264E-01
RMM:   4    -0.413204944142E+03    0.87578E-03   -0.42015E-03  4993   0.446E-02    0.131E-01
RMM:   5    -0.413204066492E+03    0.87765E-03   -0.53297E-04  4725   0.233E-02    0.336E-02
RMM:   6    -0.413204078962E+03   -0.12470E-04   -0.25048E-04  5279   0.156E-02    0.271E-02
RMM:   7    -0.413204121571E+03   -0.42609E-04   -0.13684E-04  4824   0.128E-02    0.201E-02
RMM:   8    -0.413204112484E+03    0.90863E-05   -0.25298E-05  4200   0.527E-03    0.557E-03
RMM:   9    -0.413204113124E+03   -0.63976E-06   -0.66994E-06  2483   0.218E-03
   38 T=    68. E= -.41286833E+03 F= -.41320411E+03 E0= -.41318293E+03  EK= 0.33579E+00 SP= 0.00E+00 SK= 0.00E+00
       N       E                     dE             d eps       ncg     rms          rms(c)
RMM:   1    -0.413222156195E+03   -0.18044E-01   -0.61938E+00  4308   0.747E-01    0.987E-01
RMM:   2    -0.413214936223E+03    0.72200E-02   -0.91424E-02  4254   0.115E-01    0.701E-01
RMM:   3    -0.413208378554E+03    0.65577E-02   -0.59713E-02  4468   0.882E-02    0.234E-01
RMM:   4    -0.413208528848E+03   -0.15029E-03   -0.41916E-03  5083   0.492E-02    0.177E-01
RMM:   5    -0.413206846761E+03    0.16821E-02   -0.90076E-04  4772   0.307E-02    0.350E-02
RMM:   6    -0.413206845778E+03    0.98309E-06   -0.30104E-04  5372   0.177E-02    0.274E-02
RMM:   7    -0.413206886929E+03   -0.41152E-04   -0.15008E-04  4967   0.134E-02    0.203E-02
RMM:   8    -0.413206875828E+03    0.11102E-04   -0.24455E-05  4528   0.604E-03    0.772E-03
RMM:   9    -0.413206874179E+03    0.16488E-05   -0.10457E-05  2576   0.243E-03    0.346E-03
RMM:  10    -0.413206868656E+03    0.55225E-05   -0.13259E-06  2444   0.147E-03    0.142E-03
RMM:  11    -0.413206863121E+03    0.55359E-05   -0.69499E-07  1901   0.100E-03    0.491E-04
RMM:  12    -0.413206857331E+03    0.57896E-05   -0.27125E-07  1384   0.798E-04    0.262E-04
RMM:  13    -0.413206849736E+03    0.75953E-05   -0.20018E-07  1274   0.737E-04    0.215E-04
RMM:  14    -0.413206839028E+03    0.10708E-04   -0.18441E-07  1377   0.719E-04    0.159E-04
RMM:  15    -0.413206828517E+03    0.10511E-04   -0.13786E-07  1329   0.684E-04    0.126E-04
RMM:  16    -0.413206825359E+03    0.31579E-05   -0.57519E-08   882   0.561E-04    0.907E-05
RMM:  17    -0.413206822810E+03    0.25496E-05   -0.42228E-08   876   0.555E-04    0.314E-05
RMM:  18    -0.413206821993E+03    0.81684E-06   -0.26264E-08   688   0.513E-04
   39 T=    69. E= -.41286812E+03 F= -.41320682E+03 E0= -.41318568E+03  EK= 0.33870E+00 SP= 0.00E+00 SK= 0.00E+00
       N       E                     dE             d eps       ncg     rms          rms(c)
RMM:   1    -0.413224851989E+03   -0.18029E-01   -0.62747E+00  4305   0.762E-01    0.969E-01
RMM:   2    -0.413218668315E+03    0.61837E-02   -0.93488E-02  4249   0.111E-01    0.703E-01
RMM:   3    -0.413212361858E+03    0.63065E-02   -0.62665E-02  4705   0.897E-02    0.279E-01
RMM:   4    -0.413225265693E+03   -0.12904E-01   -0.17889E-02  5105   0.114E-01    0.517E-01
RMM:   5    -0.413210120004E+03    0.15146E-01   -0.75556E-03  4785   0.869E-02    0.387E-02
RMM:   6    -0.413210131002E+03   -0.10999E-04   -0.12210E-03  5719   0.343E-02    0.269E-02
RMM:   7    -0.413210173653E+03   -0.42650E-04   -0.23564E-04  5545   0.149E-02    0.194E-02
RMM:   8    -0.413210170451E+03    0.32021E-05   -0.46111E-05  5002   0.773E-03    0.828E-03
RMM:   9    -0.413210172298E+03   -0.18471E-05   -0.94909E-06  3212   0.368E-03    0.409E-03
RMM:  10    -0.413210172656E+03   -0.35785E-06   -0.16819E-06  2544   0.198E-03
   40 T=    70. E= -.41286829E+03 F= -.41321017E+03 E0= -.41318907E+03  EK= 0.34189E+00 SP= 0.00E+00 SK= 0.00E+00
       N       E                     dE             d eps       ncg     rms          rms(c)
RMM:   1    -0.413228000418E+03   -0.17828E-01   -0.63901E+00  4316   0.815E-01    0.983E-01
RMM:   2    -0.413221134762E+03    0.68657E-02   -0.94597E-02  4251   0.113E-01    0.712E-01
RMM:   3    -0.413215216115E+03    0.59186E-02   -0.64311E-02  4799   0.945E-02    0.300E-01
RMM:   4    -0.413234828560E+03   -0.19612E-01   -0.25924E-02  5103   0.138E-01    0.627E-01
RMM:   5    -0.413212402855E+03    0.22426E-01   -0.11207E-02  4777   0.106E-01    0.420E-02
RMM:   6    -0.413212442418E+03   -0.39563E-04   -0.17828E-03  5766   0.400E-02    0.267E-02
RMM:   7    -0.413212479129E+03   -0.36710E-04   -0.25387E-04  5681   0.151E-02    0.186E-02
RMM:   8    -0.413212475622E+03    0.35064E-05   -0.55956E-05  5024   0.799E-03    0.947E-03
RMM:   9    -0.413212476100E+03   -0.47805E-06   -0.12957E-05  3875   0.441E-03    0.472E-03
RMM:  10    -0.413212474196E+03    0.19040E-05   -0.21866E-06  2612   0.226E-03    0.302E-03
RMM:  11    -0.413212471664E+03    0.25325E-05   -0.12263E-06  2500   0.160E-03    0.149E-03
RMM:  12    -0.413212466357E+03    0.53072E-05   -0.11657E-06  2462   0.149E-03    0.901E-04
RMM:  13    -0.413212462600E+03    0.37563E-05   -0.36636E-07  2018   0.991E-04    0.562E-04
RMM:  14    -0.413212460589E+03    0.20113E-05   -0.17670E-07  1348   0.729E-04    0.251E-04
RMM:  15    -0.413212451992E+03    0.85965E-05   -0.21764E-07  1535   0.781E-04    0.334E-04
RMM:  16    -0.413212446654E+03    0.53381E-05   -0.12128E-07  1345   0.676E-04    0.291E-04
RMM:  17    -0.413212442584E+03    0.40706E-05   -0.78918E-08  1171   0.616E-04    0.203E-04
RMM:  18    -0.413212438113E+03    0.44710E-05   -0.64426E-08  1218   0.604E-04    0.946E-05
RMM:  19    -0.413212437464E+03    0.64833E-06   -0.32061E-08   845   0.525E-04
   41 T=    70. E= -.41286784E+03 F= -.41321244E+03 E0= -.41319137E+03  EK= 0.34460E+00 SP= 0.00E+00 SK= 0.00E+00
       N       E                     dE             d eps       ncg     rms          rms(c)
RMM:   1    -0.413232353346E+03   -0.19915E-01   -0.63771E+00  4316   0.845E-01    0.100E+00
RMM:   2    -0.413223759819E+03    0.85935E-02   -0.95497E-02  4284   0.117E-01    0.712E-01
RMM:   3    -0.413217258738E+03    0.65011E-02   -0.59748E-02  4767   0.859E-02    0.244E-01
RMM:   4    -0.413234010061E+03   -0.16751E-01   -0.21100E-02  5117   0.124E-01    0.574E-01
RMM:   5    -0.413215230780E+03    0.18779E-01   -0.93401E-03  4787   0.960E-02    0.416E-02
RMM:   6    -0.413215244636E+03   -0.13857E-04   -0.15060E-03  5748   0.374E-02    0.278E-02
RMM:   7    -0.413215290393E+03   -0.45756E-04   -0.27077E-04  5635   0.156E-02    0.204E-02
RMM:   8    -0.413215286708E+03    0.36842E-05   -0.53926E-05  5061   0.824E-03    0.951E-03
RMM:   9    -0.413215286085E+03    0.62288E-06   -0.10688E-05  3361   0.394E-03    0.424E-03
RMM:  10    -0.413215283661E+03    0.24241E-05   -0.18611E-06  2567   0.206E-03    0.265E-03
RMM:  11    -0.413215280054E+03    0.36069E-05   -0.11743E-06  2485   0.152E-03    0.123E-03
RMM:  12    -0.413215274886E+03    0.51681E-05   -0.69505E-07  2315   0.125E-03    0.750E-04
RMM:  13    -0.413215271884E+03    0.30028E-05   -0.26736E-07  1814   0.882E-04    0.427E-04
RMM:  14    -0.413215269397E+03    0.24861E-05   -0.15457E-07  1266   0.712E-04    0.179E-04
RMM:  15    -0.413215261321E+03    0.80765E-05   -0.14597E-07  1346   0.727E-04    0.224E-04
RMM:  16    -0.413215257736E+03    0.35846E-05   -0.86318E-08  1138   0.646E-04    0.169E-04
RMM:  17    -0.413215253260E+03    0.44763E-05   -0.73336E-08  1255   0.635E-04    0.128E-04
RMM:  18    -0.413215249272E+03    0.39877E-05   -0.55568E-08  1134   0.599E-04    0.550E-05
RMM:  19    -0.413215248494E+03    0.77781E-06   -0.30662E-08   849   0.540E-04
   42 T=    71. E= -.41286792E+03 F= -.41321525E+03 E0= -.41319421E+03  EK= 0.34732E+00 SP= 0.00E+00 SK= 0.00E+00
       N       E                     dE             d eps       ncg     rms          rms(c)
RMM:   1    -0.413233677581E+03   -0.18428E-01   -0.64082E+00  4316   0.889E-01    0.981E-01
RMM:   2    -0.413226298430E+03    0.73792E-02   -0.97378E-02  4376   0.116E-01    0.709E-01
RMM:   3    -0.413219794439E+03    0.65040E-02   -0.61166E-02  4831   0.909E-02    0.275E-01
RMM:   4    -0.413240910762E+03   -0.21116E-01   -0.27002E-02  5112   0.141E-01    0.643E-01
RMM:   5    -0.413217247560E+03    0.23663E-01   -0.11713E-02  4781   0.108E-01    0.435E-02
RMM:   6    -0.413217281823E+03   -0.34263E-04   -0.18664E-03  5755   0.411E-02    0.274E-02
RMM:   7    -0.413217326462E+03   -0.44639E-04   -0.28378E-04  5752   0.158E-02    0.198E-02
RMM:   8    -0.413217321703E+03    0.47593E-05   -0.60204E-05  5069   0.832E-03    0.993E-03
RMM:   9    -0.413217323143E+03   -0.14399E-05   -0.12028E-05  3661   0.429E-03    0.456E-03
RMM:  10    -0.413217322075E+03    0.10677E-05   -0.21988E-06  2612   0.224E-03    0.289E-03
RMM:  11    -0.413217320277E+03    0.17978E-05   -0.11784E-06  2496   0.158E-03    0.142E-03
RMM:  12    -0.413217316237E+03    0.40401E-05   -0.97142E-07  2441   0.143E-03    0.807E-04
RMM:  13    -0.413217313290E+03    0.29469E-05   -0.34939E-07  1990   0.981E-04    0.519E-04
RMM:  14    -0.413217311563E+03    0.17275E-05   -0.17365E-07  1336   0.732E-04    0.225E-04
RMM:  15    -0.413217304997E+03    0.65655E-05   -0.17578E-07  1403   0.749E-04    0.266E-04
RMM:  16    -0.413217301441E+03    0.35564E-05   -0.10162E-07  1194   0.663E-04    0.216E-04
RMM:  17    -0.413217298341E+03    0.30995E-05   -0.73796E-08  1163   0.629E-04    0.171E-04
RMM:  18    -0.413217294162E+03    0.41788E-05   -0.63715E-08  1220   0.617E-04    0.935E-05
RMM:  19    -0.413217292915E+03    0.12478E-05   -0.37183E-08   948   0.549E-04    0.395E-05
RMM:  20    -0.413217292590E+03    0.32513E-06   -0.20603E-08   740   0.517E-04
   43 T=    71. E= -.41286787E+03 F= -.41321729E+03 E0= -.41319628E+03  EK= 0.34943E+00 SP= 0.00E+00 SK= 0.00E+00
       N       E                     dE             d eps       ncg     rms          rms(c)
RMM:   1    -0.413235245677E+03   -0.17953E-01   -0.65366E+00  4316   0.970E-01    0.985E-01
RMM:   2    -0.413227647277E+03    0.75984E-02   -0.10012E-01  4401   0.128E-01    0.718E-01
RMM:   3    -0.413221740624E+03    0.59067E-02   -0.64113E-02  4864   0.989E-02    0.309E-01
RMM:   4    -0.413245170294E+03   -0.23430E-01   -0.31675E-02  5095   0.153E-01    0.685E-01
RMM:   5    -0.413218319688E+03    0.26851E-01   -0.13256E-02  4774   0.115E-01    0.448E-02
RMM:   6    -0.413218355100E+03   -0.35411E-04   -0.20913E-03  5765   0.429E-02    0.264E-02
RMM:   7    -0.413218396270E+03   -0.41170E-04   -0.27198E-04  5796   0.153E-02    0.183E-02
RMM:   8    -0.413218398322E+03   -0.20522E-05   -0.62926E-05  5064   0.827E-03    0.101E-02
RMM:   9    -0.413218400490E+03   -0.21676E-05   -0.14419E-05  4038   0.467E-03    0.483E-03
RMM:  10    -0.413218400324E+03    0.16576E-06   -0.27859E-06  2650   0.245E-03
   44 T=    71. E= -.41286771E+03 F= -.41321840E+03 E0= -.41319741E+03  EK= 0.35069E+00 SP= 0.00E+00 SK= 0.00E+00
       N       E                     dE             d eps       ncg     rms          rms(c)
RMM:   1    -0.413238611566E+03   -0.20211E-01   -0.64944E+00  4316   0.995E-01    0.100E+00
RMM:   2    -0.413228894043E+03    0.97175E-02   -0.10130E-01  4451   0.129E-01    0.718E-01
RMM:   3    -0.413226704008E+03    0.21900E-02   -0.61575E-02  5037   0.115E-01    0.377E-01
RMM:   4    -0.413242828168E+03   -0.16124E-01   -0.35641E-02  5057   0.164E-01    0.641E-01
RMM:   5    -0.413219679471E+03    0.23149E-01   -0.10585E-02  4695   0.107E-01    0.456E-02
RMM:   6    -0.413219695473E+03   -0.16002E-04   -0.17541E-03  5706   0.394E-02    0.270E-02
RMM:   7    -0.413219720727E+03   -0.25254E-04   -0.22206E-04  5648   0.148E-02    0.192E-02
RMM:   8    -0.413219723080E+03   -0.23528E-05   -0.69451E-05  5067   0.888E-03    0.105E-02
RMM:   9    -0.413219715705E+03    0.73752E-05   -0.12539E-05  3805   0.471E-03    0.442E-03
RMM:  10    -0.413219710966E+03    0.47382E-05   -0.25144E-06  2652   0.229E-03    0.271E-03
RMM:  11    -0.413219706349E+03    0.46178E-05   -0.11418E-06  2481   0.160E-03    0.131E-03
RMM:  12    -0.413219698224E+03    0.81247E-05   -0.85123E-07  2418   0.137E-03    0.718E-04
RMM:  13    -0.413219692674E+03    0.55502E-05   -0.32744E-07  1910   0.951E-04    0.404E-04
RMM:  14    -0.413219688997E+03    0.36762E-05   -0.16858E-07  1348   0.729E-04    0.187E-04
RMM:  15    -0.413219677341E+03    0.11656E-04   -0.19259E-07  1637   0.786E-04    0.277E-04
RMM:  16    -0.413219672740E+03    0.46017E-05   -0.10050E-07  1290   0.644E-04    0.193E-04
RMM:  17    -0.413219668409E+03    0.43309E-05   -0.74511E-08  1204   0.611E-04    0.862E-05
RMM:  18    -0.413219663444E+03    0.49644E-05   -0.59839E-08  1222   0.605E-04    0.746E-05
RMM:  19    -0.413219663234E+03    0.21016E-06   -0.26362E-08   792   0.516E-04
   45 T=    72. E= -.41286821E+03 F= -.41321966E+03 E0= -.41319870E+03  EK= 0.35145E+00 SP= 0.00E+00 SK= 0.00E+00
       N       E                     dE             d eps       ncg     rms          rms(c)
RMM:   1    -0.413238279183E+03   -0.18616E-01   -0.64587E+00  4316   0.108E+00    0.986E-01
RMM:   2    -0.413228121111E+03    0.10158E-01   -0.10217E-01  4455   0.136E-01    0.711E-01
RMM:   3    -0.413223550610E+03    0.45705E-02   -0.58832E-02  4949   0.106E-01    0.311E-01
RMM:   4    -0.413248352384E+03   -0.24802E-01   -0.37296E-02  5085   0.166E-01    0.713E-01
RMM:   5    -0.413219096457E+03    0.29256E-01   -0.13809E-02  4749   0.120E-01    0.471E-02
RMM:   6    -0.413219145057E+03   -0.48600E-04   -0.22079E-03  5750   0.441E-02    0.266E-02
RMM:   7    -0.413219179408E+03   -0.34351E-04   -0.24505E-04  5743   0.146E-02    0.166E-02
RMM:   8    -0.413219182506E+03   -0.30985E-05   -0.47798E-05  4988   0.737E-03    0.852E-03
RMM:   9    -0.413219183026E+03   -0.52019E-06   -0.16569E-05  4233   0.455E-03    0.506E-03
RMM:  10    -0.413219179467E+03    0.35594E-05   -0.28087E-06  2645   0.258E-03    0.312E-03
RMM:  11    -0.413219177120E+03    0.23471E-05   -0.12893E-06  2501   0.178E-03    0.170E-03
RMM:  12    -0.413219171727E+03    0.53930E-05   -0.96844E-07  2489   0.154E-03    0.863E-04
RMM:  13    -0.413219167791E+03    0.39358E-05   -0.39099E-07  2137   0.103E-03    0.556E-04
RMM:  14    -0.413219165636E+03    0.21553E-05   -0.17130E-07  1389   0.738E-04    0.251E-04
RMM:  15    -0.413219158784E+03    0.68522E-05   -0.16204E-07  1475   0.749E-04    0.246E-04
RMM:  16    -0.413219155487E+03    0.32964E-05   -0.88516E-08  1161   0.638E-04    0.183E-04
RMM:  17    -0.413219152564E+03    0.29237E-05   -0.65525E-08  1107   0.611E-04    0.128E-04
RMM:  18    -0.413219147731E+03    0.48324E-05   -0.66660E-08  1290   0.630E-04    0.621E-05
RMM:  19    -0.413219145937E+03    0.17940E-05   -0.33460E-08   946   0.554E-04    0.368E-05
RMM:  20    -0.413219145635E+03    0.30162E-06   -0.18260E-08   755   0.515E-04
   46 T=    71. E= -.41286821E+03 F= -.41321915E+03 E0= -.41319819E+03  EK= 0.35094E+00 SP= 0.00E+00 SK= 0.00E+00
       N       E                     dE             d eps       ncg     rms          rms(c)
RMM:   1    -0.413239252146E+03   -0.20106E-01   -0.65600E+00  4316   0.120E+00    0.972E-01
RMM:   2    -0.413227361872E+03    0.11890E-01   -0.10994E-01  4473   0.152E-01    0.717E-01
RMM:   3    -0.413225031555E+03    0.23303E-02   -0.61752E-02  4996   0.121E-01    0.386E-01
RMM:   4    -0.413245433346E+03   -0.20402E-01   -0.40490E-02  5063   0.175E-01    0.698E-01
RMM:   5    -0.413217826763E+03    0.27607E-01   -0.12829E-02  4704   0.118E-01    0.471E-02
RMM:   6    -0.413217853172E+03   -0.26409E-04   -0.20377E-03  5712   0.425E-02    0.250E-02
RMM:   7    -0.413217886122E+03   -0.32950E-04   -0.21368E-04  5733   0.140E-02    0.156E-02
RMM:   8    -0.413217900739E+03   -0.14616E-04   -0.63418E-05  5138   0.815E-03    0.982E-03
RMM:   9    -0.413217895265E+03    0.54734E-05   -0.17098E-05  4298   0.493E-03    0.464E-03
RMM:  10    -0.413217894477E+03    0.78826E-06   -0.29682E-06  2667   0.258E-03
   47 T=    71. E= -.41286861E+03 F= -.41321789E+03 E0= -.41319696E+03  EK= 0.34928E+00 SP= 0.00E+00 SK= 0.00E+00
       N       E                     dE             d eps       ncg     rms          rms(c)
RMM:   1    -0.413241070410E+03   -0.23175E-01   -0.64991E+00  4316   0.128E+00    0.989E-01
RMM:   2    -0.413224515485E+03    0.16555E-01   -0.10757E-01  4523   0.161E-01    0.715E-01
RMM:   3    -0.413228939963E+03   -0.44245E-02   -0.63337E-02  5075   0.144E-01    0.498E-01
RMM:   4    -0.413232275509E+03   -0.33355E-02   -0.36872E-02  5003   0.172E-01    0.553E-01
RMM:   5    -0.413215395569E+03    0.16880E-01   -0.72700E-03  4588   0.950E-02    0.443E-02
RMM:   6    -0.413215372132E+03    0.23437E-04   -0.11430E-03  5419   0.327E-02    0.240E-02
RMM:   7    -0.413215391861E+03   -0.19728E-04   -0.13141E-04  5467   0.118E-02    0.138E-02
RMM:   8    -0.413215401333E+03   -0.94720E-05   -0.59260E-05  5176   0.806E-03    0.939E-03
RMM:   9    -0.413215391701E+03    0.96311E-05   -0.12373E-05  3963   0.453E-03    0.385E-03
RMM:  10    -0.413215387893E+03    0.38084E-05   -0.25528E-06  2655   0.238E-03    0.229E-03
RMM:  11    -0.413215382699E+03    0.51936E-05   -0.13174E-06  2504   0.178E-03    0.111E-03
RMM:  12    -0.413215376259E+03    0.64402E-05   -0.65959E-07  2390   0.129E-03    0.619E-04
RMM:  13    -0.413215370850E+03    0.54090E-05   -0.29472E-07  1753   0.890E-04    0.298E-04
RMM:  14    -0.413215365237E+03    0.56137E-05   -0.18909E-07  1433   0.755E-04    0.172E-04
RMM:  15    -0.413215358016E+03    0.72206E-05   -0.17845E-07  1649   0.757E-04    0.153E-04
RMM:  16    -0.413215352833E+03    0.51832E-05   -0.11588E-07  1356   0.644E-04    0.970E-05
RMM:  17    -0.413215345006E+03    0.78263E-05   -0.11653E-07  1405   0.676E-04    0.101E-04
RMM:  18    -0.413215344716E+03    0.29054E-06   -0.40445E-08   830   0.520E-04
   48 T=    71. E= -.41286903E+03 F= -.41321534E+03 E0= -.41319442E+03  EK= 0.34632E+00 SP= 0.00E+00 SK= 0.00E+00
       N       E                     dE             d eps       ncg     rms          rms(c)
RMM:   1    -0.413239140541E+03   -0.23796E-01   -0.64007E+00  4312   0.139E+00    0.978E-01
RMM:   2    -0.413219353049E+03    0.19787E-01   -0.10667E-01  4580   0.171E-01    0.705E-01
RMM:   3    -0.413224351850E+03   -0.49988E-02   -0.61246E-02  5061   0.148E-01    0.500E-01
RMM:   4    -0.413226560714E+03   -0.22089E-02   -0.36148E-02  4999   0.171E-01    0.538E-01
RMM:   5    -0.413210493442E+03    0.16067E-01   -0.67987E-03  4597   0.942E-02    0.457E-02
RMM:   6    -0.413210456653E+03    0.36789E-04   -0.10493E-03  5290   0.321E-02    0.236E-02
RMM:   7    -0.413210489324E+03   -0.32671E-04   -0.12905E-04  5481   0.117E-02    0.120E-02
RMM:   8    -0.413210495522E+03   -0.61977E-05   -0.35481E-05  5009   0.665E-03    0.715E-03
RMM:   9    -0.413210489475E+03    0.60469E-05   -0.94258E-06  3702   0.372E-03    0.363E-03
RMM:  10    -0.413210486848E+03    0.26273E-05   -0.18140E-06  2543   0.222E-03    0.226E-03
RMM:  11    -0.413210482293E+03    0.45545E-05   -0.10786E-06  2489   0.168E-03    0.114E-03
RMM:  12    -0.413210477640E+03    0.46536E-05   -0.48003E-07  2329   0.115E-03    0.609E-04
RMM:  13    -0.413210473010E+03    0.46296E-05   -0.24201E-07  1627   0.832E-04    0.281E-04
RMM:  14    -0.413210468676E+03    0.43336E-05   -0.15122E-07  1288   0.708E-04    0.161E-04
RMM:  15    -0.413210463922E+03    0.47542E-05   -0.11846E-07  1274   0.680E-04    0.120E-04
RMM:  16    -0.413210459440E+03    0.44825E-05   -0.96761E-08  1306   0.649E-04    0.836E-05
RMM:  17    -0.413210453866E+03    0.55736E-05   -0.87685E-08  1380   0.641E-04    0.535E-05
RMM:  18    -0.413210452505E+03    0.13610E-05   -0.35622E-08   824   0.513E-04    0.400E-05
RMM:  19    -0.413210451217E+03    0.12881E-05   -0.27866E-08   807   0.513E-04    0.177E-05
RMM:  20    -0.413210450644E+03    0.57324E-06   -0.14991E-08   676   0.496E-04
   49 T=    70. E= -.41286884E+03 F= -.41321045E+03 E0= -.41318953E+03  EK= 0.34161E+00 SP= 0.00E+00 SK= 0.00E+00
       N       E                     dE             d eps       ncg     rms          rms(c)
RMM:   1    -0.413230534554E+03   -0.20083E-01   -0.63441E+00  4314   0.147E+00    0.941E-01
RMM:   2    -0.413213842232E+03    0.16692E-01   -0.11793E-01  4683   0.181E-01    0.701E-01
RMM:   3    -0.413228672860E+03   -0.14831E-01   -0.64203E-02  5093   0.175E-01    0.646E-01
RMM:   4    -0.413217033980E+03    0.11639E-01   -0.41647E-02  4967   0.187E-01    0.478E-01
RMM:   5    -0.413204653829E+03    0.12380E-01   -0.57858E-03  4544   0.919E-02    0.479E-02
RMM:   6    -0.413204576193E+03    0.77636E-04   -0.67663E-04  4901   0.288E-02    0.240E-02
RMM:   7    -0.413204602600E+03   -0.26407E-04   -0.13715E-04  5688   0.130E-02    0.117E-02
RMM:   8    -0.413204602488E+03    0.11158E-06   -0.40483E-05  5150   0.721E-03    0.833E-03
RMM:   9    -0.413204600480E+03    0.20078E-05   -0.10880E-05  3862   0.406E-03    0.350E-03
RMM:  10    -0.413204597655E+03    0.28252E-05   -0.19916E-06  2576   0.228E-03    0.240E-03
RMM:  11    -0.413204593752E+03    0.39034E-05   -0.12193E-06  2490   0.179E-03    0.139E-03
RMM:  12    -0.413204591053E+03    0.26984E-05   -0.51748E-07  2363   0.119E-03    0.749E-04
RMM:  13    -0.413204587328E+03    0.37252E-05   -0.35288E-07  2004   0.949E-04    0.394E-04
RMM:  14    -0.413204582689E+03    0.46396E-05   -0.28021E-07  1659   0.811E-04    0.350E-04
RMM:  15    -0.413204578815E+03    0.38734E-05   -0.17041E-07  1270   0.682E-04    0.139E-04
RMM:  16    -0.413204576397E+03    0.24184E-05   -0.11184E-07  1197   0.626E-04    0.925E-05
RMM:  17    -0.413204572586E+03    0.38111E-05   -0.11797E-07  1311   0.643E-04    0.814E-05
RMM:  18    -0.413204571361E+03    0.12250E-05   -0.54908E-08   929   0.548E-04    0.673E-05
RMM:  19    -0.413204569351E+03    0.20092E-05   -0.48781E-08   928   0.556E-04    0.334E-05
RMM:  20    -0.413204568389E+03    0.96293E-06   -0.32973E-08   847   0.527E-04
   50 T=    68. E= -.41286910E+03 F= -.41320457E+03 E0= -.41318365E+03  EK= 0.33547E+00 SP= 0.00E+00 SK= 0.00E+00
       N       E                     dE             d eps       ncg     rms          rms(c)
RMM:   1    -0.413222275007E+03   -0.17706E-01   -0.62064E+00  4311   0.153E+00    0.945E-01
RMM:   2    -0.413205098324E+03    0.17177E-01   -0.11711E-01  4756   0.186E-01    0.697E-01
RMM:   3    -0.413227589749E+03   -0.22491E-01   -0.67049E-02  5115   0.191E-01    0.733E-01
RMM:   4    -0.413205171678E+03    0.22418E-01   -0.42345E-02  4933   0.192E-01    0.409E-01
RMM:   5    -0.413196219393E+03    0.89523E-02   -0.49072E-03  4621   0.889E-02    0.513E-02
RMM:   6    -0.413196108830E+03    0.11056E-03   -0.49046E-04  4749   0.275E-02    0.259E-02
RMM:   7    -0.413196149276E+03   -0.40445E-04   -0.20437E-04  5646   0.159E-02    0.191E-02
RMM:   8    -0.413196133536E+03    0.15739E-04   -0.52092E-05  4992   0.853E-03    0.871E-03
RMM:   9    -0.413196131193E+03    0.23433E-05   -0.13026E-05  4202   0.472E-03    0.386E-03
RMM:  10    -0.413196127570E+03    0.36226E-05   -0.20807E-06  2620   0.237E-03    0.257E-03
RMM:  11    -0.413196122552E+03    0.50180E-05   -0.96688E-07  2506   0.163E-03    0.154E-03
RMM:  12    -0.413196119258E+03    0.32941E-05   -0.42429E-07  2108   0.104E-03    0.738E-04
RMM:  13    -0.413196114644E+03    0.46141E-05   -0.43734E-07  2289   0.102E-03    0.458E-04
RMM:  14    -0.413196111518E+03    0.31260E-05   -0.20941E-07  1442   0.758E-04    0.328E-04
RMM:  15    -0.413196106307E+03    0.52115E-05   -0.20611E-07  1459   0.758E-04    0.134E-04
RMM:  16    -0.413196103808E+03    0.24985E-05   -0.11719E-07  1299   0.650E-04    0.936E-05
RMM:  17    -0.413196099440E+03    0.43679E-05   -0.13589E-07  1446   0.671E-04    0.951E-05
RMM:  18    -0.413196098544E+03    0.89631E-06   -0.56626E-08   962   0.538E-04
   51 T=    67. E= -.41286879E+03 F= -.41319610E+03 E0= -.41317518E+03  EK= 0.32731E+00 SP= 0.00E+00 SK= 0.00E+00
       N       E                     dE             d eps       ncg     rms          rms(c)
RMM:   1    -0.413214335438E+03   -0.18236E-01   -0.60040E+00  4305   0.163E+00    0.940E-01
RMM:   2    -0.413194416041E+03    0.19919E-01   -0.11592E-01  4806   0.197E-01    0.682E-01
RMM:   3    -0.413225441151E+03   -0.31025E-01   -0.68046E-02  5127   0.207E-01    0.819E-01
RMM:   4    -0.413191935640E+03    0.33506E-01   -0.43153E-02  4915   0.196E-01    0.333E-01
[...]
RMM:  16    -0.411343630764E+03   -0.75223E-05   -0.17054E-05  3689   0.489E-03    0.370E-03
RMM:  17    -0.411343637186E+03   -0.64213E-05   -0.10110E-05  3200   0.406E-03    0.144E-03
RMM:  18    -0.411343639247E+03   -0.20616E-05   -0.74052E-06  3033   0.323E-03    0.108E-03
RMM:  19    -0.411343637175E+03    0.20719E-05   -0.47616E-06  2803   0.238E-03    0.827E-04
RMM:  20    -0.411343631935E+03    0.52407E-05   -0.38348E-06  2699   0.212E-03    0.562E-04
RMM:  21    -0.411343625487E+03    0.64479E-05   -0.26146E-06  2451   0.166E-03    0.392E-04
RMM:  22    -0.411343620185E+03    0.53019E-05   -0.11267E-06  2053   0.116E-03    0.193E-04
RMM:  23    -0.411343616476E+03    0.37089E-05   -0.43921E-07  1640   0.858E-04    0.208E-04
RMM:  24    -0.411343612950E+03    0.35255E-05   -0.27973E-07  1536   0.762E-04    0.123E-04
RMM:  25    -0.411343610955E+03    0.19950E-05   -0.16813E-07  1359   0.667E-04    0.770E-05
RMM:  26    -0.411343609504E+03    0.14509E-05   -0.11059E-07  1211   0.613E-04    0.573E-05
RMM:  27    -0.411343608500E+03    0.10040E-05   -0.81169E-08  1134   0.584E-04    0.435E-05
RMM:  28    -0.411343608170E+03    0.33009E-06   -0.46059E-08   933   0.541E-04
  143 T=  1449. E= -.40422412E+03 F= -.41134361E+03 E0= -.41132130E+03  EK= 0.71195E+01 SP= 0.00E+00 SK= 0.00E+00
       N       E                     dE             d eps       ncg     rms          rms(c)
RMM:   1    -0.409607550143E+03    0.17361E+01   -0.48731E+01  4319   0.104E+01    0.278E+00
RMM:   2    -0.411815634934E+03   -0.22081E+01   -0.94666E+00  4755   0.360E+00    0.312E+00
RMM:   3    -0.412255890635E+03   -0.44026E+00   -0.22915E+00  5640   0.145E+00    0.442E+00
RMM:   4    -0.411418870634E+03    0.83702E+00   -0.50151E-01  4973   0.778E-01    0.253E+00
RMM:   5    -0.411333421070E+03    0.85450E-01   -0.13456E-01  5740   0.378E-01    0.205E+00
RMM:   6    -0.411192229336E+03    0.14119E+00   -0.46656E-01  4890   0.652E-01    0.841E-01
RMM:   7    -0.411187770955E+03    0.44584E-02   -0.18939E-01  5773   0.406E-01    0.570E-01
RMM:   8    -0.411186949863E+03    0.82109E-03   -0.41977E-02  5199   0.232E-01    0.361E-01
RMM:   9    -0.411186381059E+03    0.56880E-03   -0.19167E-02  5159   0.163E-01    0.187E-01
RMM:  10    -0.411187565367E+03   -0.11843E-02   -0.94576E-03  5604   0.963E-02    0.180E-01
RMM:  11    -0.411186649263E+03    0.91610E-03   -0.22030E-03  4505   0.623E-02    0.807E-02
RMM:  12    -0.411186624553E+03    0.24709E-04   -0.16030E-03  5318   0.420E-02    0.263E-02
RMM:  13    -0.411186699179E+03   -0.74625E-04   -0.27658E-04  5626   0.173E-02    0.214E-02
RMM:  14    -0.411186730209E+03   -0.31030E-04   -0.62072E-05  4371   0.105E-02    0.903E-03
RMM:  15    -0.411186772903E+03   -0.42694E-04   -0.29521E-05  3796   0.713E-03    0.861E-03
RMM:  16    -0.411186801889E+03   -0.28986E-04   -0.20928E-05  3521   0.550E-03    0.467E-03
RMM:  17    -0.411186826660E+03   -0.24771E-04   -0.17679E-05  3424   0.513E-03    0.151E-03
RMM:  18    -0.411186840976E+03   -0.14316E-04   -0.11749E-05  3260   0.389E-03    0.138E-03
RMM:  19    -0.411186846766E+03   -0.57897E-05   -0.53949E-06  2974   0.245E-03    0.121E-03
RMM:  20    -0.411186849539E+03   -0.27730E-05   -0.33270E-06  2660   0.204E-03    0.649E-04
RMM:  21    -0.411186849295E+03    0.24401E-06   -0.19304E-06  2334   0.152E-03
  144 T=  1416. E= -.40423133E+03 F= -.41118685E+03 E0= -.41116571E+03  EK= 0.69555E+01 SP= 0.00E+00 SK= 0.00E+00
       N       E                     dE             d eps       ncg     rms          rms(c)
RMM:   1    -0.408970821674E+03    0.22160E+01   -0.39292E+01  4327   0.903E+00    0.321E+00
RMM:   2    -0.412162575808E+03   -0.31918E+01   -0.97408E+00  4610   0.376E+00    0.336E+00
RMM:   3    -0.412750779930E+03   -0.58820E+00   -0.24350E+00  5550   0.156E+00    0.484E+00
RMM:   4    -0.411620740343E+03    0.11300E+01   -0.63395E-01  4979   0.884E-01    0.263E+00
RMM:   5    -0.411540707488E+03    0.80033E-01   -0.15264E-01  5730   0.407E-01    0.220E+00
RMM:   6    -0.411387234041E+03    0.15347E+00   -0.25737E-01  4854   0.504E-01    0.126E+00
RMM:   7    -0.411337974426E+03    0.49260E-01   -0.31271E-01  5317   0.521E-01    0.511E-01
RMM:   8    -0.411343666068E+03   -0.56916E-02   -0.44302E-02  5815   0.230E-01    0.432E-01
RMM:   9    -0.411340666437E+03    0.29996E-02   -0.36647E-02  5207   0.194E-01    0.185E-01
RMM:  10    -0.411341779270E+03   -0.11128E-02   -0.15160E-02  5739   0.107E-01    0.162E-01
RMM:  11    -0.411341128728E+03    0.65054E-03   -0.29077E-03  4741   0.691E-02    0.740E-02
RMM:  12    -0.411341061257E+03    0.67471E-04   -0.94125E-04  5350   0.338E-02    0.361E-02
RMM:  13    -0.411341092759E+03   -0.31502E-04   -0.37584E-04  5573   0.199E-02    0.156E-02
RMM:  14    -0.411341136045E+03   -0.43286E-04   -0.80271E-05  4887   0.986E-03    0.137E-02
RMM:  15    -0.411341177708E+03   -0.41662E-04   -0.31512E-05  4011   0.776E-03    0.709E-03
RMM:  16    -0.411341212964E+03   -0.35257E-04   -0.18806E-05  3586   0.542E-03    0.367E-03
RMM:  17    -0.411341253835E+03   -0.40870E-04   -0.14343E-05  3360   0.507E-03    0.159E-03
RMM:  18    -0.411341277738E+03   -0.23904E-04   -0.77736E-06  3150   0.338E-03    0.117E-03
RMM:  19    -0.411341296296E+03   -0.18558E-04   -0.45453E-06  2952   0.259E-03    0.842E-04
RMM:  20    -0.411341309314E+03   -0.13018E-04   -0.33450E-06  2775   0.207E-03    0.465E-04
RMM:  21    -0.411341315536E+03   -0.62221E-05   -0.18144E-06  2184   0.145E-03    0.268E-04
RMM:  22    -0.411341318741E+03   -0.32047E-05   -0.60589E-07  1793   0.101E-03    0.148E-04
RMM:  23    -0.411341322493E+03   -0.37524E-05   -0.42817E-07  1865   0.922E-04    0.155E-04
RMM:  24    -0.411341324706E+03   -0.22125E-05   -0.21309E-07  1457   0.713E-04    0.991E-05
RMM:  25    -0.411341326328E+03   -0.16229E-05   -0.11692E-07  1184   0.626E-04    0.451E-05
RMM:  26    -0.411341328049E+03   -0.17204E-05   -0.82441E-08  1144   0.608E-04    0.446E-05
RMM:  27    -0.411341328847E+03   -0.79799E-06   -0.56427E-08  1014   0.572E-04
  145 T=  1443. E= -.40425261E+03 F= -.41134133E+03 E0= -.41132039E+03  EK= 0.70887E+01 SP= 0.00E+00 SK= 0.00E+00
       N       E                     dE             d eps       ncg     rms          rms(c)
RMM:   1    -0.409153104686E+03    0.21882E+01   -0.32113E+01  4323   0.822E+00    0.321E+00
RMM:   2    -0.412078349977E+03   -0.29252E+01   -0.82309E+00  4509   0.365E+00    0.281E+00
RMM:   3    -0.411928686571E+03    0.14966E+00   -0.11676E+00  5333   0.125E+00    0.275E+00
RMM:   4    -0.411807214012E+03    0.12147E+00   -0.28568E-01  5571   0.539E-01    0.228E+00
RMM:   5    -0.411711729563E+03    0.95484E-01   -0.71484E-02  5121   0.317E-01    0.184E+00
RMM:   6    -0.411629952235E+03    0.81777E-01   -0.12474E-01  4696   0.362E-01    0.125E+00
RMM:   7    -0.411588149182E+03    0.41803E-01   -0.48855E-01  4818   0.676E-01    0.574E-01
RMM:   8    -0.411582303741E+03    0.58454E-02   -0.51401E-02  5883   0.255E-01    0.312E-01
RMM:   9    -0.411583886497E+03   -0.15828E-02   -0.25257E-02  4889   0.172E-01    0.245E-01
RMM:  10    -0.411582686071E+03    0.12004E-02   -0.63189E-03  4583   0.996E-02    0.912E-02
RMM:  11    -0.411582827885E+03   -0.14181E-03   -0.36981E-03  5401   0.603E-02    0.776E-02
RMM:  12    -0.411582628093E+03    0.19979E-03   -0.61602E-04  4882   0.295E-02    0.386E-02
RMM:  13    -0.411582608774E+03    0.19319E-04   -0.41435E-04  5272   0.216E-02    0.128E-02
RMM:  14    -0.411582640498E+03   -0.31724E-04   -0.12691E-04  5568   0.109E-02    0.156E-02
RMM:  15    -0.411582676389E+03   -0.35891E-04   -0.36656E-05  4314   0.857E-03    0.891E-03
RMM:  16    -0.411582704273E+03   -0.27884E-04   -0.20539E-05  3956   0.510E-03    0.465E-03
RMM:  17    -0.411582755944E+03   -0.51671E-04   -0.89405E-06  3296   0.477E-03    0.215E-03
RMM:  18    -0.411582795209E+03   -0.39265E-04   -0.62767E-06  3058   0.364E-03    0.137E-03
RMM:  19    -0.411582830352E+03   -0.35143E-04   -0.58518E-06  3031   0.324E-03    0.128E-03
RMM:  20    -0.411582856929E+03   -0.26577E-04   -0.44039E-06  2910   0.243E-03    0.805E-04
RMM:  21    -0.411582872783E+03   -0.15853E-04   -0.25305E-06  2630   0.170E-03    0.656E-04
RMM:  22    -0.411582884017E+03   -0.11234E-04   -0.14892E-06  2114   0.132E-03    0.267E-04
RMM:  23    -0.411582891056E+03   -0.70393E-05   -0.60584E-07  1782   0.979E-04    0.207E-04
RMM:  24    -0.411582896503E+03   -0.54466E-05   -0.29849E-07  1689   0.825E-04    0.133E-04
RMM:  25    -0.411582899894E+03   -0.33914E-05   -0.18357E-07  1602   0.718E-04    0.794E-05
RMM:  26    -0.411582901743E+03   -0.18491E-05   -0.10505E-07  1277   0.607E-04    0.597E-05
RMM:  27    -0.411582902558E+03   -0.81469E-06   -0.61097E-08  1078   0.550E-04
  146 T=  1489. E= -.40426892E+03 F= -.41158290E+03 E0= -.41156207E+03  EK= 0.73140E+01 SP= 0.00E+00 SK= 0.00E+00
       N       E                     dE             d eps       ncg     rms          rms(c)
RMM:   1    -0.409803162582E+03    0.17797E+01   -0.34621E+01  4329   0.868E+00    0.331E+00
RMM:   2    -0.412229603208E+03   -0.24264E+01   -0.84207E+00  4562   0.378E+00    0.286E+00
RMM:   3    -0.412526232191E+03   -0.29663E+00   -0.15716E+00  5439   0.141E+00    0.370E+00
RMM:   4    -0.411907066687E+03    0.61917E+00   -0.41346E-01  5175   0.713E-01    0.206E+00
RMM:   5    -0.411846243663E+03    0.60823E-01   -0.95369E-02  5443   0.365E-01    0.164E+00
RMM:   6    -0.411790904797E+03    0.55339E-01   -0.11969E-01  5040   0.349E-01    0.109E+00
RMM:   7    -0.411769646130E+03    0.21259E-01   -0.33262E-01  5017   0.581E-01    0.486E-01
RMM:   8    -0.411766373605E+03    0.32725E-02   -0.39520E-02  6068   0.222E-01    0.317E-01
RMM:   9    -0.411764568259E+03    0.18053E-02   -0.23255E-02  4699   0.170E-01    0.173E-01
RMM:  10    -0.411764221338E+03    0.34692E-03   -0.25436E-03  4860   0.732E-02    0.846E-02
RMM:  11    -0.411764148226E+03    0.73112E-04   -0.20868E-03  4745   0.519E-02    0.596E-02
RMM:  12    -0.411764023418E+03    0.12481E-03   -0.43833E-04  5150   0.239E-02    0.406E-02
RMM:  13    -0.411763952643E+03    0.70775E-04   -0.31037E-04  4915   0.194E-02    0.113E-02
RMM:  14    -0.411763977709E+03   -0.25066E-04   -0.15250E-04  5796   0.121E-02    0.176E-02
RMM:  15    -0.411764003357E+03   -0.25648E-04   -0.32261E-05  4277   0.832E-03    0.848E-03
RMM:  16    -0.411764034126E+03   -0.30769E-04   -0.21483E-05  4292   0.553E-03    0.401E-03
RMM:  17    -0.411764088037E+03   -0.53912E-04   -0.71663E-06  3167   0.453E-03    0.200E-03
RMM:  18    -0.411764128796E+03   -0.40759E-04   -0.63290E-06  3068   0.360E-03    0.181E-03
RMM:  19    -0.411764172985E+03   -0.44188E-04   -0.73057E-06  3135   0.369E-03    0.186E-03
RMM:  20    -0.411764198199E+03   -0.25214E-04   -0.47770E-06  2917   0.242E-03    0.906E-04
RMM:  21    -0.411764214888E+03   -0.16689E-04   -0.25252E-06  2704   0.174E-03    0.606E-04
RMM:  22    -0.411764227334E+03   -0.12445E-04   -0.17918E-06  2199   0.144E-03    0.276E-04
RMM:  23    -0.411764235224E+03   -0.78904E-05   -0.71505E-07  2085   0.110E-03    0.271E-04
RMM:  24    -0.411764239942E+03   -0.47182E-05   -0.31012E-07  1745   0.841E-04    0.134E-04
RMM:  25    -0.411764242697E+03   -0.27546E-05   -0.18123E-07  1528   0.699E-04    0.730E-05
RMM:  26    -0.411764244409E+03   -0.17116E-05   -0.10773E-07  1294   0.612E-04    0.506E-05
RMM:  27    -0.411764245136E+03   -0.72778E-06   -0.63433E-08  1105   0.550E-04
  147 T=  1529. E= -.40425444E+03 F= -.41176425E+03 E0= -.41174174E+03  EK= 0.75098E+01 SP= 0.00E+00 SK= 0.00E+00
       N       E                     dE             d eps       ncg     rms          rms(c)
RMM:   1    -0.410573033906E+03    0.11912E+01   -0.47019E+01  4338   0.103E+01    0.311E+00
RMM:   2    -0.412327937112E+03   -0.17549E+01   -0.83966E+00  4716   0.362E+00    0.256E+00
RMM:   3    -0.412442569747E+03   -0.11463E+00   -0.12990E+00  5448   0.130E+00    0.290E+00
RMM:   4    -0.412169701352E+03    0.27287E+00   -0.31828E-01  5497   0.593E-01    0.194E+00
RMM:   5    -0.412111051258E+03    0.58650E-01   -0.73859E-02  5286   0.328E-01    0.154E+00
RMM:   6    -0.412065698726E+03    0.45353E-01   -0.16499E-01  4959   0.408E-01    0.905E-01
RMM:   7    -0.412073829479E+03   -0.81308E-02   -0.32632E-01  5096   0.595E-01    0.689E-01
RMM:   8    -0.412058598978E+03    0.15231E-01   -0.27296E-02  5468   0.212E-01    0.434E-01
RMM:   9    -0.412051406436E+03    0.71925E-02   -0.36642E-02  4672   0.197E-01    0.130E-01
RMM:  10    -0.412052011479E+03   -0.60504E-03   -0.68508E-03  5734   0.895E-02    0.965E-02
RMM:  11    -0.412051695632E+03    0.31585E-03   -0.13650E-03  4487   0.473E-02    0.410E-02
RMM:  12    -0.412051637644E+03    0.57988E-04   -0.47876E-04  5254   0.260E-02    0.302E-02
RMM:  13    -0.412051600102E+03    0.37541E-04   -0.18643E-04  4785   0.161E-02    0.138E-02
RMM:  14    -0.412051622175E+03   -0.22073E-04   -0.10549E-04  5907   0.105E-02    0.170E-02
RMM:  15    -0.412051655232E+03   -0.33057E-04   -0.32036E-05  4336   0.828E-03    0.705E-03
RMM:  16    -0.412051695025E+03   -0.39793E-04   -0.21064E-05  4233   0.576E-03    0.351E-03
RMM:  17    -0.412051752938E+03   -0.57913E-04   -0.78935E-06  3147   0.462E-03    0.215E-03
RMM:  18    -0.412051810453E+03   -0.57514E-04   -0.97680E-06  3261   0.450E-03    0.259E-03
RMM:  19    -0.412051856474E+03   -0.46021E-04   -0.86459E-06  3099   0.363E-03    0.182E-03
RMM:  20    -0.412051883110E+03   -0.26636E-04   -0.48663E-06  2922   0.235E-03    0.107E-03
RMM:  21    -0.412051904151E+03   -0.21041E-04   -0.35976E-06  2823   0.200E-03    0.674E-04
RMM:  22    -0.412051915726E+03   -0.11575E-04   -0.17847E-06  2277   0.142E-03    0.328E-04
RMM:  23    -0.412051924185E+03   -0.84590E-05   -0.73864E-07  2087   0.111E-03    0.369E-04
RMM:  24    -0.412051928505E+03   -0.43201E-05   -0.32400E-07  1696   0.833E-04    0.231E-04
RMM:  25    -0.412051931622E+03   -0.31173E-05   -0.22236E-07  1663   0.749E-04    0.113E-04
RMM:  26    -0.412051933495E+03   -0.18732E-05   -0.12386E-07  1285   0.628E-04    0.675E-05
RMM:  27    -0.412051934395E+03   -0.90014E-06   -0.71794E-08  1135   0.570E-04
  148 T=  1594. E= -.40422360E+03 F= -.41205193E+03 E0= -.41202797E+03  EK= 0.78283E+01 SP= 0.00E+00 SK= 0.00E+00
       N       E                     dE             d eps       ncg     rms          rms(c)
RMM:   1    -0.411639067668E+03    0.41287E+00   -0.70957E+01  4659   0.133E+01    0.273E+00
RMM:   2    -0.412883148832E+03   -0.12441E+01   -0.95791E+00  4957   0.362E+00    0.284E+00
RMM:   3    -0.413059303115E+03   -0.17615E+00   -0.14187E+00  5734   0.124E+00    0.312E+00
RMM:   4    -0.412810975809E+03    0.24833E+00   -0.25034E-01  5622   0.542E-01    0.251E+00
RMM:   5    -0.412761403568E+03    0.49572E-01   -0.15030E-01  5359   0.441E-01    0.204E+00
RMM:   6    -0.412684829056E+03    0.76575E-01   -0.81664E-01  4472   0.102E+00    0.788E-01
RMM:   7    -0.412696056474E+03   -0.11227E-01   -0.22094E-01  5683   0.507E-01    0.904E-01
RMM:   8    -0.412668135551E+03    0.27921E-01   -0.28691E-02  4460   0.221E-01    0.538E-01
RMM:   9    -0.412657803470E+03    0.10332E-01   -0.41937E-02  4720   0.218E-01    0.189E-01
RMM:  10    -0.412657739555E+03    0.63915E-04   -0.14913E-02  5868   0.123E-01    0.663E-02
RMM:  11    -0.412657765579E+03   -0.26024E-04   -0.17117E-03  5738   0.466E-02    0.407E-02
RMM:  12    -0.412657764610E+03    0.96868E-06   -0.36137E-04  5538   0.227E-02    0.316E-02
RMM:  13    -0.412657786640E+03   -0.22030E-04   -0.12327E-04  5544   0.131E-02    0.311E-02
RMM:  14    -0.412657780664E+03    0.59754E-05   -0.44616E-05  4405   0.883E-03    0.174E-02
RMM:  15    -0.412657831314E+03   -0.50649E-04   -0.94271E-05  4527   0.122E-02    0.349E-03
RMM:  16    -0.412657870111E+03   -0.38797E-04   -0.20419E-05  4089   0.544E-03    0.368E-03
RMM:  17    -0.412657918959E+03   -0.48848E-04   -0.56285E-06  3012   0.386E-03    0.229E-03
RMM:  18    -0.412657964967E+03   -0.46008E-04   -0.56059E-06  2974   0.327E-03    0.224E-03
RMM:  19    -0.412658019406E+03   -0.54439E-04   -0.11866E-05  3241   0.410E-03    0.910E-04
RMM:  20    -0.412658044553E+03   -0.25147E-04   -0.79709E-06  3089   0.277E-03    0.860E-04
RMM:  21    -0.412658054390E+03   -0.98376E-05   -0.17933E-06  2344   0.148E-03    0.605E-04
RMM:  22    -0.412658060616E+03   -0.62258E-05   -0.59220E-07  1959   0.104E-03    0.412E-04
RMM:  23    -0.412658067414E+03   -0.67985E-05   -0.47442E-07  1999   0.946E-04    0.207E-04
RMM:  24    -0.412658070761E+03   -0.33470E-05   -0.24007E-07  1571   0.734E-04    0.131E-04
RMM:  25    -0.412658073611E+03   -0.28497E-05   -0.17039E-07  1459   0.680E-04    0.104E-04
RMM:  26    -0.412658074912E+03   -0.13005E-05   -0.10091E-07  1291   0.594E-04    0.786E-05
RMM:  27    -0.412658075721E+03   -0.80899E-06   -0.56069E-08  1061   0.534E-04
  149 T=  1696. E= -.40432502E+03 F= -.41265808E+03 E0= -.41263356E+03  EK= 0.83331E+01 SP= 0.00E+00 SK= 0.00E+00
       N       E                     dE             d eps       ncg     rms          rms(c)
RMM:   1    -0.409517656176E+03    0.31404E+01   -0.92392E+01  5563   0.177E+01    0.302E+00
RMM:   2    -0.412314658473E+03   -0.27970E+01   -0.12402E+01  5079   0.426E+00    0.504E+00
RMM:   3    -0.412283543548E+03    0.31115E-01   -0.17880E+00  5940   0.138E+00    0.523E+00
RMM:   4    -0.412238014995E+03    0.45529E-01   -0.22042E-01  6253   0.441E-01    0.522E+00
RMM:   5    -0.412245503010E+03   -0.74880E-02   -0.33076E-02  6313   0.149E-01    0.530E+00
RMM:   6    -0.411829359140E+03    0.41614E+00   -0.12679E+00  4415   0.147E+00    0.234E+00
RMM:   7    -0.412078222626E+03   -0.24886E+00   -0.24825E+00  4436   0.202E+00    0.286E+00
RMM:   8    -0.411965770335E+03    0.11245E+00   -0.29142E-01  5658   0.606E-01    0.238E+00
RMM:   9    -0.411809424905E+03    0.15635E+00   -0.19748E-01  4322   0.602E-01    0.132E+00
RMM:  10    -0.411773587213E+03    0.35838E-01   -0.16713E-01  5011   0.500E-01    0.650E-01
RMM:  11    -0.411769510523E+03    0.40767E-02   -0.43349E-02  5634   0.242E-01    0.307E-01
RMM:  12    -0.411769628769E+03   -0.11825E-03   -0.56269E-03  5811   0.942E-02    0.234E-01
RMM:  13    -0.411768751493E+03    0.87728E-03   -0.81811E-03  4927   0.113E-01    0.587E-02
RMM:  14    -0.411768795336E+03   -0.43843E-04   -0.11435E-03  5855   0.399E-02    0.394E-02
RMM:  15    -0.411768800009E+03   -0.46731E-05   -0.27847E-04  5580   0.213E-02    0.248E-02
RMM:  16    -0.411768831806E+03   -0.31796E-04   -0.64110E-05  5824   0.936E-03    0.139E-02
RMM:  17    -0.411768879563E+03   -0.47757E-04   -0.37992E-05  5189   0.859E-03    0.424E-03
RMM:  18    -0.411768911144E+03   -0.31581E-04   -0.95790E-06  3467   0.395E-03    0.340E-03
RMM:  19    -0.411768944290E+03   -0.33146E-04   -0.45516E-06  2960   0.314E-03    0.348E-03
RMM:  20    -0.411768979845E+03   -0.35555E-04   -0.40757E-06  2864   0.285E-03    0.156E-03
RMM:  21    -0.411769015810E+03   -0.35965E-04   -0.61772E-06  3010   0.309E-03    0.102E-03
RMM:  22    -0.411769029714E+03   -0.13905E-04   -0.24973E-06  2683   0.170E-03    0.808E-04
RMM:  23    -0.411769042831E+03   -0.13117E-04   -0.15968E-06  2547   0.144E-03    0.725E-04
RMM:  24    -0.411769055906E+03   -0.13074E-04   -0.21322E-06  2487   0.149E-03    0.459E-04
RMM:  25    -0.411769061487E+03   -0.55817E-05   -0.72693E-07  1884   0.973E-04    0.216E-04
RMM:  26    -0.411769064621E+03   -0.31331E-05   -0.26412E-07  1471   0.759E-04    0.130E-04
RMM:  27    -0.411769066658E+03   -0.20377E-05   -0.14430E-07  1369   0.666E-04    0.919E-05
RMM:  28    -0.411769068074E+03   -0.14155E-05   -0.86376E-08  1237   0.613E-04    0.664E-05
RMM:  29    -0.411769069174E+03   -0.11007E-05   -0.62723E-08  1189   0.577E-04    0.647E-05
RMM:  30    -0.411769069600E+03   -0.42511E-06   -0.26826E-08   906   0.519E-04
  150 T=  1467. E= -.40456550E+03 F= -.41176907E+03 E0= -.41174710E+03  EK= 0.72036E+01 SP= 0.00E+00 SK= 0.00E+00
