       N       E                     dE             d eps       ncg     rms          rms(c)
RMM:   1     0.220144061575E+04    0.22014E+04   -0.52438E+04  2132   0.654E+02
RMM:   2     0.705075692096E+03   -0.14964E+04   -0.16264E+04  2132   0.177E+02
RMM:   3     0.137777887195E+03   -0.56730E+03   -0.65681E+03  2132   0.117E+02
RMM:   4    -0.159420778782E+03   -0.29720E+03   -0.27844E+03  2132   0.936E+01
RMM:   5    -0.287395894162E+03   -0.12798E+03   -0.11428E+03  2132   0.595E+01
RMM:   6    -0.349773383333E+03   -0.62377E+02   -0.55148E+02  2132   0.423E+01
RMM:   7    -0.382722912792E+03   -0.32950E+02   -0.30431E+02  2132   0.293E+01
RMM:   8    -0.404179847078E+03   -0.21457E+02   -0.18446E+02  2132   0.233E+01
RMM:   9    -0.435990071462E+03   -0.31810E+02   -0.30749E+02  6111   0.173E+01
RMM:  10    -0.441330690946E+03   -0.53406E+01   -0.63644E+01  6394   0.539E+00
RMM:  11    -0.442492141196E+03   -0.11615E+01   -0.10877E+01  6224   0.173E+00
RMM:  12    -0.442869957345E+03   -0.37782E+00   -0.26017E+00  6373   0.598E-01    0.134E+02
RMM:  13    -0.425573929201E+03    0.17296E+02   -0.81100E+01  4676   0.119E+01    0.712E+01
RMM:  14    -0.498911603742E+03   -0.73338E+02   -0.53953E+02  5420   0.232E+01    0.306E+01
RMM:  15    -0.413357112404E+03    0.85554E+02   -0.19231E+02  5037   0.162E+01    0.553E+00
RMM:  16    -0.414130633045E+03   -0.77352E+00   -0.39214E+01  6071   0.599E+00    0.435E+00
RMM:  17    -0.413248372716E+03    0.88226E+00   -0.21169E+00  5303   0.176E+00    0.253E+00
RMM:  18    -0.413158061677E+03    0.90311E-01   -0.10621E+00  5906   0.108E+00    0.153E+00
RMM:  19    -0.413169329897E+03   -0.11268E-01   -0.28648E-01  5791   0.560E-01    0.872E-01
RMM:  20    -0.413181491483E+03   -0.12162E-01   -0.15902E-01  5154   0.467E-01    0.509E-01
RMM:  21    -0.413167870235E+03    0.13621E-01   -0.31129E-02  5022   0.216E-01    0.254E-01
RMM:  22    -0.413166479663E+03    0.13906E-02   -0.11856E-02  6123   0.918E-02    0.165E-01
RMM:  23    -0.413164397988E+03    0.20817E-02   -0.53483E-03  5805   0.697E-02    0.808E-02
RMM:  24    -0.413162966033E+03    0.14320E-02   -0.24791E-03  5832   0.485E-02    0.329E-02
RMM:  25    -0.413162838100E+03    0.12793E-03   -0.69119E-04  5917   0.219E-02    0.247E-02
RMM:  26    -0.413163078800E+03   -0.24070E-03   -0.32111E-04  5558   0.197E-02    0.214E-02
RMM:  27    -0.413163527197E+03   -0.44840E-03   -0.15934E-04  4471   0.177E-02    0.125E-02
RMM:  28    -0.413164022675E+03   -0.49548E-03   -0.13619E-04  4617   0.180E-02    0.817E-03
RMM:  29    -0.413164390926E+03   -0.36825E-03   -0.11381E-04  4365   0.148E-02    0.288E-03
RMM:  30    -0.413164564778E+03   -0.17385E-03   -0.72620E-05  3961   0.866E-03    0.251E-03
RMM:  31    -0.413164633474E+03   -0.68696E-04   -0.34925E-05  3039   0.470E-03    0.127E-03
RMM:  32    -0.413164652591E+03   -0.19117E-04   -0.14006E-05  2896   0.250E-03    0.734E-04
RMM:  33    -0.413164656160E+03   -0.35696E-05   -0.71170E-06  2683   0.157E-03    0.723E-04
RMM:  34    -0.413164657676E+03   -0.15162E-05   -0.24981E-06  2064   0.118E-03    0.411E-04
RMM:  35    -0.413164657305E+03    0.37187E-06   -0.41461E-06  1487   0.882E-04
    1 T=    61. E= -.41286687E+03 F= -.41316466E+03 E0= -.41314216E+03  EK= 0.29778E+00 SP= 0.00E+00 SK= 0.00E+00
       N       E                     dE             d eps       ncg     rms          rms(c)
RMM:   1    -0.413162056335E+03    0.26013E-02   -0.94093E+00  4023   0.643E-01    0.886E-01
RMM:   2    -0.413168074464E+03   -0.60181E-02   -0.11556E-01  4037   0.921E-02    0.649E-01
RMM:   3    -0.413165044513E+03    0.30300E-02   -0.14288E-02  4964   0.516E-02    0.129E-01
RMM:   4    -0.413199601432E+03   -0.34557E-01   -0.38432E-02  5194   0.162E-01    0.774E-01
RMM:   5    -0.413164160524E+03    0.35441E-01   -0.17022E-02  4833   0.130E-01    0.510E-02
RMM:   6    -0.413164375143E+03   -0.21462E-03   -0.29764E-03  5785   0.529E-02    0.332E-02
RMM:   7    -0.413164388553E+03   -0.13410E-04   -0.48161E-04  5781   0.196E-02    0.216E-02
RMM:   8    -0.413164387858E+03    0.69512E-06   -0.75161E-05  5273   0.907E-03    0.100E-02
RMM:   9    -0.413164389144E+03   -0.12862E-05   -0.15540E-05  4107   0.422E-03    0.709E-03
RMM:  10    -0.413164394291E+03   -0.51468E-05   -0.26773E-06  2637   0.225E-03    0.448E-03
RMM:  11    -0.413164398423E+03   -0.41317E-05   -0.12934E-06  2527   0.169E-03    0.262E-03
RMM:  12    -0.413164406102E+03   -0.76795E-05   -0.20135E-06  2595   0.202E-03    0.106E-03
RMM:  13    -0.413164409430E+03   -0.33277E-05   -0.79954E-07  2425   0.138E-03    0.884E-04
RMM:  14    -0.413164409023E+03    0.40731E-06   -0.36179E-07  1964   0.904E-04
    2 T=    61. E= -.41286671E+03 F= -.41316441E+03 E0= -.41314191E+03  EK= 0.29769E+00 SP= 0.00E+00 SK= 0.00E+00
       N       E                     dE             d eps       ncg     rms          rms(c)
RMM:   1    -0.413162876926E+03    0.15325E-02   -0.94135E+00  4196   0.648E-01    0.905E-01
RMM:   2    -0.413168140883E+03   -0.52640E-02   -0.11389E-01  4070   0.909E-02    0.644E-01
RMM:   3    -0.413165193589E+03    0.29473E-02   -0.13439E-02  4738   0.456E-02    0.105E-01
RMM:   4    -0.413186086781E+03   -0.20893E-01   -0.21498E-02  5177   0.122E-01    0.606E-01
RMM:   5    -0.413164832661E+03    0.21254E-01   -0.10409E-02  4840   0.101E-01    0.451E-02
RMM:   6    -0.413164974637E+03   -0.14198E-03   -0.18551E-03  5797   0.415E-02    0.306E-02
RMM:   7    -0.413164968228E+03    0.64088E-05   -0.34572E-04  5607   0.179E-02    0.191E-02
RMM:   8    -0.413164958434E+03    0.97947E-05   -0.50788E-05  4940   0.801E-03    0.905E-03
RMM:   9    -0.413164957213E+03    0.12205E-05   -0.10597E-05  3652   0.361E-03    0.696E-03
RMM:  10    -0.413164957606E+03   -0.39300E-06   -0.18502E-06  2560   0.221E-03
    3 T=    61. E= -.41286706E+03 F= -.41316496E+03 E0= -.41314246E+03  EK= 0.29790E+00 SP= 0.00E+00 SK= 0.00E+00
       N       E                     dE             d eps       ncg     rms          rms(c)
RMM:   1    -0.413162550808E+03    0.24064E-02   -0.93463E+00  4220   0.651E-01    0.890E-01
RMM:   2    -0.413167754179E+03   -0.52034E-02   -0.11337E-01  4226   0.907E-02    0.639E-01
RMM:   3    -0.413168867027E+03   -0.11128E-02   -0.16212E-02  5151   0.738E-02    0.285E-01
RMM:   4    -0.413193371314E+03   -0.24504E-01   -0.41112E-02  5125   0.172E-01    0.699E-01
RMM:   5    -0.413164662902E+03    0.28708E-01   -0.11650E-02  4726   0.115E-01    0.602E-02
RMM:   6    -0.413164707702E+03   -0.44800E-04   -0.21659E-03  5530   0.465E-02    0.310E-02
RMM:   7    -0.413164731893E+03   -0.24192E-04   -0.38578E-04  6013   0.172E-02    0.190E-02
RMM:   8    -0.413164728850E+03    0.30430E-05   -0.68400E-05  5218   0.919E-03    0.807E-03
RMM:   9    -0.413164726746E+03    0.21045E-05   -0.91034E-06  3469   0.371E-03    0.411E-03
RMM:  10    -0.413164727934E+03   -0.11877E-05   -0.20659E-06  2586   0.221E-03    0.269E-03
RMM:  11    -0.413164729611E+03   -0.16775E-05   -0.13908E-06  2530   0.185E-03    0.153E-03
RMM:  12    -0.413164730525E+03   -0.91435E-06   -0.80116E-07  2494   0.144E-03
    4 T=    61. E= -.41286683E+03 F= -.41316473E+03 E0= -.41314224E+03  EK= 0.29790E+00 SP= 0.00E+00 SK= 0.00E+00
       N       E                     dE             d eps       ncg     rms          rms(c)
RMM:   1    -0.413162055222E+03    0.26744E-02   -0.94024E+00  4237   0.645E-01    0.883E-01
RMM:   2    -0.413168288561E+03   -0.62333E-02   -0.11544E-01  4094   0.885E-02    0.648E-01
RMM:   3    -0.413165381054E+03    0.29075E-02   -0.14070E-02  4950   0.464E-02    0.117E-01
RMM:   4    -0.413196297379E+03   -0.30916E-01   -0.32725E-02  5141   0.151E-01    0.734E-01
RMM:   5    -0.413164687589E+03    0.31610E-01   -0.15086E-02  4814   0.122E-01    0.487E-02
RMM:   6    -0.413164882202E+03   -0.19461E-03   -0.25627E-03  5762   0.495E-02    0.320E-02
RMM:   7    -0.413164888336E+03   -0.61344E-05   -0.42700E-04  5739   0.189E-02    0.204E-02
RMM:   8    -0.413164885557E+03    0.27794E-05   -0.64292E-05  5114   0.858E-03    0.945E-03
RMM:   9    -0.413164886516E+03   -0.95924E-06   -0.12686E-05  3871   0.398E-03    0.694E-03
RMM:  10    -0.413164890545E+03   -0.40294E-05   -0.18988E-06  2576   0.217E-03    0.433E-03
RMM:  11    -0.413164894381E+03   -0.38356E-05   -0.12349E-06  2533   0.175E-03    0.234E-03
RMM:  12    -0.413164900116E+03   -0.57348E-05   -0.18288E-06  2593   0.194E-03    0.102E-03
RMM:  13    -0.413164901658E+03   -0.15425E-05   -0.55262E-07  2363   0.126E-03    0.703E-04
RMM:  14    -0.413164901602E+03    0.56356E-07   -0.23178E-07  1849   0.836E-04
    5 T=    61. E= -.41286683E+03 F= -.41316490E+03 E0= -.41314242E+03  EK= 0.29807E+00 SP= 0.00E+00 SK= 0.00E+00
       N       E                     dE             d eps       ncg     rms          rms(c)
RMM:   1    -0.413162943249E+03    0.19584E-02   -0.94256E+00  4247   0.653E-01    0.902E-01
RMM:   2    -0.413168317416E+03   -0.53742E-02   -0.11442E-01  4108   0.915E-02    0.646E-01
RMM:   3    -0.413165613987E+03    0.27034E-02   -0.13547E-02  4828   0.436E-02    0.107E-01
RMM:   4    -0.413188677915E+03   -0.23064E-01   -0.23770E-02  5147   0.128E-01    0.636E-01
RMM:   5    -0.413165191690E+03    0.23486E-01   -0.11345E-02  4816   0.105E-01    0.461E-02
RMM:   6    -0.413165353887E+03   -0.16220E-03   -0.20601E-03  5774   0.434E-02    0.317E-02
RMM:   7    -0.413165349730E+03    0.41564E-05   -0.37442E-04  5620   0.183E-02    0.198E-02
RMM:   8    -0.413165340623E+03    0.91068E-05   -0.52088E-05  4953   0.804E-03    0.925E-03
RMM:   9    -0.413165339355E+03    0.12682E-05   -0.10225E-05  3603   0.362E-03    0.706E-03
RMM:  10    -0.413165339897E+03   -0.54159E-06   -0.17584E-06  2548   0.220E-03
    6 T=    61. E= -.41286694E+03 F= -.41316534E+03 E0= -.41314288E+03  EK= 0.29840E+00 SP= 0.00E+00 SK= 0.00E+00
       N       E                     dE             d eps       ncg     rms          rms(c)
RMM:   1    -0.413162566468E+03    0.27729E-02   -0.93801E+00  4255   0.653E-01    0.897E-01
RMM:   2    -0.413168103009E+03   -0.55365E-02   -0.11379E-01  4262   0.893E-02    0.640E-01
RMM:   3    -0.413169346207E+03   -0.12432E-02   -0.16289E-02  5126   0.732E-02    0.289E-01
RMM:   4    -0.413193254083E+03   -0.23908E-01   -0.40676E-02  5104   0.171E-01    0.693E-01
RMM:   5    -0.413165059672E+03    0.28194E-01   -0.11344E-02  4717   0.113E-01    0.601E-02
RMM:   6    -0.413165107773E+03   -0.48101E-04   -0.21357E-03  5502   0.460E-02    0.313E-02
RMM:   7    -0.413165126282E+03   -0.18508E-04   -0.37806E-04  6000   0.173E-02    0.190E-02
RMM:   8    -0.413165120625E+03    0.56566E-05   -0.67251E-05  5202   0.921E-03    0.804E-03
RMM:   9    -0.413165116991E+03    0.36338E-05   -0.88208E-06  3448   0.368E-03    0.412E-03
RMM:  10    -0.413165116956E+03    0.35525E-07   -0.20241E-06  2576   0.220E-03
    7 T=    61. E= -.41286663E+03 F= -.41316512E+03 E0= -.41314267E+03  EK= 0.29849E+00 SP= 0.00E+00 SK= 0.00E+00
       N       E                     dE             d eps       ncg     rms          rms(c)
RMM:   1    -0.413162813214E+03    0.23038E-02   -0.94009E+00  4270   0.660E-01    0.882E-01
RMM:   2    -0.413169231971E+03   -0.64188E-02   -0.11514E-01  4154   0.898E-02    0.646E-01
RMM:   3    -0.413166253160E+03    0.29788E-02   -0.13907E-02  4932   0.486E-02    0.123E-01
RMM:   4    -0.413198848760E+03   -0.32596E-01   -0.34679E-02  5137   0.155E-01    0.753E-01
RMM:   5    -0.413165499298E+03    0.33349E-01   -0.15915E-02  4803   0.125E-01    0.498E-02
RMM:   6    -0.413165691617E+03   -0.19232E-03   -0.26873E-03  5763   0.509E-02    0.326E-02
RMM:   7    -0.413165695573E+03   -0.39554E-05   -0.44436E-04  5781   0.191E-02    0.206E-02
RMM:   8    -0.413165693057E+03    0.25155E-05   -0.65091E-05  5145   0.874E-03    0.948E-03
RMM:   9    -0.413165692824E+03    0.23385E-06   -0.12773E-05  3838   0.400E-03    0.681E-03
RMM:  10    -0.413165695681E+03   -0.28578E-05   -0.19538E-06  2570   0.217E-03    0.426E-03
RMM:  11    -0.413165698395E+03   -0.27140E-05   -0.12554E-06  2525   0.176E-03    0.222E-03
RMM:  12    -0.413165702123E+03   -0.37272E-05   -0.18117E-06  2595   0.191E-03    0.978E-04
RMM:  13    -0.413165703005E+03   -0.88263E-06   -0.54033E-07  2349   0.125E-03
    8 T=    61. E= -.41286691E+03 F= -.41316570E+03 E0= -.41314327E+03  EK= 0.29879E+00 SP= 0.00E+00 SK= 0.00E+00
       N       E                     dE             d eps       ncg     rms          rms(c)
RMM:   1    -0.413163251650E+03    0.24505E-02   -0.94471E+00  4285   0.665E-01    0.897E-01
RMM:   2    -0.413169309531E+03   -0.60579E-02   -0.11497E-01  4177   0.916E-02    0.648E-01
RMM:   3    -0.413166159495E+03    0.31500E-02   -0.13632E-02  4797   0.452E-02    0.104E-01
RMM:   4    -0.413189273845E+03   -0.23114E-01   -0.23771E-02  5144   0.128E-01    0.637E-01
RMM:   5    -0.413165738973E+03    0.23535E-01   -0.11378E-02  4815   0.105E-01    0.454E-02
RMM:   6    -0.413165888087E+03   -0.14911E-03   -0.20588E-03  5811   0.429E-02    0.299E-02
RMM:   7    -0.413165890360E+03   -0.22727E-05   -0.33700E-04  5656   0.176E-02    0.190E-02
RMM:   8    -0.413165881641E+03    0.87188E-05   -0.57908E-05  4951   0.826E-03    0.947E-03
RMM:   9    -0.413165879889E+03    0.17516E-05   -0.11254E-05  3797   0.383E-03    0.727E-03
RMM:  10    -0.413165880452E+03   -0.56259E-06   -0.17220E-06  2550   0.219E-03
    9 T=    61. E= -.41286688E+03 F= -.41316588E+03 E0= -.41314347E+03  EK= 0.29900E+00 SP= 0.00E+00 SK= 0.00E+00
       N       E                     dE             d eps       ncg     rms          rms(c)
RMM:   1    -0.413163536430E+03    0.23435E-02   -0.94246E+00  4295   0.667E-01    0.904E-01
RMM:   2    -0.413169060183E+03   -0.55238E-02   -0.11399E-01  4281   0.924E-02    0.641E-01
RMM:   3    -0.413170450840E+03   -0.13907E-02   -0.16495E-02  5109   0.761E-02    0.297E-01
RMM:   4    -0.413193055014E+03   -0.22604E-01   -0.39916E-02  5089   0.170E-01    0.680E-01
RMM:   5    -0.413165902053E+03    0.27153E-01   -0.10775E-02  4709   0.111E-01    0.591E-02
RMM:   6    -0.413165950828E+03   -0.48775E-04   -0.20672E-03  5498   0.449E-02    0.316E-02
RMM:   7    -0.413165961219E+03   -0.10391E-04   -0.36337E-04  5974   0.169E-02    0.190E-02
RMM:   8    -0.413165954641E+03    0.65775E-05   -0.64346E-05  5160   0.902E-03    0.796E-03
RMM:   9    -0.413165949980E+03    0.46614E-05   -0.84537E-06  3394   0.362E-03    0.409E-03
RMM:  10    -0.413165948848E+03    0.11314E-05   -0.19827E-06  2572   0.219E-03    0.267E-03
RMM:  11    -0.413165946980E+03    0.18680E-05   -0.13043E-06  2519   0.181E-03    0.147E-03
RMM:  12    -0.413165945183E+03    0.17979E-05   -0.76208E-07  2478   0.141E-03    0.560E-04
RMM:  13    -0.413165944132E+03    0.10505E-05   -0.38174E-07  2107   0.101E-03    0.319E-04
RMM:  14    -0.413165943086E+03    0.10465E-05   -0.23241E-07  1632   0.808E-04    0.217E-04
RMM:  15    -0.413165941566E+03    0.15198E-05   -0.21165E-07  1515   0.751E-04    0.134E-04
RMM:  16    -0.413165939825E+03    0.17403E-05   -0.18926E-07  1385   0.707E-04    0.128E-04
RMM:  17    -0.413165938183E+03    0.16423E-05   -0.14639E-07  1348   0.668E-04    0.711E-05
RMM:  18    -0.413165937090E+03    0.10936E-05   -0.85891E-08  1067   0.593E-04    0.377E-05
RMM:  19    -0.413165936494E+03    0.59590E-06   -0.46680E-08   876   0.549E-04
   10 T=    61. E= -.41286670E+03 F= -.41316594E+03 E0= -.41314355E+03  EK= 0.29923E+00 SP= 0.00E+00 SK= 0.00E+00
       N       E                     dE             d eps       ncg     rms          rms(c)
RMM:   1    -0.413165714296E+03    0.22279E-03   -0.94188E+00  4290   0.694E-01    0.882E-01
RMM:   2    -0.413170030263E+03   -0.43160E-02   -0.11990E-01  4221   0.962E-02    0.644E-01
RMM:   3    -0.413167201952E+03    0.28283E-02   -0.13284E-02  4886   0.488E-02    0.125E-01
RMM:   4    -0.413199701179E+03   -0.32499E-01   -0.34393E-02  5132   0.154E-01    0.752E-01
RMM:   5    -0.413166484465E+03    0.33217E-01   -0.15883E-02  4793   0.125E-01    0.500E-02
RMM:   6    -0.413166694679E+03   -0.21021E-03   -0.28038E-03  5752   0.506E-02    0.331E-02
RMM:   7    -0.413166699067E+03   -0.43883E-05   -0.44598E-04  5690   0.190E-02    0.210E-02
RMM:   8    -0.413166693335E+03    0.57317E-05   -0.65232E-05  5127   0.867E-03    0.971E-03
RMM:   9    -0.413166691865E+03    0.14708E-05   -0.13187E-05  3946   0.407E-03    0.710E-03
RMM:  10    -0.413166693295E+03   -0.14302E-05   -0.19075E-06  2570   0.217E-03    0.447E-03
RMM:  11    -0.413166694677E+03   -0.13826E-05   -0.11894E-06  2509   0.173E-03    0.246E-03
RMM:  12    -0.413166696840E+03   -0.21625E-05   -0.16965E-06  2565   0.194E-03    0.991E-04
RMM:  13    -0.413166697392E+03   -0.55192E-06   -0.55072E-07  2355   0.128E-03
   11 T=    61. E= -.41286697E+03 F= -.41316670E+03 E0= -.41314434E+03  EK= 0.29972E+00 SP= 0.00E+00 SK= 0.00E+00
       N       E                     dE             d eps       ncg     rms          rms(c)
RMM:   1    -0.413164175500E+03    0.25213E-02   -0.94775E+00  4292   0.685E-01    0.893E-01
RMM:   2    -0.413169969478E+03   -0.57940E-02   -0.11609E-01  4227   0.921E-02    0.650E-01
RMM:   3    -0.413166971195E+03    0.29983E-02   -0.13760E-02  4796   0.464E-02    0.105E-01
RMM:   4    -0.413192104311E+03   -0.25133E-01   -0.26073E-02  5128   0.134E-01    0.663E-01
RMM:   5    -0.413166478058E+03    0.25626E-01   -0.12337E-02  4800   0.110E-01    0.461E-02
RMM:   6    -0.413166649823E+03   -0.17176E-03   -0.22340E-03  5792   0.446E-02    0.303E-02
RMM:   7    -0.413166654023E+03   -0.42009E-05   -0.35424E-04  5665   0.178E-02    0.193E-02
RMM:   8    -0.413166646098E+03    0.79255E-05   -0.61331E-05  4966   0.842E-03    0.962E-03
RMM:   9    -0.413166644343E+03    0.17550E-05   -0.12087E-05  3887   0.396E-03    0.735E-03
RMM:  10    -0.413166645131E+03   -0.78832E-06   -0.17427E-06  2552   0.217E-03
   12 T=    61. E= -.41286665E+03 F= -.41316665E+03 E0= -.41314431E+03  EK= 0.30000E+00 SP= 0.00E+00 SK= 0.00E+00
       N       E                     dE             d eps       ncg     rms          rms(c)
RMM:   1    -0.413164877491E+03    0.17669E-02   -0.94724E+00  4299   0.680E-01    0.909E-01
RMM:   2    -0.413169949093E+03   -0.50716E-02   -0.11471E-01  4303   0.888E-02    0.644E-01
RMM:   3    -0.413172394288E+03   -0.24452E-02   -0.17153E-02  5121   0.780E-02    0.317E-01
RMM:   4    -0.413192485092E+03   -0.20091E-01   -0.39420E-02  5082   0.169E-01    0.657E-01
RMM:   5    -0.413167202249E+03    0.25283E-01   -0.97847E-03  4687   0.107E-01    0.591E-02
RMM:   6    -0.413167229224E+03   -0.26975E-04   -0.19249E-03  5470   0.433E-02    0.315E-02
RMM:   7    -0.413167241569E+03   -0.12345E-04   -0.34946E-04  5962   0.168E-02    0.189E-02
RMM:   8    -0.413167234107E+03    0.74621E-05   -0.63191E-05  5143   0.907E-03    0.787E-03
RMM:   9    -0.413167228532E+03    0.55746E-05   -0.81551E-06  3376   0.363E-03    0.400E-03
RMM:  10    -0.413167226748E+03    0.17836E-05   -0.18039E-06  2542   0.216E-03    0.257E-03
RMM:  11    -0.413167223789E+03    0.29599E-05   -0.13181E-06  2521   0.182E-03    0.147E-03
RMM:  12    -0.413167221235E+03    0.25537E-05   -0.70950E-07  2468   0.140E-03    0.571E-04
RMM:  13    -0.413167219632E+03    0.16033E-05   -0.36636E-07  2092   0.998E-04    0.327E-04
RMM:  14    -0.413167218158E+03    0.14738E-05   -0.22096E-07  1614   0.801E-04    0.222E-04
RMM:  15    -0.413167215807E+03    0.23511E-05   -0.20915E-07  1507   0.756E-04    0.139E-04
RMM:  16    -0.413167213565E+03    0.22418E-05   -0.17227E-07  1415   0.705E-04    0.130E-04
RMM:  17    -0.413167211273E+03    0.22918E-05   -0.14685E-07  1340   0.668E-04    0.724E-05
RMM:  18    -0.413167210253E+03    0.10200E-05   -0.69318E-08   986   0.574E-04    0.442E-05
RMM:  19    -0.413167209361E+03    0.89200E-06   -0.45502E-08   889   0.550E-04
   13 T=    61. E= -.41286672E+03 F= -.41316721E+03 E0= -.41314491E+03  EK= 0.30049E+00 SP= 0.00E+00 SK= 0.00E+00
       N       E                     dE             d eps       ncg     rms          rms(c)
RMM:   1    -0.413165248157E+03    0.19621E-02   -0.94198E+00  4293   0.694E-01    0.885E-01
RMM:   2    -0.413170980294E+03   -0.57321E-02   -0.11636E-01  4236   0.904E-02    0.642E-01
RMM:   3    -0.413168492075E+03    0.24882E-02   -0.13443E-02  4950   0.466E-02    0.130E-01
RMM:   4    -0.413202396289E+03   -0.33904E-01   -0.36407E-02  5129   0.158E-01    0.768E-01
RMM:   5    -0.413167698314E+03    0.34698E-01   -0.16621E-02  4788   0.127E-01    0.507E-02
RMM:   6    -0.413167903717E+03   -0.20540E-03   -0.28800E-03  5753   0.517E-02    0.336E-02
RMM:   7    -0.413167901569E+03    0.21476E-05   -0.45598E-04  5688   0.194E-02    0.212E-02
RMM:   8    -0.413167894302E+03    0.72666E-05   -0.68480E-05  5151   0.889E-03    0.996E-03
RMM:   9    -0.413167891048E+03    0.32546E-05   -0.13847E-05  4015   0.418E-03    0.716E-03
RMM:  10    -0.413167890805E+03    0.24293E-06   -0.19685E-06  2566   0.218E-03
   14 T=    61. E= -.41286687E+03 F= -.41316789E+03 E0= -.41314562E+03  EK= 0.30103E+00 SP= 0.00E+00 SK= 0.00E+00
       N       E                     dE             d eps       ncg     rms          rms(c)
RMM:   1    -0.413165107650E+03    0.27834E-02   -0.95098E+00  4304   0.690E-01    0.891E-01
RMM:   2    -0.413171518097E+03   -0.64104E-02   -0.11659E-01  4323   0.919E-02    0.652E-01
RMM:   3    -0.413174251153E+03   -0.27331E-02   -0.18519E-02  5128   0.839E-02    0.344E-01
RMM:   4    -0.413193278976E+03   -0.19028E-01   -0.41760E-02  5070   0.174E-01    0.656E-01
RMM:   5    -0.413167891065E+03    0.25388E-01   -0.95310E-03  4673   0.107E-01    0.586E-02
RMM:   6    -0.413167913082E+03   -0.22017E-04   -0.18641E-03  5443   0.425E-02    0.296E-02
RMM:   7    -0.413167932594E+03   -0.19512E-04   -0.33436E-04  5970   0.167E-02    0.182E-02
RMM:   8    -0.413167931171E+03    0.14231E-05   -0.63814E-05  5147   0.903E-03    0.760E-03
RMM:   9    -0.413167929105E+03    0.20663E-05   -0.82582E-06  3369   0.368E-03    0.383E-03
RMM:  10    -0.413167930193E+03   -0.10886E-05   -0.16681E-06  2540   0.208E-03    0.246E-03
RMM:  11    -0.413167931788E+03   -0.15949E-05   -0.13934E-06  2528   0.182E-03    0.150E-03
RMM:  12    -0.413167932235E+03   -0.44686E-06   -0.68782E-07  2467   0.138E-03
   15 T=    61. E= -.41286656E+03 F= -.41316793E+03 E0= -.41314570E+03  EK= 0.30137E+00 SP= 0.00E+00 SK= 0.00E+00
       N       E                     dE             d eps       ncg     rms          rms(c)
RMM:   1    -0.413166593513E+03    0.13383E-02   -0.95206E+00  4296   0.693E-01    0.910E-01
RMM:   2    -0.413172172285E+03   -0.55788E-02   -0.11545E-01  4257   0.927E-02    0.647E-01
RMM:   3    -0.413169620193E+03    0.25521E-02   -0.13586E-02  4926   0.496E-02    0.138E-01
RMM:   4    -0.413204470733E+03   -0.34851E-01   -0.37427E-02  5128   0.161E-01    0.778E-01
RMM:   5    -0.413168787853E+03    0.35683E-01   -0.17110E-02  4789   0.129E-01    0.515E-02
RMM:   6    -0.413168998946E+03   -0.21109E-03   -0.29858E-03  5764   0.526E-02    0.347E-02
RMM:   7    -0.413168993451E+03    0.54954E-05   -0.46781E-04  5723   0.200E-02    0.220E-02
RMM:   8    -0.413168981464E+03    0.11987E-04   -0.72959E-05  5167   0.919E-03    0.106E-02
RMM:   9    -0.413168975240E+03    0.62241E-05   -0.14387E-05  4077   0.430E-03    0.757E-03
RMM:  10    -0.413168971430E+03    0.38101E-05   -0.20982E-06  2579   0.228E-03    0.469E-03
RMM:  11    -0.413168968625E+03    0.28048E-05   -0.12471E-06  2511   0.178E-03    0.265E-03
RMM:  12    -0.413168963326E+03    0.52990E-05   -0.19433E-06  2592   0.208E-03    0.110E-03
RMM:  13    -0.413168960671E+03    0.26553E-05   -0.62352E-07  2395   0.137E-03    0.858E-04
RMM:  14    -0.413168960957E+03   -0.28643E-06   -0.25526E-07  1959   0.889E-04
   16 T=    61. E= -.41286690E+03 F= -.41316896E+03 E0= -.41314676E+03  EK= 0.30207E+00 SP= 0.00E+00 SK= 0.00E+00
       N       E                     dE             d eps       ncg     rms          rms(c)
RMM:   1    -0.413166592357E+03    0.23683E-02   -0.94570E+00  4299   0.699E-01    0.892E-01
RMM:   2    -0.413172693927E+03   -0.61016E-02   -0.11529E-01  4256   0.934E-02    0.642E-01
RMM:   3    -0.413169805897E+03    0.28880E-02   -0.13187E-02  4798   0.481E-02    0.117E-01
RMM:   4    -0.413197794217E+03   -0.27988E-01   -0.29265E-02  5126   0.142E-01    0.699E-01
RMM:   5    -0.413169234227E+03    0.28560E-01   -0.13830E-02  4794   0.116E-01    0.478E-02
RMM:   6    -0.413169415517E+03   -0.18129E-03   -0.24542E-03  5805   0.469E-02    0.318E-02
RMM:   7    -0.413169412398E+03    0.31187E-05   -0.38500E-04  5655   0.185E-02    0.200E-02
RMM:   8    -0.413169401090E+03    0.11309E-04   -0.65543E-05  5035   0.874E-03    0.100E-02
RMM:   9    -0.413169396253E+03    0.48369E-05   -0.13034E-05  3992   0.412E-03    0.752E-03
RMM:  10    -0.413169393809E+03    0.24432E-05   -0.18216E-06  2555   0.219E-03    0.467E-03
RMM:  11    -0.413169391566E+03    0.22435E-05   -0.13380E-06  2516   0.186E-03    0.246E-03
RMM:  12    -0.413169388169E+03    0.33973E-05   -0.15937E-06  2546   0.193E-03    0.963E-04
RMM:  13    -0.413169386851E+03    0.13178E-05   -0.50094E-07  2329   0.125E-03    0.632E-04
RMM:  14    -0.413169386705E+03    0.14599E-06   -0.22867E-07  1852   0.839E-04
   17 T=    62. E= -.41286674E+03 F= -.41316939E+03 E0= -.41314723E+03  EK= 0.30265E+00 SP= 0.00E+00 SK= 0.00E+00
       N       E                     dE             d eps       ncg     rms          rms(c)
RMM:   1    -0.413167063986E+03    0.23229E-02   -0.95456E+00  4297   0.705E-01    0.889E-01
RMM:   2    -0.413173398155E+03   -0.63342E-02   -0.11754E-01  4262   0.944E-02    0.653E-01
RMM:   3    -0.413170340415E+03    0.30577E-02   -0.13996E-02  4843   0.492E-02    0.114E-01
RMM:   4    -0.413200267474E+03   -0.29927E-01   -0.31543E-02  5119   0.147E-01    0.722E-01
RMM:   5    -0.413169695759E+03    0.30572E-01   -0.14730E-02  4792   0.119E-01    0.485E-02
RMM:   6    -0.413169891584E+03   -0.19583E-03   -0.26296E-03  5795   0.484E-02    0.320E-02
RMM:   7    -0.413169896335E+03   -0.47513E-05   -0.41527E-04  5657   0.187E-02    0.204E-02
RMM:   8    -0.413169888778E+03    0.75575E-05   -0.64562E-05  5073   0.865E-03    0.977E-03
RMM:   9    -0.413169886289E+03    0.24883E-05   -0.13081E-05  3954   0.409E-03    0.725E-03
RMM:  10    -0.413169886503E+03   -0.21404E-06   -0.18254E-06  2554   0.216E-03
   18 T=    62. E= -.41286658E+03 F= -.41316989E+03 E0= -.41314777E+03  EK= 0.30331E+00 SP= 0.00E+00 SK= 0.00E+00
       N       E                     dE             d eps       ncg     rms          rms(c)
RMM:   1    -0.413168606741E+03    0.12795E-02   -0.95715E+00  4301   0.709E-01    0.910E-01
RMM:   2    -0.413174132250E+03   -0.55255E-02   -0.11667E-01  4323   0.926E-02    0.650E-01
RMM:   3    -0.413176865651E+03   -0.27334E-02   -0.17665E-02  5117   0.818E-02    0.332E-01
RMM:   4    -0.413196125869E+03   -0.19260E-01   -0.40280E-02  5069   0.171E-01    0.652E-01
RMM:   5    -0.413171086726E+03    0.25039E-01   -0.95562E-03  4678   0.106E-01    0.585E-02
RMM:   6    -0.413171116014E+03   -0.29288E-04   -0.18693E-03  5443   0.424E-02    0.312E-02
RMM:   7    -0.413171126115E+03   -0.10101E-04   -0.34279E-04  5955   0.168E-02    0.190E-02
RMM:   8    -0.413171117901E+03    0.82145E-05   -0.64677E-05  5147   0.911E-03    0.791E-03
RMM:   9    -0.413171111422E+03    0.64784E-05   -0.82950E-06  3395   0.370E-03    0.396E-03
RMM:  10    -0.413171109245E+03    0.21772E-05   -0.17595E-06  2542   0.214E-03    0.253E-03
RMM:  11    -0.413171105420E+03    0.38256E-05   -0.12774E-06  2511   0.180E-03    0.147E-03
RMM:  12    -0.413171102225E+03    0.31944E-05   -0.65073E-07  2455   0.137E-03    0.552E-04
RMM:  13    -0.413171100151E+03    0.20739E-05   -0.33476E-07  2071   0.977E-04    0.318E-04
RMM:  14    -0.413171098331E+03    0.18208E-05   -0.19156E-07  1563   0.776E-04    0.217E-04
RMM:  15    -0.413171095181E+03    0.31495E-05   -0.17515E-07  1435   0.736E-04    0.132E-04
RMM:  16    -0.413171092505E+03    0.26764E-05   -0.13208E-07  1348   0.678E-04    0.128E-04
RMM:  17    -0.413171089393E+03    0.31121E-05   -0.12287E-07  1341   0.661E-04    0.725E-05
RMM:  18    -0.413171088029E+03    0.13632E-05   -0.59681E-08   976   0.571E-04    0.444E-05
RMM:  19    -0.413171087009E+03    0.10202E-05   -0.36044E-08   855   0.546E-04    0.303E-05
RMM:  20    -0.413171086647E+03    0.36238E-06   -0.18181E-08   737   0.524E-04
   19 T=    62. E= -.41286691E+03 F= -.41317109E+03 E0= -.41314901E+03  EK= 0.30418E+00 SP= 0.00E+00 SK= 0.00E+00
       N       E                     dE             d eps       ncg     rms          rms(c)
RMM:   1    -0.413168818315E+03    0.22687E-02   -0.95222E+00  4296   0.707E-01    0.900E-01
RMM:   2    -0.413174309752E+03   -0.54914E-02   -0.11622E-01  4268   0.911E-02    0.644E-01
RMM:   3    -0.413172225868E+03    0.20839E-02   -0.13473E-02  4972   0.486E-02    0.144E-01
RMM:   4    -0.413208765009E+03   -0.36539E-01   -0.39944E-02  5131   0.166E-01    0.796E-01
RMM:   5    -0.413171273693E+03    0.37491E-01   -0.18022E-02  4787   0.132E-01    0.524E-02
RMM:   6    -0.413171482897E+03   -0.20920E-03   -0.30596E-03  5760   0.534E-02    0.349E-02
RMM:   7    -0.413171480822E+03    0.20749E-05   -0.48146E-04  5688   0.201E-02    0.220E-02
RMM:   8    -0.413171470169E+03    0.10654E-04   -0.75212E-05  5211   0.935E-03    0.104E-02
RMM:   9    -0.413171463889E+03    0.62799E-05   -0.15043E-05  4121   0.437E-03    0.725E-03
RMM:  10    -0.413171460412E+03    0.34769E-05   -0.21602E-06  2584   0.225E-03    0.455E-03
RMM:  11    -0.413171457861E+03    0.25504E-05   -0.11466E-06  2507   0.171E-03    0.258E-03
RMM:  12    -0.413171453189E+03    0.46721E-05   -0.17091E-06  2558   0.199E-03    0.106E-03
RMM:  13    -0.413171450716E+03    0.24734E-05   -0.60481E-07  2385   0.135E-03    0.870E-04
RMM:  14    -0.413171450974E+03   -0.25804E-06   -0.25291E-07  1954   0.885E-04
   20 T=    62. E= -.41286665E+03 F= -.41317145E+03 E0= -.41314942E+03  EK= 0.30480E+00 SP= 0.00E+00 SK= 0.00E+00
       N       E                     dE             d eps       ncg     rms          rms(c)
RMM:   1    -0.413169684468E+03    0.17662E-02   -0.95810E+00  4294   0.719E-01    0.890E-01
RMM:   2    -0.413176067887E+03   -0.63834E-02   -0.11842E-01  4278   0.918E-02    0.653E-01
RMM:   3    -0.413172962550E+03    0.31053E-02   -0.13830E-02  4865   0.455E-02    0.108E-01
RMM:   4    -0.413199570850E+03   -0.26608E-01   -0.27868E-02  5126   0.139E-01    0.681E-01
RMM:   5    -0.413172434666E+03    0.27136E-01   -0.13221E-02  4794   0.113E-01    0.465E-02
RMM:   6    -0.413172597625E+03   -0.16296E-03   -0.23009E-03  5815   0.451E-02    0.296E-02
RMM:   7    -0.413172602035E+03   -0.44097E-05   -0.33240E-04  5673   0.175E-02    0.180E-02
RMM:   8    -0.413172595259E+03    0.67761E-05   -0.67207E-05  5016   0.859E-03    0.100E-02
RMM:   9    -0.413172591092E+03    0.41668E-05   -0.12906E-05  4042   0.418E-03    0.741E-03
RMM:  10    -0.413172590419E+03    0.67314E-06   -0.17550E-06  2553   0.216E-03
   21 T=    62. E= -.41286691E+03 F= -.41317259E+03 E0= -.41315060E+03  EK= 0.30568E+00 SP= 0.00E+00 SK= 0.00E+00
       N       E                     dE             d eps       ncg     rms          rms(c)
RMM:   1    -0.413173120933E+03   -0.52984E-03   -0.96507E+00  4300   0.756E-01    0.908E-01
RMM:   2    -0.413177008936E+03   -0.38880E-02   -0.11767E-01  4322   0.948E-02    0.654E-01
RMM:   3    -0.413178211519E+03   -0.12026E-02   -0.16846E-02  5112   0.759E-02    0.297E-01
RMM:   4    -0.413203539790E+03   -0.25328E-01   -0.43584E-02  5095   0.176E-01    0.712E-01
RMM:   5    -0.413173594539E+03    0.29945E-01   -0.12087E-02  4706   0.116E-01    0.580E-02
RMM:   6    -0.413173667300E+03   -0.72760E-04   -0.22679E-03  5574   0.467E-02    0.315E-02
RMM:   7    -0.413173675095E+03   -0.77953E-05   -0.37777E-04  5934   0.175E-02    0.195E-02
RMM:   8    -0.413173667875E+03    0.72196E-05   -0.68709E-05  5159   0.925E-03    0.828E-03
RMM:   9    -0.413173661458E+03    0.64174E-05   -0.95998E-06  3521   0.384E-03    0.426E-03
RMM:  10    -0.413173659122E+03    0.23358E-05   -0.21206E-06  2586   0.220E-03    0.284E-03
RMM:  11    -0.413173655749E+03    0.33729E-05   -0.11540E-06  2499   0.174E-03    0.149E-03
RMM:  12    -0.413173652066E+03    0.36836E-05   -0.72031E-07  2462   0.139E-03    0.506E-04
RMM:  13    -0.413173650127E+03    0.19392E-05   -0.34876E-07  2084   0.997E-04    0.310E-04
RMM:  14    -0.413173648640E+03    0.14864E-05   -0.19494E-07  1605   0.781E-04    0.220E-04
RMM:  15    -0.413173645823E+03    0.28175E-05   -0.15402E-07  1399   0.722E-04    0.123E-04
RMM:  16    -0.413173643053E+03    0.27700E-05   -0.12266E-07  1317   0.682E-04    0.143E-04
RMM:  17    -0.413173640746E+03    0.23068E-05   -0.88116E-08  1166   0.630E-04    0.781E-05
RMM:  18    -0.413173638269E+03    0.24774E-05   -0.73934E-08  1125   0.609E-04    0.297E-05
RMM:  19    -0.413173637332E+03    0.93614E-06   -0.35291E-08   852   0.552E-04
   22 T=    62. E= -.41286701E+03 F= -.41317364E+03 E0= -.41315169E+03  EK= 0.30663E+00 SP= 0.00E+00 SK= 0.00E+00
       N       E                     dE             d eps       ncg     rms          rms(c)
RMM:   1    -0.413171770944E+03    0.18673E-02   -0.96113E+00  4295   0.723E-01    0.909E-01
RMM:   2    -0.413177575620E+03   -0.58047E-02   -0.11733E-01  4280   0.947E-02    0.648E-01
RMM:   3    -0.413174928047E+03    0.26476E-02   -0.13427E-02  4902   0.494E-02    0.134E-01
RMM:   4    -0.413208431270E+03   -0.33503E-01   -0.35725E-02  5131   0.157E-01    0.762E-01
RMM:   5    -0.413174186824E+03    0.34244E-01   -0.16600E-02  4787   0.127E-01    0.509E-02
RMM:   6    -0.413174381627E+03   -0.19480E-03   -0.29142E-03  5800   0.514E-02    0.344E-02
RMM:   7    -0.413174374080E+03    0.75468E-05   -0.44145E-04  5673   0.198E-02    0.214E-02
RMM:   8    -0.413174361756E+03    0.12324E-04   -0.75180E-05  5131   0.931E-03    0.108E-02
RMM:   9    -0.413174354401E+03    0.73557E-05   -0.14791E-05  4119   0.439E-03    0.775E-03
RMM:  10    -0.413174349680E+03    0.47207E-05   -0.21021E-06  2582   0.227E-03    0.484E-03
RMM:  11    -0.413174345958E+03    0.37223E-05   -0.12454E-06  2507   0.180E-03    0.271E-03
RMM:  12    -0.413174339528E+03    0.64297E-05   -0.18564E-06  2570   0.209E-03    0.111E-03
RMM:  13    -0.413174336881E+03    0.26470E-05   -0.58639E-07  2374   0.137E-03    0.800E-04
RMM:  14    -0.413174336930E+03   -0.49589E-07   -0.25835E-07  1984   0.894E-04
   23 T=    63. E= -.41286673E+03 F= -.41317434E+03 E0= -.41315244E+03  EK= 0.30761E+00 SP= 0.00E+00 SK= 0.00E+00
       N       E                     dE             d eps       ncg     rms          rms(c)
RMM:   1    -0.413172994742E+03    0.13421E-02   -0.96326E+00  4295   0.738E-01    0.892E-01
RMM:   2    -0.413179681329E+03   -0.66866E-02   -0.11928E-01  4282   0.969E-02    0.653E-01
RMM:   3    -0.413176189342E+03    0.34920E-02   -0.13543E-02  4766   0.464E-02    0.101E-01
RMM:   4    -0.413197931540E+03   -0.21742E-01   -0.22401E-02  5133   0.125E-01    0.617E-01
RMM:   5    -0.413175814462E+03    0.22117E-01   -0.10913E-02  4805   0.102E-01    0.446E-02
RMM:   6    -0.413175936259E+03   -0.12180E-03   -0.19220E-03  5827   0.407E-02    0.276E-02
RMM:   7    -0.413175936817E+03   -0.55792E-06   -0.23730E-04  5632   0.153E-02    0.142E-02
RMM:   8    -0.413175933373E+03    0.34442E-05   -0.48711E-05  4954   0.722E-03    0.951E-03
RMM:   9    -0.413175929234E+03    0.41388E-05   -0.10542E-05  3808   0.372E-03    0.716E-03
RMM:  10    -0.413175927816E+03    0.14177E-05   -0.16093E-06  2540   0.218E-03    0.440E-03
RMM:  11    -0.413175926045E+03    0.17713E-05   -0.15889E-06  2539   0.200E-03    0.222E-03
RMM:  12    -0.413175923375E+03    0.26700E-05   -0.13117E-06  2503   0.181E-03    0.868E-04
RMM:  13    -0.413175922571E+03    0.80347E-06   -0.42031E-07  2241   0.115E-03
   24 T=    63. E= -.41286694E+03 F= -.41317592E+03 E0= -.41315408E+03  EK= 0.30898E+00 SP= 0.00E+00 SK= 0.00E+00
       N       E                     dE             d eps       ncg     rms          rms(c)
RMM:   1    -0.413174440437E+03    0.14829E-02   -0.97209E+00  4297   0.749E-01    0.907E-01
RMM:   2    -0.413180550633E+03   -0.61102E-02   -0.12050E-01  4277   0.101E-01    0.659E-01
RMM:   3    -0.413177099101E+03    0.34515E-02   -0.13631E-02  4698   0.479E-02    0.100E-01
RMM:   4    -0.413196382802E+03   -0.19284E-01   -0.19728E-02  5134   0.117E-01    0.582E-01
RMM:   5    -0.413176776772E+03    0.19606E-01   -0.96578E-03  4810   0.958E-02    0.438E-02
RMM:   6    -0.413176880535E+03   -0.10376E-03   -0.17108E-03  5831   0.382E-02    0.266E-02
RMM:   7    -0.413176877109E+03    0.34264E-05   -0.19803E-04  5603   0.141E-02    0.129E-02
RMM:   8    -0.413176872900E+03    0.42089E-05   -0.37855E-05  4838   0.639E-03    0.891E-03
RMM:   9    -0.413176869075E+03    0.38248E-05   -0.84973E-06  3511   0.335E-03    0.676E-03
RMM:  10    -0.413176867083E+03    0.19920E-05   -0.14759E-06  2529   0.210E-03    0.418E-03
RMM:  11    -0.413176864106E+03    0.29773E-05   -0.16310E-06  2537   0.202E-03    0.208E-03
RMM:  12    -0.413176860279E+03    0.38267E-05   -0.11586E-06  2486   0.173E-03    0.917E-04
RMM:  13    -0.413176859352E+03    0.92727E-06   -0.38548E-07  2227   0.110E-03
   25 T=    63. E= -.41286665E+03 F= -.41317686E+03 E0= -.41315506E+03  EK= 0.31021E+00 SP= 0.00E+00 SK= 0.00E+00
       N       E                     dE             d eps       ncg     rms          rms(c)
RMM:   1    -0.413175759540E+03    0.11007E-02   -0.97300E+00  4295   0.740E-01    0.919E-01
RMM:   2    -0.413181356879E+03   -0.55973E-02   -0.11921E-01  4279   0.986E-02    0.653E-01
RMM:   3    -0.413178503222E+03    0.28537E-02   -0.13356E-02  4700   0.480E-02    0.112E-01
RMM:   4    -0.413199362182E+03   -0.20859E-01   -0.21390E-02  5138   0.122E-01    0.605E-01
RMM:   5    -0.413178156008E+03    0.21206E-01   -0.10593E-02  4810   0.999E-02    0.454E-02
RMM:   6    -0.413178259524E+03   -0.10352E-03   -0.18111E-03  5821   0.399E-02    0.281E-02
RMM:   7    -0.413178251505E+03    0.80185E-05   -0.23588E-04  5641   0.155E-02    0.149E-02
RMM:   8    -0.413178244083E+03    0.74224E-05   -0.50367E-05  4959   0.743E-03    0.958E-03
RMM:   9    -0.413178237624E+03    0.64585E-05   -0.10047E-05  3777   0.373E-03    0.719E-03
RMM:  10    -0.413178232597E+03    0.50276E-05   -0.15983E-06  2530   0.216E-03    0.432E-03
RMM:  11    -0.413178226626E+03    0.59709E-05   -0.14677E-06  2526   0.195E-03    0.220E-03
RMM:  12    -0.413178219022E+03    0.76044E-05   -0.11873E-06  2496   0.174E-03    0.820E-04
RMM:  13    -0.413178216538E+03    0.24832E-05   -0.40758E-07  2215   0.112E-03    0.544E-04
RMM:  14    -0.413178215809E+03    0.72976E-06   -0.19609E-07  1723   0.794E-04
   26 T=    63. E= -.41286662E+03 F= -.41317822E+03 E0= -.41315647E+03  EK= 0.31160E+00 SP= 0.00E+00 SK= 0.00E+00
       N       E                     dE             d eps       ncg     rms          rms(c)
RMM:   1    -0.413178314598E+03   -0.98059E-04   -0.97237E+00  4295   0.785E-01    0.898E-01
RMM:   2    -0.413183310850E+03   -0.49963E-02   -0.12130E-01  4283   0.102E-01    0.654E-01
RMM:   3    -0.413180362127E+03    0.29487E-02   -0.13532E-02  4790   0.497E-02    0.112E-01
RMM:   4    -0.413206367208E+03   -0.26005E-01   -0.26905E-02  5136   0.137E-01    0.673E-01
RMM:   5    -0.413179905466E+03    0.26462E-01   -0.13090E-02  4802   0.112E-01    0.469E-02
RMM:   6    -0.413180050190E+03   -0.14472E-03   -0.22490E-03  5815   0.451E-02    0.311E-02
RMM:   7    -0.413180048497E+03    0.16929E-05   -0.35520E-04  5645   0.181E-02    0.190E-02
RMM:   8    -0.413180039520E+03    0.89766E-05   -0.64904E-05  5020   0.868E-03    0.994E-03
RMM:   9    -0.413180033997E+03    0.55235E-05   -0.12346E-05  3947   0.410E-03    0.725E-03
RMM:  10    -0.413180030948E+03    0.30491E-05   -0.17663E-06  2556   0.217E-03    0.445E-03
RMM:  11    -0.413180028032E+03    0.29154E-05   -0.12558E-06  2507   0.183E-03    0.231E-03
RMM:  12    -0.413180023796E+03    0.42366E-05   -0.14565E-06  2520   0.186E-03    0.950E-04
RMM:  13    -0.413180022022E+03    0.17743E-05   -0.46407E-07  2301   0.121E-03    0.605E-04
RMM:  14    -0.413180021736E+03    0.28582E-06   -0.21727E-07  1810   0.823E-04
   27 T=    64. E= -.41286687E+03 F= -.41318002E+03 E0= -.41315832E+03  EK= 0.31315E+00 SP= 0.00E+00 SK= 0.00E+00
       N       E                     dE             d eps       ncg     rms          rms(c)
RMM:   1    -0.413184062328E+03   -0.40403E-02   -0.98841E+00  4295   0.795E-01    0.907E-01
RMM:   2    -0.413184593382E+03   -0.53105E-03   -0.12665E-01  4277   0.102E-01    0.665E-01
RMM:   3    -0.413181414335E+03    0.31790E-02   -0.13725E-02  4701   0.502E-02    0.103E-01
RMM:   4    -0.413201058796E+03   -0.19644E-01   -0.20090E-02  5144   0.118E-01    0.587E-01
RMM:   5    -0.413181125777E+03    0.19933E-01   -0.99676E-03  4815   0.971E-02    0.442E-02
RMM:   6    -0.413181216575E+03   -0.90797E-04   -0.17015E-03  5831   0.388E-02    0.271E-02
RMM:   7    -0.413181215455E+03    0.11196E-05   -0.22478E-04  5613   0.151E-02    0.139E-02
RMM:   8    -0.413181211560E+03    0.38951E-05   -0.45584E-05  4925   0.709E-03    0.910E-03
RMM:   9    -0.413181207162E+03    0.43982E-05   -0.97515E-06  3733   0.364E-03    0.680E-03
RMM:  10    -0.413181205262E+03    0.18994E-05   -0.15190E-06  2530   0.211E-03    0.409E-03
RMM:  11    -0.413181202951E+03    0.23108E-05   -0.13720E-06  2519   0.188E-03    0.207E-03
RMM:  12    -0.413181199629E+03    0.33221E-05   -0.11441E-06  2479   0.170E-03    0.814E-04
RMM:  13    -0.413181198522E+03    0.11072E-05   -0.38953E-07  2196   0.110E-03    0.548E-04
RMM:  14    -0.413181198093E+03    0.42957E-06   -0.18173E-07  1646   0.776E-04
   28 T=    64. E= -.41286667E+03 F= -.41318120E+03 E0= -.41315955E+03  EK= 0.31452E+00 SP= 0.00E+00 SK= 0.00E+00
       N       E                     dE             d eps       ncg     rms          rms(c)
RMM:   1    -0.413180721754E+03    0.47677E-03   -0.98555E+00  4293   0.764E-01    0.927E-01
RMM:   2    -0.413186368779E+03   -0.56470E-02   -0.12149E-01  4277   0.103E-01    0.659E-01
RMM:   3    -0.413183324986E+03    0.30438E-02   -0.13658E-02  4592   0.497E-02    0.106E-01
RMM:   4    -0.413197452146E+03   -0.14127E-01   -0.14362E-02  5148   0.100E-01    0.500E-01
RMM:   5    -0.413183160270E+03    0.14292E-01   -0.72441E-03  4824   0.823E-02    0.431E-02
RMM:   6    -0.413183216539E+03   -0.56269E-04   -0.12598E-03  5842   0.332E-02    0.256E-02
RMM:   7    -0.413183211094E+03    0.54453E-05   -0.16576E-04  5516   0.136E-02    0.126E-02
RMM:   8    -0.413183201488E+03    0.96057E-05   -0.25605E-05  4586   0.552E-03    0.776E-03
RMM:   9    -0.413183199213E+03    0.22753E-05   -0.67377E-06  3302   0.306E-03    0.627E-03
RMM:  10    -0.413183193612E+03    0.56014E-05   -0.12843E-06  2509   0.204E-03    0.347E-03
RMM:  11    -0.413183187550E+03    0.60617E-05   -0.12229E-06  2506   0.179E-03    0.177E-03
RMM:  12    -0.413183181120E+03    0.64305E-05   -0.87209E-07  2449   0.151E-03    0.871E-04
RMM:  13    -0.413183179067E+03    0.20523E-05   -0.32363E-07  2147   0.100E-03    0.502E-04
RMM:  14    -0.413183177816E+03    0.12517E-05   -0.14768E-07  1506   0.725E-04    0.396E-04
RMM:  15    -0.413183173027E+03    0.47890E-05   -0.16736E-07  1890   0.777E-04    0.330E-04
RMM:  16    -0.413183170331E+03    0.26959E-05   -0.68836E-08  1174   0.612E-04    0.285E-04
RMM:  17    -0.413183167228E+03    0.31028E-05   -0.45145E-08   910   0.563E-04    0.191E-04
RMM:  18    -0.413183164337E+03    0.28906E-05   -0.42684E-08   929   0.572E-04    0.439E-05
RMM:  19    -0.413183162536E+03    0.18010E-05   -0.31308E-08   917   0.572E-04    0.774E-05
RMM:  20    -0.413183162317E+03    0.21926E-06   -0.90410E-09   662   0.531E-04
   29 T=    64. E= -.41286689E+03 F= -.41318316E+03 E0= -.41316156E+03  EK= 0.31627E+00 SP= 0.00E+00 SK= 0.00E+00
       N       E                     dE             d eps       ncg     rms          rms(c)
RMM:   1    -0.413182495347E+03    0.66719E-03   -0.98288E+00  4287   0.794E-01    0.907E-01
RMM:   2    -0.413188609478E+03   -0.61141E-02   -0.12274E-01  4270   0.113E-01    0.657E-01
RMM:   3    -0.413185077371E+03    0.35321E-02   -0.13587E-02  4504   0.533E-02    0.971E-02
RMM:   4    -0.413195594550E+03   -0.10517E-01   -0.10752E-02  5145   0.869E-02    0.432E-01
RMM:   5    -0.413184975300E+03    0.10619E-01   -0.54066E-03  4827   0.711E-02    0.411E-02
RMM:   6    -0.413185017291E+03   -0.41991E-04   -0.10028E-03  5824   0.294E-02    0.254E-02
RMM:   7    -0.413185019800E+03   -0.25092E-05   -0.23324E-04  5417   0.155E-02    0.169E-02
RMM:   8    -0.413185003193E+03    0.16608E-04   -0.28711E-05  4635   0.655E-03    0.759E-03
RMM:   9    -0.413185001304E+03    0.18886E-05   -0.55283E-06  3026   0.293E-03    0.547E-03
RMM:  10    -0.413184998061E+03    0.32436E-05   -0.15523E-06  2512   0.209E-03    0.298E-03
RMM:  11    -0.413184994838E+03    0.32226E-05   -0.96426E-07  2476   0.166E-03    0.151E-03
RMM:  12    -0.413184991545E+03    0.32929E-05   -0.60897E-07  2384   0.130E-03    0.788E-04
RMM:  13    -0.413184989942E+03    0.16029E-05   -0.27625E-07  1981   0.914E-04    0.336E-04
RMM:  14    -0.413184988282E+03    0.16604E-05   -0.14920E-07  1434   0.722E-04    0.210E-04
RMM:  15    -0.413184985600E+03    0.26821E-05   -0.10111E-07  1251   0.672E-04    0.998E-05
RMM:  16    -0.413184983551E+03    0.20485E-05   -0.63631E-08  1028   0.623E-04    0.773E-05
RMM:  17    -0.413184981895E+03    0.16560E-05   -0.43075E-08   920   0.597E-04    0.507E-05
RMM:  18    -0.413184978863E+03    0.30319E-05   -0.57448E-08  1108   0.614E-04    0.329E-05
RMM:  19    -0.413184978220E+03    0.64291E-06   -0.20217E-08   747   0.546E-04
   30 T=    65. E= -.41286684E+03 F= -.41318498E+03 E0= -.41316343E+03  EK= 0.31813E+00 SP= 0.00E+00 SK= 0.00E+00
       N       E                     dE             d eps       ncg     rms          rms(c)
RMM:   1    -0.413185241871E+03   -0.26301E-03   -0.99705E+00  4293   0.812E-01    0.910E-01
RMM:   2    -0.413190824326E+03   -0.55825E-02   -0.12658E-01  4287   0.119E-01    0.669E-01
RMM:   3    -0.413186642739E+03    0.41816E-02   -0.14287E-02  4388   0.593E-02    0.837E-02
RMM:   4    -0.413192664159E+03   -0.60214E-02   -0.62964E-03  5156   0.666E-02    0.328E-01
RMM:   5    -0.413186602430E+03    0.60617E-02   -0.31120E-03  4830   0.541E-02    0.395E-02
RMM:   6    -0.413186634917E+03   -0.32487E-04   -0.70025E-04  5758   0.248E-02    0.262E-02
RMM:   7    -0.413186630455E+03    0.44612E-05   -0.23936E-04  5267   0.156E-02    0.171E-02
RMM:   8    -0.413186617885E+03    0.12570E-04   -0.20410E-05  4318   0.581E-03    0.716E-03
RMM:   9    -0.413186616809E+03    0.10765E-05   -0.31743E-06  2727   0.237E-03    0.466E-03
RMM:  10    -0.413186615210E+03    0.15991E-05   -0.14165E-06  2507   0.190E-03    0.248E-03
RMM:  11    -0.413186613768E+03    0.14422E-05   -0.83111E-07  2444   0.149E-03    0.118E-03
RMM:  12    -0.413186612223E+03    0.15447E-05   -0.45007E-07  2218   0.112E-03    0.540E-04
RMM:  13    -0.413186611084E+03    0.11392E-05   -0.23528E-07  1766   0.835E-04    0.277E-04
RMM:  14    -0.413186609667E+03    0.14169E-05   -0.12836E-07  1284   0.695E-04    0.179E-04
RMM:  15    -0.413186607443E+03    0.22238E-05   -0.97504E-08  1172   0.661E-04    0.884E-05
RMM:  16    -0.413186606256E+03    0.11870E-05   -0.51819E-08   919   0.601E-04    0.634E-05
RMM:  17    -0.413186604260E+03    0.19963E-05   -0.53169E-08  1008   0.603E-04    0.400E-05
RMM:  18    -0.413186602650E+03    0.16093E-05   -0.37821E-08   911   0.576E-04    0.303E-05
RMM:  19    -0.413186602124E+03    0.52677E-06   -0.13913E-08   672   0.537E-04
   31 T=    65. E= -.41286658E+03 F= -.41318660E+03 E0= -.41316510E+03  EK= 0.32003E+00 SP= 0.00E+00 SK= 0.00E+00
       N       E                     dE             d eps       ncg     rms          rms(c)
RMM:   1    -0.413187442626E+03   -0.83998E-03   -0.10016E+01  4287   0.812E-01    0.933E-01
RMM:   2    -0.413192889293E+03   -0.54467E-02   -0.12551E-01  4281   0.123E-01    0.667E-01
RMM:   3    -0.413189168432E+03    0.37209E-02   -0.13910E-02  4264   0.564E-02    0.956E-02
RMM:   4    -0.413189612281E+03   -0.44385E-03   -0.10648E-03  5053   0.248E-02    0.905E-02
RMM:   5    -0.413189226578E+03    0.38570E-03   -0.28338E-04  4817   0.168E-02    0.417E-02
RMM:   6    -0.413189239620E+03   -0.13043E-04   -0.35880E-04  5321   0.187E-02    0.297E-02
RMM:   7    -0.413189197440E+03    0.42181E-04   -0.18993E-04  4830   0.144E-02    0.163E-02
RMM:   8    -0.413189192770E+03    0.46700E-05   -0.23097E-05  4438   0.522E-03    0.598E-03
RMM:   9    -0.413189191416E+03    0.13539E-05   -0.32787E-06  2493   0.215E-03    0.241E-03
RMM:  10    -0.413189184092E+03    0.73241E-05   -0.10119E-06  2399   0.157E-03    0.921E-04
RMM:  11    -0.413189179729E+03    0.43631E-05   -0.31222E-07  1945   0.922E-04    0.477E-04
RMM:  12    -0.413189176329E+03    0.33996E-05   -0.17709E-07  1604   0.759E-04    0.300E-04
RMM:  13    -0.413189172679E+03    0.36505E-05   -0.12637E-07  1347   0.692E-04    0.171E-04
RMM:  14    -0.413189167970E+03    0.47086E-05   -0.98322E-08  1161   0.652E-04    0.109E-04
RMM:  15    -0.413189164731E+03    0.32393E-05   -0.51233E-08   898   0.588E-04    0.861E-05
RMM:  16    -0.413189160996E+03    0.37350E-05   -0.49582E-08   934   0.592E-04    0.506E-05
RMM:  17    -0.413189159896E+03    0.10996E-05   -0.22066E-08   684   0.540E-04    0.414E-05
RMM:  18    -0.413189159127E+03    0.76916E-06   -0.14031E-08   617   0.532E-04
   32 T=    66. E= -.41286689E+03 F= -.41318916E+03 E0= -.41316771E+03  EK= 0.32227E+00 SP= 0.00E+00 SK= 0.00E+00
       N       E                     dE             d eps       ncg     rms          rms(c)
RMM:   1    -0.413188874900E+03    0.28500E-03   -0.99917E+00  4288   0.821E-01    0.920E-01
RMM:   2    -0.413194662321E+03   -0.57874E-02   -0.12644E-01  4283   0.123E-01    0.663E-01
RMM:   3    -0.413191136420E+03    0.35259E-02   -0.13715E-02  4246   0.590E-02    0.940E-02
RMM:   4    -0.413191202322E+03   -0.65902E-04   -0.70166E-04  4700   0.160E-02    0.386E-02
RMM:   5    -0.413191215432E+03   -0.13110E-04   -0.28180E-04  5117   0.168E-02    0.317E-02
RMM:   6    -0.413191302282E+03   -0.86850E-04   -0.26165E-04  4997   0.155E-02    0.497E-02
RMM:   7    -0.413191167436E+03    0.13485E-03   -0.85215E-05  5054   0.975E-03    0.125E-02
RMM:   8    -0.413191163219E+03    0.42167E-05   -0.14282E-05  3759   0.443E-03    0.426E-03
RMM:   9    -0.413191161710E+03    0.15089E-05   -0.30561E-06  2494   0.214E-03    0.161E-03
RMM:  10    -0.413191155716E+03    0.59944E-05   -0.92032E-07  2395   0.149E-03    0.750E-04
RMM:  11    -0.413191151301E+03    0.44143E-05   -0.42940E-07  2077   0.104E-03    0.415E-04
RMM:  12    -0.413191148382E+03    0.29197E-05   -0.21714E-07  1579   0.803E-04    0.254E-04
RMM:  13    -0.413191145054E+03    0.33274E-05   -0.13659E-07  1270   0.703E-04    0.173E-04
RMM:  14    -0.413191140130E+03    0.49239E-05   -0.11347E-07  1205   0.676E-04    0.121E-04
RMM:  15    -0.413191138236E+03    0.18940E-05   -0.52074E-08   821   0.593E-04    0.624E-05
RMM:  16    -0.413191134272E+03    0.39646E-05   -0.63833E-08   987   0.616E-04    0.522E-05
RMM:  17    -0.413191133234E+03    0.10378E-05   -0.25885E-08   676   0.547E-04    0.384E-05
RMM:  18    -0.413191132625E+03    0.60840E-06   -0.14386E-08   571   0.529E-04
   33 T=    66. E= -.41286670E+03 F= -.41319113E+03 E0= -.41316973E+03  EK= 0.32443E+00 SP= 0.00E+00 SK= 0.00E+00
       N       E                     dE             d eps       ncg     rms          rms(c)
RMM:   1    -0.413198392556E+03   -0.72593E-02   -0.10179E+01  4300   0.879E-01    0.915E-01
RMM:   2    -0.413197251111E+03    0.11414E-02   -0.13582E-01  4282   0.130E-01    0.675E-01
RMM:   3    -0.413193547357E+03    0.37038E-02   -0.13933E-02  4324   0.620E-02    0.918E-02
RMM:   4    -0.413195869397E+03   -0.23220E-02   -0.28377E-03  5167   0.448E-02    0.204E-01
RMM:   5    -0.413193580290E+03    0.22891E-02   -0.11839E-03  4819   0.339E-02    0.390E-02
RMM:   6    -0.413193603456E+03   -0.23165E-04   -0.44936E-04  5577   0.207E-02    0.281E-02
RMM:   7    -0.413193580099E+03    0.23356E-04   -0.21682E-04  5036   0.147E-02    0.173E-02
RMM:   8    -0.413193572532E+03    0.75679E-05   -0.20504E-05  4053   0.505E-03    0.593E-03
RMM:   9    -0.413193571726E+03    0.80590E-06   -0.24052E-06  2542   0.215E-03
   34 T=    67. E= -.41286673E+03 F= -.41319357E+03 E0= -.41317222E+03  EK= 0.32684E+00 SP= 0.00E+00 SK= 0.00E+00
       N       E                     dE             d eps       ncg     rms          rms(c)
RMM:   1    -0.413199248802E+03   -0.56763E-02   -0.10238E+01  4305   0.917E-01    0.937E-01
RMM:   2    -0.413199619351E+03   -0.37055E-03   -0.13665E-01  4275   0.133E-01    0.677E-01
RMM:   3    -0.413196278592E+03    0.33408E-02   -0.13749E-02  4356   0.636E-02    0.104E-01
RMM:   4    -0.413198652602E+03   -0.23740E-02   -0.30152E-03  5171   0.467E-02    0.205E-01
RMM:   5    -0.413196339858E+03    0.23127E-02   -0.12128E-03  4821   0.346E-02    0.413E-02
RMM:   6    -0.413196346163E+03   -0.63054E-05   -0.44465E-04  5542   0.212E-02    0.316E-02
RMM:   7    -0.413196320402E+03    0.25761E-04   -0.23646E-04  4980   0.146E-02    0.173E-02
RMM:   8    -0.413196312481E+03    0.79211E-05   -0.22816E-05  4454   0.528E-03    0.646E-03
RMM:   9    -0.413196310327E+03    0.21546E-05   -0.32323E-06  2569   0.216E-03    0.325E-03
RMM:  10    -0.413196303691E+03    0.66355E-05   -0.96208E-07  2474   0.158E-03    0.169E-03
RMM:  11    -0.413196297848E+03    0.58436E-05   -0.55833E-07  2302   0.114E-03    0.642E-04
RMM:  12    -0.413196292707E+03    0.51409E-05   -0.29192E-07  1887   0.893E-04    0.270E-04
RMM:  13    -0.413196288492E+03    0.42150E-05   -0.16014E-07  1419   0.729E-04    0.220E-04
RMM:  14    -0.413196283425E+03    0.50671E-05   -0.10622E-07  1121   0.663E-04    0.146E-04
RMM:  15    -0.413196276735E+03    0.66895E-05   -0.11876E-07  1390   0.688E-04    0.112E-04
RMM:  16    -0.413196273892E+03    0.28428E-05   -0.58830E-08  1045   0.588E-04    0.890E-05
RMM:  17    -0.413196270777E+03    0.31158E-05   -0.49384E-08  1001   0.569E-04    0.334E-05
RMM:  18    -0.413196269803E+03    0.97328E-06   -0.23694E-08   744   0.519E-04
   35 T=    67. E= -.41286691E+03 F= -.41319627E+03 E0= -.41317496E+03  EK= 0.32936E+00 SP= 0.00E+00 SK= 0.00E+00
       N       E                     dE             d eps       ncg     rms          rms(c)
RMM:   1    -0.413196219563E+03    0.51213E-04   -0.10193E+01  4300   0.877E-01    0.937E-01
RMM:   2    -0.413201491245E+03   -0.52717E-02   -0.13145E-01  4259   0.131E-01    0.671E-01
RMM:   3    -0.413198386810E+03    0.31044E-02   -0.13902E-02  4400   0.635E-02    0.106E-01
RMM:   4    -0.413202996657E+03   -0.46098E-02   -0.50560E-03  5173   0.601E-02    0.288E-01
RMM:   5    -0.413198406328E+03    0.45903E-02   -0.23794E-03  4817   0.480E-02    0.413E-02
RMM:   6    -0.413198421891E+03   -0.15562E-04   -0.63728E-04  5648   0.252E-02    0.304E-02
RMM:   7    -0.413198399839E+03    0.22051E-04   -0.26070E-04  5139   0.162E-02    0.171E-02
RMM:   8    -0.413198389105E+03    0.10734E-04   -0.24146E-05  4602   0.587E-03    0.726E-03
RMM:   9    -0.413198386653E+03    0.24516E-05   -0.33983E-06  2680   0.236E-03    0.410E-03
RMM:  10    -0.413198381010E+03    0.56431E-05   -0.11646E-06  2487   0.180E-03    0.218E-03
RMM:  11    -0.413198375836E+03    0.51745E-05   -0.66937E-07  2402   0.132E-03    0.105E-03
RMM:  12    -0.413198370703E+03    0.51323E-05   -0.38505E-07  2114   0.103E-03    0.434E-04
RMM:  13    -0.413198367125E+03    0.35780E-05   -0.20430E-07  1685   0.797E-04    0.245E-04
RMM:  14    -0.413198363507E+03    0.36186E-05   -0.10465E-07  1149   0.669E-04    0.178E-04
RMM:  15    -0.413198358286E+03    0.52211E-05   -0.79370E-08  1090   0.647E-04    0.799E-05
RMM:  16    -0.413198355626E+03    0.26592E-05   -0.50726E-08   958   0.603E-04    0.636E-05
RMM:  17    -0.413198352215E+03    0.34118E-05   -0.48853E-08  1046   0.602E-04    0.410E-05
RMM:  18    -0.413198349669E+03    0.25457E-05   -0.34349E-08   921   0.568E-04    0.319E-05
RMM:  19    -0.413198349262E+03    0.40712E-06   -0.12375E-08   598   0.515E-04
   36 T=    68. E= -.41286667E+03 F= -.41319835E+03 E0= -.41317709E+03  EK= 0.33167E+00 SP= 0.00E+00 SK= 0.00E+00
       N       E                     dE             d eps       ncg     rms          rms(c)
RMM:   1    -0.413205874586E+03   -0.75249E-02   -0.10338E+01  4306   0.967E-01    0.922E-01
RMM:   2    -0.413205225183E+03    0.64940E-03   -0.14665E-01  4261   0.139E-01    0.681E-01
RMM:   3    -0.413201349279E+03    0.38759E-02   -0.13423E-02  4541   0.612E-02    0.119E-01
RMM:   4    -0.413216934209E+03   -0.15585E-01   -0.15883E-02  5157   0.106E-01    0.525E-01
RMM:   5    -0.413201244384E+03    0.15690E-01   -0.79530E-03  4813   0.872E-02    0.445E-02
RMM:   6    -0.413201256929E+03   -0.12545E-04   -0.14218E-03  5829   0.360E-02    0.289E-02
RMM:   7    -0.413201268462E+03   -0.11533E-04   -0.31124E-04  5457   0.171E-02    0.187E-02
RMM:   8    -0.413201251131E+03    0.17331E-04   -0.46658E-05  4915   0.779E-03    0.843E-03
RMM:   9    -0.413201250068E+03    0.10631E-05   -0.87099E-06  3467   0.360E-03    0.580E-03
RMM:  10    -0.413201247355E+03    0.27130E-05   -0.15682E-06  2533   0.216E-03    0.324E-03
RMM:  11    -0.413201244750E+03    0.26051E-05   -0.10034E-06  2496   0.164E-03    0.174E-03
RMM:  12    -0.413201240893E+03    0.38570E-05   -0.91475E-07  2471   0.152E-03    0.897E-04
RMM:  13    -0.413201239079E+03    0.18140E-05   -0.35845E-07  2126   0.103E-03    0.445E-04
RMM:  14    -0.413201238078E+03    0.10008E-05   -0.17167E-07  1504   0.748E-04    0.305E-04
RMM:  15    -0.413201235346E+03    0.27321E-05   -0.11558E-07  1285   0.690E-04    0.121E-04
RMM:  16    -0.413201233325E+03    0.20212E-05   -0.72773E-08  1057   0.633E-04    0.850E-05
RMM:  17    -0.413201231256E+03    0.20687E-05   -0.52823E-08   989   0.609E-04    0.811E-05
RMM:  18    -0.413201228689E+03    0.25671E-05   -0.45840E-08   992   0.600E-04    0.411E-05
RMM:  19    -0.413201227467E+03    0.12228E-05   -0.27384E-08   840   0.562E-04    0.263E-05
RMM:  20    -0.413201227007E+03    0.45963E-06   -0.14235E-08   699   0.540E-04
   37 T=    68. E= -.41286697E+03 F= -.41320123E+03 E0= -.41318001E+03  EK= 0.33426E+00 SP= 0.00E+00 SK= 0.00E+00
       N       E                     dE             d eps       ncg     rms          rms(c)
RMM:   1    -0.413217521323E+03   -0.16294E-01   -0.10538E+01  4308   0.105E+00    0.940E-01
RMM:   2    -0.413207834492E+03    0.96868E-02   -0.15756E-01  4259   0.138E-01    0.688E-01
RMM:   3    -0.413204146583E+03    0.36879E-02   -0.13144E-02  4802   0.592E-02    0.162E-01
RMM:   4    -0.413244415620E+03   -0.40269E-01   -0.41814E-02  5140   0.171E-01    0.833E-01
RMM:   5    -0.413203544745E+03    0.40871E-01   -0.20537E-02  4796   0.140E-01    0.536E-02
RMM:   6    -0.413203635509E+03   -0.90763E-04   -0.33243E-03  5841   0.547E-02    0.340E-02
RMM:   7    -0.413203644381E+03   -0.88723E-05   -0.39897E-04  5658   0.188E-02    0.174E-02
RMM:   8    -0.413203641266E+03    0.31153E-05   -0.57290E-05  4895   0.760E-03    0.979E-03
RMM:   9    -0.413203636845E+03    0.44206E-05   -0.18435E-05  4370   0.449E-03    0.731E-03
RMM:  10    -0.413203633887E+03    0.29578E-05   -0.44598E-06  2913   0.285E-03    0.443E-03
RMM:  11    -0.413203630739E+03    0.31482E-05   -0.16307E-06  2503   0.210E-03    0.268E-03
RMM:  12    -0.413203623531E+03    0.72085E-05   -0.19297E-06  2536   0.226E-03    0.113E-03
RMM:  13    -0.413203620613E+03    0.29175E-05   -0.63646E-07  2417   0.144E-03    0.870E-04
RMM:  14    -0.413203620643E+03   -0.29569E-07   -0.26841E-07  2056   0.924E-04
   38 T=    69. E= -.41286686E+03 F= -.41320362E+03 E0= -.41318244E+03  EK= 0.33676E+00 SP= 0.00E+00 SK= 0.00E+00
       N       E                     dE             d eps       ncg     rms          rms(c)
RMM:   1    -0.413205656473E+03   -0.20359E-02   -0.10423E+01  4306   0.987E-01    0.953E-01
RMM:   2    -0.413210059432E+03   -0.44030E-02   -0.13698E-01  4262   0.125E-01    0.680E-01
RMM:   3    -0.413206725770E+03    0.33337E-02   -0.14264E-02  4879   0.576E-02    0.154E-01
RMM:   4    -0.413246383684E+03   -0.39658E-01   -0.41942E-02  5137   0.171E-01    0.828E-01
RMM:   5    -0.413206039150E+03    0.40345E-01   -0.20095E-02  4793   0.139E-01    0.546E-02
RMM:   6    -0.413206127058E+03   -0.87908E-04   -0.33015E-03  5829   0.544E-02    0.343E-02
RMM:   7    -0.413206134178E+03   -0.71201E-05   -0.40844E-04  5682   0.189E-02    0.176E-02
RMM:   8    -0.413206124288E+03    0.98898E-05   -0.48827E-05  4774   0.712E-03    0.901E-03
RMM:   9    -0.413206120213E+03    0.40749E-05   -0.14680E-05  3985   0.399E-03    0.667E-03
RMM:  10    -0.413206114924E+03    0.52895E-05   -0.29163E-06  2699   0.243E-03    0.424E-03
RMM:  11    -0.413206109041E+03    0.58826E-05   -0.14576E-06  2503   0.199E-03    0.243E-03
RMM:  12    -0.413206097875E+03    0.11166E-04   -0.16945E-06  2528   0.210E-03    0.113E-03
RMM:  13    -0.413206094916E+03    0.29590E-05   -0.49918E-07  2387   0.132E-03    0.728E-04
RMM:  14    -0.413206094630E+03    0.28674E-06   -0.21678E-07  1911   0.845E-04
   39 T=    69. E= -.41286677E+03 F= -.41320609E+03 E0= -.41318495E+03  EK= 0.33933E+00 SP= 0.00E+00 SK= 0.00E+00
       N       E                     dE             d eps       ncg     rms          rms(c)
RMM:   1    -0.413235729638E+03   -0.29635E-01   -0.10723E+01  4312   0.118E+00    0.930E-01
RMM:   2    -0.413213577433E+03    0.22152E-01   -0.17737E-01  4265   0.138E-01    0.688E-01
RMM:   3    -0.413210241196E+03    0.33362E-02   -0.12218E-02  5007   0.595E-02    0.219E-01
RMM:   4    -0.413266579643E+03   -0.56338E-01   -0.62301E-02  5135   0.208E-01    0.983E-01
RMM:   5    -0.413208856807E+03    0.57723E-01   -0.28445E-02  4789   0.166E-01    0.621E-02
RMM:   6    -0.413209026378E+03   -0.16957E-03   -0.46235E-03  5819   0.643E-02    0.371E-02
RMM:   7    -0.413209043162E+03   -0.16784E-04   -0.58805E-04  5791   0.216E-02    0.228E-02
RMM:   8    -0.413209044246E+03   -0.10832E-05   -0.13370E-04  5273   0.115E-02    0.143E-02
RMM:   9    -0.413209030484E+03    0.13761E-04   -0.28889E-05  4717   0.625E-03    0.694E-03
RMM:  10    -0.413209026295E+03    0.41895E-05   -0.56871E-06  3013   0.304E-03    0.440E-03
RMM:  11    -0.413209022922E+03    0.33724E-05   -0.15361E-06  2508   0.205E-03    0.263E-03
RMM:  12    -0.413209016073E+03    0.68495E-05   -0.14649E-06  2511   0.199E-03    0.924E-04
RMM:  13    -0.413209011941E+03    0.41317E-05   -0.65306E-07  2418   0.140E-03    0.676E-04
RMM:  14    -0.413209011416E+03    0.52491E-06   -0.28849E-07  2067   0.945E-04
   40 T=    70. E= -.41286698E+03 F= -.41320901E+03 E0= -.41318791E+03  EK= 0.34204E+00 SP= 0.00E+00 SK= 0.00E+00
       N       E                     dE             d eps       ncg     rms          rms(c)
RMM:   1    -0.413222859667E+03   -0.13848E-01   -0.10710E+01  4312   0.114E+00    0.946E-01
RMM:   2    -0.413215634861E+03    0.72248E-02   -0.15525E-01  4268   0.141E-01    0.696E-01
RMM:   3    -0.413212804777E+03    0.28301E-02   -0.14797E-02  5020   0.662E-02    0.215E-01
RMM:   4    -0.413264940870E+03   -0.52136E-01   -0.60768E-02  5127   0.206E-01    0.951E-01
RMM:   5    -0.413210894512E+03    0.54046E-01   -0.25825E-02  4783   0.159E-01    0.610E-02
RMM:   6    -0.413211044689E+03   -0.15018E-03   -0.43373E-03  5814   0.618E-02    0.361E-02
RMM:   7    -0.413211059838E+03   -0.15149E-04   -0.53652E-04  5791   0.209E-02    0.216E-02
RMM:   8    -0.413211061500E+03   -0.16628E-05   -0.12334E-04  5246   0.109E-02    0.141E-02
RMM:   9    -0.413211048066E+03    0.13435E-04   -0.27280E-05  4706   0.607E-03    0.696E-03
RMM:  10    -0.413211044315E+03    0.37512E-05   -0.51962E-06  2945   0.304E-03    0.434E-03
RMM:  11    -0.413211041207E+03    0.31073E-05   -0.15236E-06  2503   0.207E-03    0.257E-03
RMM:  12    -0.413211034810E+03    0.63973E-05   -0.13917E-06  2511   0.196E-03    0.932E-04
RMM:  13    -0.413211030852E+03    0.39583E-05   -0.62665E-07  2411   0.137E-03    0.615E-04
RMM:  14    -0.413211030059E+03    0.79234E-06   -0.28199E-07  2048   0.932E-04
   41 T=    70. E= -.41286661E+03 F= -.41321103E+03 E0= -.41318996E+03  EK= 0.34442E+00 SP= 0.00E+00 SK= 0.00E+00
       N       E                     dE             d eps       ncg     rms          rms(c)
RMM:   1    -0.413217876831E+03   -0.68460E-02   -0.10667E+01  4312   0.116E+00    0.967E-01
RMM:   2    -0.413217485725E+03    0.39111E-03   -0.14605E-01  4288   0.134E-01    0.690E-01
RMM:   3    -0.413216522238E+03    0.96349E-03   -0.16236E-02  5068   0.733E-02    0.262E-01
RMM:   4    -0.413258099390E+03   -0.41577E-01   -0.55261E-02  5098   0.198E-01    0.868E-01
RMM:   5    -0.413213463877E+03    0.44636E-01   -0.20222E-02  4757   0.144E-01    0.610E-02
RMM:   6    -0.413213563797E+03   -0.99920E-04   -0.35429E-03  5783   0.561E-02    0.361E-02
RMM:   7    -0.413213570860E+03   -0.70626E-05   -0.47706E-04  5750   0.201E-02    0.220E-02
RMM:   8    -0.413213568332E+03    0.25275E-05   -0.13185E-04  5219   0.116E-02    0.136E-02
RMM:   9    -0.413213552137E+03    0.16195E-04   -0.22859E-05  4540   0.591E-03    0.591E-03
RMM:  10    -0.413213546201E+03    0.59359E-05   -0.50788E-06  2963   0.287E-03    0.374E-03
RMM:  11    -0.413213540823E+03    0.53779E-05   -0.12553E-06  2495   0.193E-03    0.211E-03
RMM:  12    -0.413213531462E+03    0.93613E-05   -0.95696E-07  2471   0.168E-03    0.792E-04
RMM:  13    -0.413213525827E+03    0.56349E-05   -0.45551E-07  2335   0.118E-03    0.438E-04
RMM:  14    -0.413213524154E+03    0.16726E-05   -0.22886E-07  1886   0.847E-04    0.302E-04
RMM:  15    -0.413213520152E+03    0.40022E-05   -0.12862E-07  1409   0.704E-04    0.143E-04
RMM:  16    -0.413213514530E+03    0.56222E-05   -0.93982E-08  1252   0.670E-04    0.150E-04
RMM:  17    -0.413213511296E+03    0.32337E-05   -0.61184E-08  1099   0.623E-04    0.101E-04
RMM:  18    -0.413213507515E+03    0.37809E-05   -0.56048E-08  1213   0.622E-04    0.723E-05
RMM:  19    -0.413213504577E+03    0.29386E-05   -0.39902E-08  1084   0.590E-04    0.438E-05
RMM:  20    -0.413213503957E+03    0.61999E-06   -0.20188E-08   805   0.539E-04
   42 T=    71. E= -.41286672E+03 F= -.41321350E+03 E0= -.41319246E+03  EK= 0.34678E+00 SP= 0.00E+00 SK= 0.00E+00
       N       E                     dE             d eps       ncg     rms          rms(c)
RMM:   1    -0.413246991373E+03   -0.33487E-01   -0.10910E+01  4312   0.136E+00    0.944E-01
RMM:   2    -0.413219587686E+03    0.27404E-01   -0.17167E-01  4296   0.148E-01    0.692E-01
RMM:   3    -0.413219638853E+03   -0.51167E-04   -0.15528E-02  5075   0.796E-02    0.316E-01
RMM:   4    -0.413258966180E+03   -0.39327E-01   -0.57405E-02  5094   0.202E-01    0.859E-01
RMM:   5    -0.413215382607E+03    0.43584E-01   -0.19296E-02  4737   0.143E-01    0.631E-02
RMM:   6    -0.413215463831E+03   -0.81224E-04   -0.34159E-03  5753   0.553E-02    0.360E-02
RMM:   7    -0.413215471522E+03   -0.76904E-05   -0.50147E-04  5783   0.201E-02    0.237E-02
RMM:   8    -0.413215468597E+03    0.29250E-05   -0.13175E-04  5191   0.118E-02    0.127E-02
RMM:   9    -0.413215456237E+03    0.12360E-04   -0.22007E-05  4519   0.586E-03    0.504E-03
RMM:  10    -0.413215453006E+03    0.32313E-05   -0.47720E-06  2888   0.273E-03    0.324E-03
RMM:  11    -0.413215449252E+03    0.37538E-05   -0.13184E-06  2498   0.190E-03    0.177E-03
RMM:  12    -0.413215443898E+03    0.53538E-05   -0.78776E-07  2459   0.151E-03    0.666E-04
RMM:  13    -0.413215440656E+03    0.32425E-05   -0.39144E-07  2160   0.107E-03    0.312E-04
RMM:  14    -0.413215438665E+03    0.19911E-05   -0.21079E-07  1706   0.815E-04    0.211E-04
RMM:  15    -0.413215434872E+03    0.37925E-05   -0.13905E-07  1354   0.716E-04    0.112E-04
RMM:  16    -0.413215432426E+03    0.24456E-05   -0.85717E-08  1121   0.658E-04    0.839E-05
RMM:  17    -0.413215429937E+03    0.24891E-05   -0.69397E-08  1143   0.642E-04    0.546E-05
RMM:  18    -0.413215427294E+03    0.26434E-05   -0.55934E-08  1138   0.623E-04    0.352E-05
RMM:  19    -0.413215425492E+03    0.18020E-05   -0.36711E-08   980   0.585E-04    0.261E-05
RMM:  20    -0.413215424938E+03    0.55390E-06   -0.20155E-08   795   0.551E-04
   43 T=    71. E= -.41286673E+03 F= -.41321542E+03 E0= -.41319441E+03  EK= 0.34869E+00 SP= 0.00E+00 SK= 0.00E+00
       N       E                     dE             d eps       ncg     rms          rms(c)
RMM:   1    -0.413226680279E+03   -0.11255E-01   -0.10813E+01  4312   0.131E+00    0.949E-01
RMM:   2    -0.413220892591E+03    0.57877E-02   -0.15757E-01  4289   0.158E-01    0.702E-01
RMM:   3    -0.413221851664E+03   -0.95907E-03   -0.18336E-02  5072   0.901E-02    0.334E-01
RMM:   4    -0.413256247411E+03   -0.34396E-01   -0.55746E-02  5075   0.201E-01    0.820E-01
RMM:   5    -0.413216413956E+03    0.39833E-01   -0.16751E-02  4711   0.136E-01    0.610E-02
RMM:   6    -0.413216476862E+03   -0.62906E-04   -0.30921E-03  5741   0.524E-02    0.348E-02
RMM:   7    -0.413216479989E+03   -0.31274E-05   -0.45465E-04  5749   0.196E-02    0.228E-02
RMM:   8    -0.413216478420E+03    0.15695E-05   -0.12173E-04  5175   0.114E-02    0.120E-02
RMM:   9    -0.413216467948E+03    0.10472E-04   -0.19660E-05  4427   0.561E-03    0.483E-03
RMM:  10    -0.413216465636E+03    0.23119E-05   -0.41153E-06  2807   0.260E-03    0.305E-03
RMM:  11    -0.413216462921E+03    0.27143E-05   -0.12760E-06  2496   0.186E-03    0.164E-03
RMM:  12    -0.413216458892E+03    0.40299E-05   -0.79772E-07  2451   0.148E-03    0.639E-04
RMM:  13    -0.413216456350E+03    0.25411E-05   -0.39557E-07  2110   0.105E-03    0.297E-04
RMM:  14    -0.413216454667E+03    0.16831E-05   -0.21567E-07  1632   0.807E-04    0.195E-04
RMM:  15    -0.413216451188E+03    0.34794E-05   -0.15530E-07  1343   0.728E-04    0.116E-04
RMM:  16    -0.413216449424E+03    0.17635E-05   -0.92898E-08  1125   0.661E-04    0.813E-05
RMM:  17    -0.413216447221E+03    0.22031E-05   -0.74788E-08  1134   0.647E-04    0.486E-05
RMM:  18    -0.413216444953E+03    0.22684E-05   -0.58725E-08  1102   0.625E-04    0.332E-05
RMM:  19    -0.413216443408E+03    0.15453E-05   -0.38274E-08   970   0.588E-04    0.205E-05
RMM:  20    -0.413216442829E+03    0.57908E-06   -0.22944E-08   798   0.553E-04
   44 T=    71. E= -.41286655E+03 F= -.41321644E+03 E0= -.41319546E+03  EK= 0.34989E+00 SP= 0.00E+00 SK= 0.00E+00
       N       E                     dE             d eps       ncg     rms          rms(c)
RMM:   1    -0.413250925176E+03   -0.34482E-01   -0.11032E+01  4312   0.149E+00    0.973E-01
RMM:   2    -0.413221381481E+03    0.29544E-01   -0.17279E-01  4306   0.169E-01    0.699E-01
RMM:   3    -0.413226085120E+03   -0.47036E-02   -0.19933E-02  5117   0.102E-01    0.424E-01
RMM:   4    -0.413245126021E+03   -0.19041E-01   -0.47655E-02  5054   0.188E-01    0.691E-01
RMM:   5    -0.413217582509E+03    0.27544E-01   -0.10835E-02  4673   0.116E-01    0.599E-02
RMM:   6    -0.413217571836E+03    0.10673E-04   -0.21202E-03  5634   0.444E-02    0.347E-02
RMM:   7    -0.413217565726E+03    0.61094E-05   -0.35778E-04  5646   0.183E-02    0.228E-02
RMM:   8    -0.413217556429E+03    0.92971E-05   -0.11972E-04  5091   0.116E-02    0.109E-02
RMM:   9    -0.413217543158E+03    0.13272E-04   -0.16879E-05  4359   0.557E-03    0.437E-03
RMM:  10    -0.413217539371E+03    0.37872E-05   -0.31894E-06  2752   0.236E-03    0.260E-03
RMM:  11    -0.413217533535E+03    0.58360E-05   -0.11679E-06  2480   0.179E-03    0.141E-03
RMM:  12    -0.413217527309E+03    0.62253E-05   -0.61836E-07  2426   0.136E-03    0.615E-04
RMM:  13    -0.413217523675E+03    0.36342E-05   -0.29608E-07  1918   0.935E-04    0.291E-04
RMM:  14    -0.413217520444E+03    0.32310E-05   -0.16866E-07  1476   0.743E-04    0.169E-04
RMM:  15    -0.413217515331E+03    0.51133E-05   -0.12661E-07  1300   0.700E-04    0.121E-04
RMM:  16    -0.413217512597E+03    0.27339E-05   -0.81911E-08  1143   0.645E-04    0.890E-05
RMM:  17    -0.413217508114E+03    0.44826E-05   -0.77893E-08  1283   0.652E-04    0.617E-05
RMM:  18    -0.413217506031E+03    0.20831E-05   -0.46910E-08  1043   0.583E-04    0.429E-05
RMM:  19    -0.413217504523E+03    0.15079E-05   -0.31396E-08   904   0.552E-04    0.229E-05
RMM:  20    -0.413217504234E+03    0.28897E-06   -0.17071E-08   723   0.523E-04
   45 T=    71. E= -.41286694E+03 F= -.41321750E+03 E0= -.41319654E+03  EK= 0.35056E+00 SP= 0.00E+00 SK= 0.00E+00
       N       E                     dE             d eps       ncg     rms          rms(c)
RMM:   1    -0.413257185230E+03   -0.39681E-01   -0.10993E+01  4311   0.161E+00    0.954E-01
RMM:   2    -0.413221004827E+03    0.36180E-01   -0.18205E-01  4325   0.185E-01    0.694E-01
RMM:   3    -0.413227970881E+03   -0.69661E-02   -0.20939E-02  5112   0.112E-01    0.477E-01
RMM:   4    -0.413240021742E+03   -0.12051E-01   -0.45220E-02  5038   0.184E-01    0.635E-01
RMM:   5    -0.413217171278E+03    0.22850E-01   -0.87065E-03  4621   0.108E-01    0.592E-02
RMM:   6    -0.413217137498E+03    0.33779E-04   -0.17567E-03  5519   0.407E-02    0.336E-02
RMM:   7    -0.413217130449E+03    0.70493E-05   -0.31364E-04  5623   0.172E-02    0.227E-02
RMM:   8    -0.413217118353E+03    0.12096E-04   -0.12476E-04  5068   0.117E-02    0.105E-02
RMM:   9    -0.413217104982E+03    0.13371E-04   -0.16900E-05  4360   0.565E-03    0.427E-03
RMM:  10    -0.413217101736E+03    0.32459E-05   -0.28825E-06  2713   0.229E-03    0.246E-03
RMM:  11    -0.413217096195E+03    0.55412E-05   -0.12830E-06  2498   0.182E-03    0.135E-03
RMM:  12    -0.413217091298E+03    0.48976E-05   -0.59972E-07  2434   0.134E-03    0.677E-04
RMM:  13    -0.413217087875E+03    0.34224E-05   -0.28847E-07  1860   0.918E-04    0.319E-04
RMM:  14    -0.413217084539E+03    0.33364E-05   -0.16370E-07  1388   0.728E-04    0.174E-04
RMM:  15    -0.413217080561E+03    0.39775E-05   -0.12281E-07  1273   0.685E-04    0.120E-04
RMM:  16    -0.413217077852E+03    0.27096E-05   -0.81819E-08  1116   0.639E-04    0.973E-05
RMM:  17    -0.413217073763E+03    0.40888E-05   -0.82429E-08  1325   0.654E-04    0.651E-05
RMM:  18    -0.413217071844E+03    0.19190E-05   -0.44747E-08   982   0.571E-04    0.457E-05
RMM:  19    -0.413217070746E+03    0.10984E-05   -0.30358E-08   865   0.542E-04    0.273E-05
RMM:  20    -0.413217070162E+03    0.58381E-06   -0.17770E-08   728   0.523E-04
   46 T=    71. E= -.41286690E+03 F= -.41321707E+03 E0= -.41319612E+03  EK= 0.35017E+00 SP= 0.00E+00 SK= 0.00E+00
       N       E                     dE             d eps       ncg     rms          rms(c)
RMM:   1    -0.413236168234E+03   -0.19097E-01   -0.10811E+01  4311   0.158E+00    0.942E-01
RMM:   2    -0.413220203066E+03    0.15965E-01   -0.17541E-01  4330   0.191E-01    0.705E-01
RMM:   3    -0.413228811508E+03   -0.86084E-02   -0.23357E-02  5104   0.123E-01    0.508E-01
RMM:   4    -0.413238110668E+03   -0.92992E-02   -0.47096E-02  5028   0.189E-01    0.622E-01
RMM:   5    -0.413215887473E+03    0.22223E-01   -0.80222E-03  4607   0.106E-01    0.587E-02
RMM:   6    -0.413215838650E+03    0.48823E-04   -0.16195E-03  5471   0.393E-02    0.322E-02
RMM:   7    -0.413215832986E+03    0.56640E-05   -0.28641E-04  5642   0.165E-02    0.219E-02
RMM:   8    -0.413215822407E+03    0.10580E-04   -0.12828E-04  5081   0.117E-02    0.104E-02
RMM:   9    -0.413215810372E+03    0.12035E-04   -0.16452E-05  4309   0.563E-03    0.416E-03
RMM:  10    -0.413215808234E+03    0.21375E-05   -0.29789E-06  2729   0.228E-03    0.240E-03
RMM:  11    -0.413215804414E+03    0.38200E-05   -0.13284E-06  2503   0.184E-03    0.130E-03
RMM:  12    -0.413215801255E+03    0.31593E-05   -0.61132E-07  2425   0.134E-03    0.685E-04
RMM:  13    -0.413215798695E+03    0.25596E-05   -0.30461E-07  1840   0.931E-04    0.327E-04
RMM:  14    -0.413215796202E+03    0.24935E-05   -0.17633E-07  1390   0.740E-04    0.179E-04
RMM:  15    -0.413215793338E+03    0.28637E-05   -0.13447E-07  1286   0.693E-04    0.116E-04
RMM:  16    -0.413215791360E+03    0.19782E-05   -0.88766E-08  1153   0.642E-04    0.963E-05
RMM:  17    -0.413215788320E+03    0.30398E-05   -0.88070E-08  1272   0.650E-04    0.582E-05
RMM:  18    -0.413215786695E+03    0.16251E-05   -0.49436E-08   994   0.579E-04    0.455E-05
RMM:  19    -0.413215786030E+03    0.66515E-06   -0.26300E-08   783   0.535E-04
   47 T=    71. E= -.41286700E+03 F= -.41321579E+03 E0= -.41319485E+03  EK= 0.34879E+00 SP= 0.00E+00 SK= 0.00E+00
       N       E                     dE             d eps       ncg     rms          rms(c)
RMM:   1    -0.413240985772E+03   -0.25199E-01   -0.10790E+01  4306   0.172E+00    0.963E-01
RMM:   2    -0.413217357897E+03    0.23628E-01   -0.17502E-01  4372   0.202E-01    0.700E-01
RMM:   3    -0.413233006994E+03   -0.15649E-01   -0.29118E-02  5135   0.142E-01    0.616E-01
RMM:   4    -0.413227068750E+03    0.59382E-02   -0.42443E-02  4986   0.183E-01    0.497E-01
RMM:   5    -0.413213453398E+03    0.13615E-01   -0.48859E-03  4545   0.913E-02    0.578E-02
RMM:   6    -0.413213352446E+03    0.10095E-03   -0.79479E-04  4966   0.309E-02    0.307E-02
RMM:   7    -0.413213336009E+03    0.16438E-04   -0.17178E-04  5754   0.128E-02    0.131E-02
RMM:   8    -0.413213335228E+03    0.78109E-06   -0.74808E-05  5254   0.896E-03    0.102E-02
RMM:   9    -0.413213323282E+03    0.11945E-04   -0.19039E-05  4462   0.524E-03    0.461E-03
RMM:  10    -0.413213320869E+03    0.24134E-05   -0.22952E-06  2586   0.238E-03    0.238E-03
RMM:  11    -0.413213314983E+03    0.58861E-05   -0.17877E-06  2508   0.208E-03    0.147E-03
RMM:  12    -0.413213310924E+03    0.40589E-05   -0.65155E-07  2384   0.144E-03    0.859E-04
RMM:  13    -0.413213307063E+03    0.38610E-05   -0.29546E-07  1883   0.970E-04    0.471E-04
RMM:  14    -0.413213302465E+03    0.45978E-05   -0.18322E-07  1681   0.770E-04    0.327E-04
RMM:  15    -0.413213298242E+03    0.42227E-05   -0.10695E-07  1072   0.619E-04    0.161E-04
RMM:  16    -0.413213295892E+03    0.23500E-05   -0.68954E-08   964   0.580E-04    0.118E-04
RMM:  17    -0.413213292834E+03    0.30586E-05   -0.67180E-08  1087   0.596E-04    0.880E-05
RMM:  18    -0.413213290458E+03    0.23753E-05   -0.43925E-08   913   0.566E-04    0.587E-05
RMM:  19    -0.413213289453E+03    0.10049E-05   -0.23548E-08   712   0.524E-04    0.404E-05
RMM:  20    -0.413213288786E+03    0.66753E-06   -0.19489E-08   700   0.517E-04
   48 T=    70. E= -.41286724E+03 F= -.41321329E+03 E0= -.41319237E+03  EK= 0.34605E+00 SP= 0.00E+00 SK= 0.00E+00
       N       E                     dE             d eps       ncg     rms          rms(c)
RMM:   1    -0.413241043501E+03   -0.27754E-01   -0.10625E+01  4306   0.184E+00    0.952E-01
RMM:   2    -0.413212208128E+03    0.28835E-01   -0.17638E-01  4426   0.213E-01    0.689E-01
RMM:   3    -0.413234727958E+03   -0.22520E-01   -0.34386E-02  5145   0.159E-01    0.707E-01
RMM:   4    -0.413217663692E+03    0.17064E-01   -0.40987E-02  4963   0.183E-01    0.419E-01
RMM:   5    -0.413208529474E+03    0.91342E-02   -0.41924E-03  4575   0.878E-02    0.623E-02
RMM:   6    -0.413208366794E+03    0.16268E-03   -0.48427E-04  4713   0.288E-02    0.328E-02
RMM:   7    -0.413208373553E+03   -0.67598E-05   -0.30219E-04  5770   0.181E-02    0.236E-02
RMM:   8    -0.413208339507E+03    0.34046E-04   -0.10380E-04  5032   0.117E-02    0.930E-03
RMM:   9    -0.413208332921E+03    0.65860E-05   -0.18529E-05  4776   0.563E-03    0.482E-03
RMM:  10    -0.413208328832E+03    0.40892E-05   -0.23184E-06  2628   0.240E-03    0.253E-03
RMM:  11    -0.413208322829E+03    0.60028E-05   -0.14584E-06  2502   0.196E-03    0.181E-03
RMM:  12    -0.413208319188E+03    0.36416E-05   -0.44202E-07  2398   0.125E-03    0.936E-04
[...]
       N       E                     dE             d eps       ncg     rms          rms(c)
RMM:   1    -0.413590623018E+03   -0.67370E+00   -0.24816E+01  4304   0.577E+00    0.218E+00
RMM:   2    -0.413036141387E+03    0.55448E+00   -0.87550E-01  5273   0.899E-01    0.126E+00
RMM:   3    -0.413433701754E+03   -0.39756E+00   -0.51823E-01  5245   0.711E-01    0.253E+00
RMM:   4    -0.413037569289E+03    0.39613E+00   -0.26430E-01  4941   0.537E-01    0.550E-01
RMM:   5    -0.413033954912E+03    0.36144E-02   -0.76748E-02  5491   0.321E-01    0.312E-01
RMM:   6    -0.413032849065E+03    0.11058E-02   -0.12484E-02  5320   0.137E-01    0.133E-01
RMM:   7    -0.413032458663E+03    0.39040E-03   -0.35875E-03  5548   0.670E-02    0.706E-02
RMM:   8    -0.413032384748E+03    0.73915E-04   -0.11257E-03  5743   0.384E-02    0.454E-02
RMM:   9    -0.413032400916E+03   -0.16168E-04   -0.29868E-04  5255   0.205E-02    0.275E-02
RMM:  10    -0.413032426686E+03   -0.25770E-04   -0.13204E-04  5557   0.140E-02    0.119E-02
RMM:  11    -0.413032445527E+03   -0.18841E-04   -0.40983E-05  5193   0.683E-03    0.804E-03
RMM:  12    -0.413032469481E+03   -0.23954E-04   -0.18784E-05  4340   0.599E-03    0.435E-03
RMM:  13    -0.413032479741E+03   -0.10260E-04   -0.64578E-06  3009   0.329E-03    0.283E-03
RMM:  14    -0.413032487005E+03   -0.72645E-05   -0.62430E-06  2965   0.309E-03    0.157E-03
RMM:  15    -0.413032488211E+03   -0.12059E-05   -0.34164E-06  2787   0.206E-03    0.990E-04
RMM:  16    -0.413032485637E+03    0.25744E-05   -0.49644E-06  2856   0.241E-03    0.675E-04
RMM:  17    -0.413032479081E+03    0.65563E-05   -0.32216E-06  2465   0.173E-03    0.467E-04
RMM:  18    -0.413032470890E+03    0.81910E-05   -0.21515E-06  2384   0.146E-03    0.335E-04
RMM:  19    -0.413032463555E+03    0.73342E-05   -0.10409E-06  1879   0.106E-03    0.210E-04
RMM:  20    -0.413032457924E+03    0.56309E-05   -0.43079E-07  1567   0.825E-04    0.136E-04
RMM:  21    -0.413032453931E+03    0.39933E-05   -0.24391E-07  1409   0.716E-04    0.117E-04
RMM:  22    -0.413032451864E+03    0.20673E-05   -0.13450E-07  1222   0.631E-04    0.766E-05
RMM:  23    -0.413032450967E+03    0.89729E-06   -0.70938E-08  1040   0.573E-04
  140 T=    80. E= -.41263818E+03 F= -.41303245E+03 E0= -.41301085E+03  EK= 0.39428E+00 SP= 0.00E+00 SK= 0.00E+00
       N       E                     dE             d eps       ncg     rms          rms(c)
RMM:   1    -0.412814699584E+03    0.21775E+00   -0.69229E+00  4296   0.319E+00    0.905E-01
RMM:   2    -0.412799739615E+03    0.14960E-01   -0.32622E-01  5447   0.529E-01    0.894E-01
RMM:   3    -0.412803977802E+03   -0.42382E-02   -0.69639E-02  5337   0.268E-01    0.872E-01
RMM:   4    -0.412785087724E+03    0.18890E-01   -0.28307E-02  5061   0.206E-01    0.407E-01
RMM:   5    -0.412783921637E+03    0.11661E-02   -0.15558E-02  4407   0.163E-01    0.108E-01
RMM:   6    -0.412783669380E+03    0.25226E-03   -0.27669E-03  5033   0.673E-02    0.679E-02
RMM:   7    -0.412783604781E+03    0.64599E-04   -0.11104E-03  5263   0.391E-02    0.453E-02
RMM:   8    -0.412783621586E+03   -0.16806E-04   -0.31303E-04  4566   0.234E-02    0.247E-02
RMM:   9    -0.412783682621E+03   -0.61035E-04   -0.11244E-04  4510   0.137E-02    0.114E-02
RMM:  10    -0.412783735038E+03   -0.52417E-04   -0.48764E-05  4928   0.838E-03    0.757E-03
RMM:  11    -0.412783773043E+03   -0.38005E-04   -0.20897E-05  3751   0.562E-03    0.462E-03
RMM:  12    -0.412783811140E+03   -0.38096E-04   -0.24350E-05  3707   0.608E-03    0.317E-03
RMM:  13    -0.412783824017E+03   -0.12878E-04   -0.13298E-05  3229   0.383E-03    0.219E-03
RMM:  14    -0.412783828256E+03   -0.42385E-05   -0.79675E-06  3051   0.302E-03    0.129E-03
RMM:  15    -0.412783826289E+03    0.19664E-05   -0.55786E-06  2850   0.237E-03    0.872E-04
RMM:  16    -0.412783816586E+03    0.97038E-05   -0.57643E-06  2948   0.249E-03    0.716E-04
RMM:  17    -0.412783805104E+03    0.11482E-04   -0.36365E-06  2459   0.173E-03    0.365E-04
RMM:  18    -0.412783796402E+03    0.87014E-05   -0.11682E-06  2006   0.118E-03    0.241E-04
RMM:  19    -0.412783789987E+03    0.64154E-05   -0.50604E-07  1734   0.907E-04    0.162E-04
RMM:  20    -0.412783785272E+03    0.47152E-05   -0.30342E-07  1531   0.775E-04    0.118E-04
RMM:  21    -0.412783781871E+03    0.34007E-05   -0.19240E-07  1414   0.696E-04    0.956E-05
RMM:  22    -0.412783780594E+03    0.12766E-05   -0.99964E-08  1124   0.588E-04    0.518E-05
RMM:  23    -0.412783779798E+03    0.79618E-06   -0.62712E-08  1043   0.562E-04
  141 T=    35. E= -.41261093E+03 F= -.41278378E+03 E0= -.41276200E+03  EK= 0.17285E+00 SP= 0.00E+00 SK= 0.00E+00
       N       E                     dE             d eps       ncg     rms          rms(c)
RMM:   1    -0.412853443676E+03   -0.69663E-01   -0.24152E+00  4264   0.247E+00    0.278E-01
RMM:   2    -0.412860426753E+03   -0.69831E-02   -0.10178E-01  5360   0.254E-01    0.259E-01
RMM:   3    -0.412861778598E+03   -0.13518E-02   -0.94605E-03  5565   0.966E-02    0.279E-01
RMM:   4    -0.412860039737E+03    0.17389E-02   -0.18858E-03  4809   0.561E-02    0.139E-01
RMM:   5    -0.412860378820E+03   -0.33908E-03   -0.25368E-03  4596   0.647E-02    0.528E-02
RMM:   6    -0.412860294809E+03    0.84011E-04   -0.78129E-04  4984   0.344E-02    0.294E-02
RMM:   7    -0.412860261037E+03    0.33772E-04   -0.16049E-04  5376   0.160E-02    0.194E-02
RMM:   8    -0.412860260949E+03    0.87381E-07   -0.32661E-05  4430   0.747E-03    0.958E-03
RMM:   9    -0.412860270992E+03   -0.10043E-04   -0.25959E-05  4394   0.652E-03    0.459E-03
RMM:  10    -0.412860271922E+03   -0.92951E-06   -0.40725E-06  2917   0.265E-03
  142 T=    49. E= -.41261843E+03 F= -.41286027E+03 E0= -.41283845E+03  EK= 0.24185E+00 SP= 0.00E+00 SK= 0.00E+00
       N       E                     dE             d eps       ncg     rms          rms(c)
RMM:   1    -0.413131608431E+03   -0.27134E+00   -0.72276E+00  4282   0.396E+00    0.524E-01
RMM:   2    -0.413167513413E+03   -0.35905E-01   -0.49167E-01  5450   0.533E-01    0.651E-01
RMM:   3    -0.413158287243E+03    0.92262E-02   -0.42689E-02  5211   0.215E-01    0.516E-01
RMM:   4    -0.413154076389E+03    0.42109E-02   -0.12488E-02  5372   0.129E-01    0.351E-01
RMM:   5    -0.413154644696E+03   -0.56831E-03   -0.29126E-03  4646   0.737E-02    0.225E-01
RMM:   6    -0.413155674227E+03   -0.10295E-02   -0.68455E-03  4995   0.104E-01    0.125E-01
RMM:   7    -0.413154856014E+03    0.81821E-03   -0.20804E-03  4947   0.573E-02    0.552E-02
RMM:   8    -0.413154822866E+03    0.33148E-04   -0.68490E-04  5872   0.292E-02    0.289E-02
RMM:   9    -0.413154792571E+03    0.30294E-04   -0.22584E-04  5265   0.167E-02    0.179E-02
RMM:  10    -0.413154781116E+03    0.11456E-04   -0.54678E-05  5308   0.921E-03    0.866E-03
RMM:  11    -0.413154783880E+03   -0.27641E-05   -0.19887E-05  4631   0.518E-03    0.620E-03
RMM:  12    -0.413154790125E+03   -0.62450E-05   -0.40800E-06  2862   0.322E-03    0.273E-03
RMM:  13    -0.413154797972E+03   -0.78477E-05   -0.19299E-06  2638   0.209E-03    0.157E-03
RMM:  14    -0.413154810313E+03   -0.12341E-04   -0.23482E-06  2706   0.218E-03    0.823E-04
RMM:  15    -0.413154818195E+03   -0.78816E-05   -0.14078E-06  2530   0.154E-03    0.651E-04
RMM:  16    -0.413154827944E+03   -0.97489E-05   -0.18416E-06  2584   0.156E-03    0.444E-04
RMM:  17    -0.413154834105E+03   -0.61613E-05   -0.12174E-06  1976   0.117E-03    0.268E-04
RMM:  18    -0.413154839098E+03   -0.49930E-05   -0.85487E-07  2074   0.108E-03    0.187E-04
RMM:  19    -0.413154842103E+03   -0.30047E-05   -0.44060E-07  1640   0.799E-04    0.130E-04
RMM:  20    -0.413154845218E+03   -0.31157E-05   -0.29738E-07  1375   0.695E-04    0.704E-05
RMM:  21    -0.413154846637E+03   -0.14187E-05   -0.13974E-07  1107   0.595E-04    0.634E-05
RMM:  22    -0.413154847664E+03   -0.10269E-05   -0.75585E-08   986   0.556E-04    0.432E-05
RMM:  23    -0.413154848642E+03   -0.97794E-06   -0.55223E-08   980   0.553E-04
  143 T=   104. E= -.41264271E+03 F= -.41315485E+03 E0= -.41313304E+03  EK= 0.51214E+00 SP= 0.00E+00 SK= 0.00E+00
       N       E                     dE             d eps       ncg     rms          rms(c)
RMM:   1    -0.413266639014E+03   -0.11179E+00   -0.14664E+01  4290   0.473E+00    0.806E-01
RMM:   2    -0.413310481074E+03   -0.43842E-01   -0.94392E-01  5446   0.705E-01    0.102E+00
RMM:   3    -0.413286314264E+03    0.24167E-01   -0.65270E-02  5198   0.265E-01    0.840E-01
RMM:   4    -0.413279534964E+03    0.67793E-02   -0.12719E-02  5395   0.132E-01    0.680E-01
RMM:   5    -0.413279808237E+03   -0.27327E-03   -0.10211E-02  4541   0.126E-01    0.378E-01
RMM:   6    -0.413280371639E+03   -0.56340E-03   -0.19309E-02  4901   0.166E-01    0.163E-01
RMM:   7    -0.413279093249E+03    0.12784E-02   -0.42174E-03  5208   0.793E-02    0.799E-02
RMM:   8    -0.413278942759E+03    0.15049E-03   -0.91968E-04  5814   0.345E-02    0.469E-02
RMM:   9    -0.413278819259E+03    0.12350E-03   -0.48032E-04  4689   0.235E-02    0.150E-02
RMM:  10    -0.413278815191E+03    0.40673E-05   -0.10932E-04  5583   0.114E-02    0.109E-02
RMM:  11    -0.413278818772E+03   -0.35805E-05   -0.20809E-05  4456   0.558E-03    0.713E-03
RMM:  12    -0.413278829660E+03   -0.10888E-04   -0.64310E-06  3091   0.379E-03    0.435E-03
RMM:  13    -0.413278842388E+03   -0.12728E-04   -0.30866E-06  2781   0.259E-03    0.236E-03
RMM:  14    -0.413278861317E+03   -0.18929E-04   -0.35219E-06  2785   0.285E-03    0.137E-03
RMM:  15    -0.413278876068E+03   -0.14751E-04   -0.24972E-06  2692   0.214E-03    0.872E-04
RMM:  16    -0.413278886564E+03   -0.10496E-04   -0.16730E-06  2582   0.150E-03    0.558E-04
RMM:  17    -0.413278898207E+03   -0.11643E-04   -0.19471E-06  2537   0.152E-03    0.430E-04
RMM:  18    -0.413278906354E+03   -0.81468E-05   -0.16234E-06  2136   0.128E-03    0.278E-04
RMM:  19    -0.413278911258E+03   -0.49036E-05   -0.92412E-07  1922   0.102E-03    0.156E-04
RMM:  20    -0.413278914577E+03   -0.33198E-05   -0.39149E-07  1547   0.785E-04    0.134E-04
RMM:  21    -0.413278917369E+03   -0.27918E-05   -0.22967E-07  1340   0.679E-04    0.898E-05
RMM:  22    -0.413278918981E+03   -0.16116E-05   -0.13346E-07  1171   0.611E-04    0.603E-05
RMM:  23    -0.413278919568E+03   -0.58700E-06   -0.65724E-08   986   0.556E-04
  144 T=   124. E= -.41267171E+03 F= -.41327892E+03 E0= -.41325697E+03  EK= 0.60721E+00 SP= 0.00E+00 SK= 0.00E+00
       N       E                     dE             d eps       ncg     rms          rms(c)
RMM:   1    -0.413014719932E+03    0.26420E+00   -0.10701E+01  4264   0.380E+00    0.117E+00
RMM:   2    -0.413028405702E+03   -0.13686E-01   -0.55304E-01  5281   0.512E-01    0.895E-01
RMM:   3    -0.413093273372E+03   -0.64868E-01   -0.86171E-02  5302   0.294E-01    0.113E+00
RMM:   4    -0.413037547384E+03    0.55726E-01   -0.61742E-02  5050   0.254E-01    0.458E-01
RMM:   5    -0.413031715026E+03    0.58324E-02   -0.31627E-02  5309   0.212E-01    0.219E-01
RMM:   6    -0.413029445676E+03    0.22694E-02   -0.37084E-03  4438   0.902E-02    0.653E-02
RMM:   7    -0.413029494146E+03   -0.48470E-04   -0.23494E-03  5721   0.516E-02    0.387E-02
RMM:   8    -0.413029521116E+03   -0.26970E-04   -0.38379E-04  5872   0.206E-02    0.350E-02
RMM:   9    -0.413029475466E+03    0.45650E-04   -0.10997E-04  5023   0.127E-02    0.169E-02
RMM:  10    -0.413029476889E+03   -0.14222E-05   -0.83414E-05  5740   0.970E-03    0.673E-03
RMM:  11    -0.413029481344E+03   -0.44558E-05   -0.92094E-06  3589   0.391E-03    0.448E-03
RMM:  12    -0.413029484923E+03   -0.35783E-05   -0.22234E-06  2682   0.244E-03    0.191E-03
RMM:  13    -0.413029489910E+03   -0.49874E-05   -0.13119E-06  2567   0.179E-03    0.925E-04
RMM:  14    -0.413029494462E+03   -0.45515E-05   -0.98920E-07  2420   0.135E-03    0.438E-04
RMM:  15    -0.413029497763E+03   -0.33012E-05   -0.70431E-07  2064   0.106E-03    0.293E-04
RMM:  16    -0.413029500669E+03   -0.29058E-05   -0.60733E-07  1926   0.980E-04    0.208E-04
RMM:  17    -0.413029503227E+03   -0.25583E-05   -0.56199E-07  1851   0.910E-04    0.133E-04
RMM:  18    -0.413029505106E+03   -0.18786E-05   -0.39835E-07  1492   0.791E-04    0.837E-05
RMM:  19    -0.413029506076E+03   -0.97091E-06   -0.17095E-07  1242   0.657E-04
  145 T=    81. E= -.41263271E+03 F= -.41302951E+03 E0= -.41300721E+03  EK= 0.39680E+00 SP= 0.00E+00 SK= 0.00E+00
       N       E                     dE             d eps       ncg     rms          rms(c)
RMM:   1    -0.412821950654E+03    0.20755E+00   -0.85585E+00  4277   0.342E+00    0.120E+00
RMM:   2    -0.412797063354E+03    0.24887E-01   -0.38739E-01  5431   0.550E-01    0.973E-01
RMM:   3    -0.412874496461E+03   -0.77433E-01   -0.13008E-01  5333   0.348E-01    0.134E+00
RMM:   4    -0.412796500670E+03    0.77996E-01   -0.59866E-02  4981   0.278E-01    0.389E-01
RMM:   5    -0.412796224762E+03    0.27591E-03   -0.25764E-02  5285   0.199E-01    0.175E-01
RMM:   6    -0.412795200131E+03    0.10246E-02   -0.35574E-03  4959   0.781E-02    0.626E-02
RMM:   7    -0.412795248242E+03   -0.48112E-04   -0.13269E-03  5791   0.394E-02    0.363E-02
RMM:   8    -0.412795257302E+03   -0.90593E-05   -0.36001E-04  5631   0.205E-02    0.272E-02
RMM:   9    -0.412795253804E+03    0.34973E-05   -0.94764E-05  5183   0.118E-02    0.136E-02
RMM:  10    -0.412795265047E+03   -0.11243E-04   -0.47854E-05  5400   0.797E-03    0.767E-03
RMM:  11    -0.412795272408E+03   -0.73609E-05   -0.10022E-05  3622   0.395E-03    0.458E-03
RMM:  12    -0.412795278334E+03   -0.59257E-05   -0.48207E-06  2996   0.323E-03    0.227E-03
RMM:  13    -0.412795281341E+03   -0.30066E-05   -0.22508E-06  2660   0.214E-03    0.120E-03
RMM:  14    -0.412795282386E+03   -0.10455E-05   -0.15103E-06  2472   0.155E-03    0.650E-04
RMM:  15    -0.412795282136E+03    0.24969E-06   -0.95517E-07  2122   0.117E-03
  146 T=    39. E= -.41260489E+03 F= -.41279528E+03 E0= -.41277256E+03  EK= 0.19039E+00 SP= 0.00E+00 SK= 0.00E+00
       N       E                     dE             d eps       ncg     rms          rms(c)
RMM:   1    -0.412856042755E+03   -0.60760E-01   -0.38317E+00  4278   0.252E+00    0.676E-01
RMM:   2    -0.412858134906E+03   -0.20922E-02   -0.14360E-01  5374   0.303E-01    0.486E-01
RMM:   3    -0.412889881716E+03   -0.31747E-01   -0.46596E-02  5255   0.217E-01    0.855E-01
RMM:   4    -0.412857511981E+03    0.32370E-01   -0.23654E-02  4966   0.174E-01    0.184E-01
RMM:   5    -0.412857073783E+03    0.43820E-03   -0.12942E-02  5197   0.130E-01    0.111E-01
RMM:   6    -0.412856445943E+03    0.62784E-03   -0.26674E-03  5242   0.632E-02    0.549E-02
RMM:   7    -0.412856367797E+03    0.78146E-04   -0.39674E-04  5143   0.253E-02    0.232E-02
RMM:   8    -0.412856394300E+03   -0.26503E-04   -0.16904E-04  5718   0.143E-02    0.147E-02
RMM:   9    -0.412856408422E+03   -0.14121E-04   -0.32936E-05  5035   0.702E-03    0.923E-03
RMM:  10    -0.412856420416E+03   -0.11995E-04   -0.16670E-05  4389   0.524E-03    0.502E-03
RMM:  11    -0.412856429946E+03   -0.95294E-05   -0.49961E-06  2951   0.320E-03    0.312E-03
RMM:  12    -0.412856437222E+03   -0.72764E-05   -0.38598E-06  2827   0.262E-03    0.147E-03
RMM:  13    -0.412856438967E+03   -0.17448E-05   -0.19272E-06  2571   0.171E-03    0.849E-04
RMM:  14    -0.412856439399E+03   -0.43202E-06   -0.15361E-06  2433   0.148E-03
  147 T=    49. E= -.41261626E+03 F= -.41285644E+03 E0= -.41283372E+03  EK= 0.24018E+00 SP= 0.00E+00 SK= 0.00E+00
       N       E                     dE             d eps       ncg     rms          rms(c)
RMM:   1    -0.413133427596E+03   -0.27699E+00   -0.82638E+00  4285   0.400E+00    0.140E+00
RMM:   2    -0.413163547997E+03   -0.30120E-01   -0.44626E-01  5378   0.596E-01    0.135E+00
RMM:   3    -0.413150639865E+03    0.12908E-01   -0.11571E-01  5148   0.363E-01    0.124E+00
RMM:   4    -0.413121394188E+03    0.29246E-01   -0.93352E-02  5234   0.348E-01    0.521E-01
RMM:   5    -0.413115679934E+03    0.57143E-02   -0.45524E-02  4940   0.265E-01    0.223E-01
RMM:   6    -0.413113605390E+03    0.20745E-02   -0.14806E-02  5214   0.148E-01    0.131E-01
RMM:   7    -0.413112947279E+03    0.65811E-03   -0.12437E-03  4489   0.545E-02    0.551E-02
RMM:   8    -0.413112908739E+03    0.38540E-04   -0.48575E-04  5396   0.271E-02    0.255E-02
RMM:   9    -0.413112925314E+03   -0.16574E-04   -0.22610E-04  5740   0.166E-02    0.183E-02
RMM:  10    -0.413112921690E+03    0.36235E-05   -0.33767E-05  5037   0.739E-03    0.969E-03
RMM:  11    -0.413112924741E+03   -0.30511E-05   -0.29269E-05  5055   0.615E-03    0.508E-03
RMM:  12    -0.413112928302E+03   -0.35607E-05   -0.39107E-06  2856   0.303E-03    0.266E-03
RMM:  13    -0.413112929207E+03   -0.90542E-06   -0.15004E-06  2572   0.189E-03
  148 T=    96. E= -.41264044E+03 F= -.41311293E+03 E0= -.41309031E+03  EK= 0.47249E+00 SP= 0.00E+00 SK= 0.00E+00
       N       E                     dE             d eps       ncg     rms          rms(c)
RMM:   1    -0.413229642898E+03   -0.11671E+00   -0.11470E+01  4292   0.487E+00    0.865E-01
RMM:   2    -0.413243353629E+03   -0.13711E-01   -0.60758E-01  5426   0.671E-01    0.112E+00
RMM:   3    -0.413199817938E+03    0.43536E-01   -0.79350E-02  5157   0.314E-01    0.763E-01
RMM:   4    -0.413191399536E+03    0.84184E-02   -0.31346E-02  5338   0.210E-01    0.437E-01
RMM:   5    -0.413192693677E+03   -0.12941E-02   -0.16362E-02  5002   0.161E-01    0.272E-01
RMM:   6    -0.413192623017E+03    0.70660E-04   -0.15403E-02  5139   0.143E-01    0.173E-01
RMM:   7    -0.413191377118E+03    0.12459E-02   -0.27276E-03  4769   0.737E-02    0.574E-02
RMM:   8    -0.413191377955E+03   -0.83730E-06   -0.89219E-04  5869   0.339E-02    0.331E-02
RMM:   9    -0.413191365015E+03    0.12940E-04   -0.23234E-04  4924   0.182E-02    0.154E-02
RMM:  10    -0.413191364668E+03    0.34658E-06   -0.47063E-05  5323   0.822E-03    0.867E-03
RMM:  11    -0.413191365872E+03   -0.12031E-05   -0.18034E-05  4616   0.526E-03    0.473E-03
RMM:  12    -0.413191367834E+03   -0.19626E-05   -0.29918E-06  2762   0.266E-03    0.258E-03
RMM:  13    -0.413191368273E+03   -0.43877E-06   -0.11629E-06  2559   0.170E-03
  149 T=   112. E= -.41263895E+03 F= -.41319137E+03 E0= -.41316887E+03  EK= 0.55242E+00 SP= 0.00E+00 SK= 0.00E+00
       N       E                     dE             d eps       ncg     rms          rms(c)
RMM:   1    -0.413067938603E+03    0.12343E+00   -0.10013E+01  4280   0.466E+00    0.531E-01
RMM:   2    -0.413082367003E+03   -0.14428E-01   -0.59667E-01  5463   0.564E-01    0.662E-01
RMM:   3    -0.413070449473E+03    0.11918E-01   -0.49102E-02  5259   0.233E-01    0.493E-01
RMM:   4    -0.413065686022E+03    0.47635E-02   -0.11846E-02  5300   0.133E-01    0.318E-01
RMM:   5    -0.413066193441E+03   -0.50742E-03   -0.39866E-03  4863   0.826E-02    0.215E-01
RMM:   6    -0.413067608290E+03   -0.14148E-02   -0.83889E-03  5133   0.108E-01    0.133E-01
RMM:   7    -0.413066795433E+03    0.81286E-03   -0.23995E-03  4970   0.633E-02    0.528E-02
RMM:   8    -0.413066791152E+03    0.42808E-05   -0.84435E-04  5907   0.327E-02    0.304E-02
RMM:   9    -0.413066778275E+03    0.12878E-04   -0.19204E-04  5352   0.162E-02    0.192E-02
RMM:  10    -0.413066769548E+03    0.87268E-05   -0.61089E-05  5379   0.976E-03    0.682E-03
RMM:  11    -0.413066773000E+03   -0.34524E-05   -0.19917E-05  4667   0.497E-03    0.501E-03
RMM:  12    -0.413066775010E+03   -0.20092E-05   -0.30707E-06  2773   0.274E-03    0.181E-03
RMM:  13    -0.413066776259E+03   -0.12499E-05   -0.89172E-07  2475   0.161E-03    0.978E-04
RMM:  14    -0.413066777562E+03   -0.13028E-05   -0.50806E-07  2181   0.114E-03    0.432E-04
RMM:  15    -0.413066778449E+03   -0.88644E-06   -0.30315E-07  1671   0.876E-04
  150 T=    89. E= -.41262980E+03 F= -.41306678E+03 E0= -.41304444E+03  EK= 0.43698E+00 SP= 0.00E+00 SK= 0.00E+00
