       N       E                     dE             d eps       ncg     rms          rms(c)
RMM:   1     0.220159971040E+04    0.22016E+04   -0.52440E+04  2132   0.654E+02
RMM:   2     0.705440182349E+03   -0.14962E+04   -0.16261E+04  2132   0.177E+02
RMM:   3     0.137642174980E+03   -0.56780E+03   -0.65712E+03  2132   0.117E+02
RMM:   4    -0.159238242903E+03   -0.29688E+03   -0.27855E+03  2132   0.936E+01
RMM:   5    -0.287534187460E+03   -0.12830E+03   -0.11448E+03  2132   0.595E+01
RMM:   6    -0.349798681575E+03   -0.62264E+02   -0.55099E+02  2132   0.423E+01
RMM:   7    -0.382689412879E+03   -0.32891E+02   -0.30396E+02  2132   0.293E+01
RMM:   8    -0.404221204846E+03   -0.21532E+02   -0.18453E+02  2132   0.233E+01
RMM:   9    -0.436051355476E+03   -0.31830E+02   -0.30701E+02  6105   0.173E+01
RMM:  10    -0.441352036054E+03   -0.53007E+01   -0.63176E+01  6397   0.539E+00
RMM:  11    -0.442532481145E+03   -0.11804E+01   -0.10963E+01  6211   0.172E+00
RMM:  12    -0.442893637036E+03   -0.36116E+00   -0.26316E+00  6366   0.596E-01    0.134E+02
RMM:  13    -0.425567711889E+03    0.17326E+02   -0.80873E+01  4671   0.119E+01    0.712E+01
RMM:  14    -0.498653570001E+03   -0.73086E+02   -0.53653E+02  5425   0.232E+01    0.306E+01
RMM:  15    -0.414567308805E+03    0.84086E+02   -0.19656E+02  5074   0.163E+01    0.623E+00
RMM:  16    -0.414091097149E+03    0.47621E+00   -0.39260E+01  6093   0.604E+00    0.434E+00
RMM:  17    -0.413224677938E+03    0.86642E+00   -0.23282E+00  5351   0.182E+00    0.248E+00
RMM:  18    -0.413166169003E+03    0.58509E-01   -0.89577E-01  5967   0.973E-01    0.160E+00
RMM:  19    -0.413168391807E+03   -0.22228E-02   -0.28786E-01  5730   0.568E-01    0.857E-01
RMM:  20    -0.413184721307E+03   -0.16330E-01   -0.21967E-01  5399   0.508E-01    0.558E-01
RMM:  21    -0.413167497923E+03    0.17223E-01   -0.35026E-02  4995   0.233E-01    0.251E-01
RMM:  22    -0.413166011359E+03    0.14866E-02   -0.14537E-02  6059   0.100E-01    0.149E-01
RMM:  23    -0.413164395866E+03    0.16155E-02   -0.61445E-03  5843   0.723E-02    0.824E-02
RMM:  24    -0.413163020352E+03    0.13755E-02   -0.16633E-03  5364   0.395E-02    0.367E-02
RMM:  25    -0.413162724297E+03    0.29606E-03   -0.86715E-04  5824   0.247E-02    0.287E-02
RMM:  26    -0.413162907957E+03   -0.18366E-03   -0.63421E-04  5862   0.253E-02    0.313E-02
RMM:  27    -0.413163340264E+03   -0.43231E-03   -0.19441E-04  4544   0.197E-02    0.173E-02
RMM:  28    -0.413163816996E+03   -0.47673E-03   -0.21114E-04  5278   0.200E-02    0.882E-03
RMM:  29    -0.413164151836E+03   -0.33484E-03   -0.93748E-05  4342   0.138E-02    0.386E-03
RMM:  30    -0.413164355647E+03   -0.20381E-03   -0.70550E-05  4135   0.941E-03    0.330E-03
RMM:  31    -0.413164465338E+03   -0.10969E-03   -0.46359E-05  3095   0.619E-03    0.235E-03
RMM:  32    -0.413164487868E+03   -0.22531E-04   -0.19014E-05  2949   0.285E-03    0.131E-03
RMM:  33    -0.413164497594E+03   -0.97255E-05   -0.80608E-06  2782   0.212E-03    0.619E-04
RMM:  34    -0.413164499869E+03   -0.22755E-05   -0.41077E-06  2590   0.149E-03    0.704E-04
RMM:  35    -0.413164499415E+03    0.45435E-06   -0.21265E-06  2105   0.109E-03
    1 T=    61. E= -.41286673E+03 F= -.41316450E+03 E0= -.41314200E+03  EK= 0.29777E+00 SP= 0.00E+00 SK= 0.00E+00
       N       E                     dE             d eps       ncg     rms          rms(c)
RMM:   1    -0.413162635544E+03    0.18643E-02   -0.90989E+00  3978   0.619E-01    0.886E-01
RMM:   2    -0.413168261382E+03   -0.56258E-02   -0.11158E-01  3960   0.894E-02    0.651E-01
RMM:   3    -0.413164659019E+03    0.36024E-02   -0.16188E-02  4890   0.501E-02    0.108E-01
RMM:   4    -0.413192381521E+03   -0.27723E-01   -0.30241E-02  5196   0.144E-01    0.695E-01
RMM:   5    -0.413164000600E+03    0.28381E-01   -0.13785E-02  4842   0.117E-01    0.488E-02
RMM:   6    -0.413164196615E+03   -0.19601E-03   -0.24775E-03  5780   0.485E-02    0.334E-02
RMM:   7    -0.413164201293E+03   -0.46783E-05   -0.44485E-04  5715   0.193E-02    0.212E-02
RMM:   8    -0.413164198567E+03    0.27255E-05   -0.60594E-05  5145   0.848E-03    0.953E-03
RMM:   9    -0.413164200639E+03   -0.20721E-05   -0.12845E-05  3774   0.381E-03    0.710E-03
RMM:  10    -0.413164205677E+03   -0.50378E-05   -0.23251E-06  2608   0.223E-03    0.436E-03
RMM:  11    -0.413164210047E+03   -0.43697E-05   -0.13742E-06  2538   0.173E-03    0.242E-03
RMM:  12    -0.413164217181E+03   -0.71339E-05   -0.18932E-06  2584   0.193E-03    0.101E-03
RMM:  13    -0.413164219974E+03   -0.27935E-05   -0.70745E-07  2387   0.130E-03    0.763E-04
RMM:  14    -0.413164219825E+03    0.14944E-06   -0.35417E-07  1916   0.864E-04
    2 T=    61. E= -.41286655E+03 F= -.41316422E+03 E0= -.41314172E+03  EK= 0.29767E+00 SP= 0.00E+00 SK= 0.00E+00
       N       E                     dE             d eps       ncg     rms          rms(c)
RMM:   1    -0.413163643457E+03    0.57652E-03   -0.90957E+00  4190   0.624E-01    0.905E-01
RMM:   2    -0.413168454871E+03   -0.48114E-02   -0.11033E-01  4006   0.898E-02    0.646E-01
RMM:   3    -0.413165092999E+03    0.33619E-02   -0.15283E-02  4812   0.469E-02    0.103E-01
RMM:   4    -0.413188214089E+03   -0.23121E-01   -0.23976E-02  5167   0.129E-01    0.637E-01
RMM:   5    -0.413164642436E+03    0.23572E-01   -0.11425E-02  4835   0.106E-01    0.470E-02
RMM:   6    -0.413164802384E+03   -0.15995E-03   -0.20689E-03  5784   0.442E-02    0.328E-02
RMM:   7    -0.413164793767E+03    0.86164E-05   -0.38856E-04  5597   0.189E-02    0.204E-02
RMM:   8    -0.413164784284E+03    0.94837E-05   -0.52989E-05  4997   0.827E-03    0.955E-03
RMM:   9    -0.413164782970E+03    0.13133E-05   -0.10829E-05  3622   0.365E-03    0.724E-03
RMM:  10    -0.413164783256E+03   -0.28584E-06   -0.19746E-06  2565   0.227E-03
    3 T=    61. E= -.41286685E+03 F= -.41316478E+03 E0= -.41314229E+03  EK= 0.29793E+00 SP= 0.00E+00 SK= 0.00E+00
       N       E                     dE             d eps       ncg     rms          rms(c)
RMM:   1    -0.413163075084E+03    0.17079E-02   -0.90277E+00  4221   0.627E-01    0.890E-01
RMM:   2    -0.413168009918E+03   -0.49348E-02   -0.10994E-01  4199   0.881E-02    0.641E-01
RMM:   3    -0.413169521184E+03   -0.15113E-02   -0.18633E-02  5154   0.793E-02    0.307E-01
RMM:   4    -0.413190475260E+03   -0.20954E-01   -0.39869E-02  5122   0.170E-01    0.665E-01
RMM:   5    -0.413164487435E+03    0.25988E-01   -0.10194E-02  4718   0.109E-01    0.604E-02
RMM:   6    -0.413164520012E+03   -0.32577E-04   -0.19572E-03  5484   0.446E-02    0.316E-02
RMM:   7    -0.413164541738E+03   -0.21726E-04   -0.37155E-04  6006   0.173E-02    0.192E-02
RMM:   8    -0.413164538554E+03    0.31843E-05   -0.65148E-05  5180   0.920E-03    0.801E-03
RMM:   9    -0.413164536661E+03    0.18930E-05   -0.83441E-06  3422   0.364E-03    0.410E-03
RMM:  10    -0.413164537843E+03   -0.11823E-05   -0.18613E-06  2565   0.218E-03    0.266E-03
RMM:  11    -0.413164539568E+03   -0.17251E-05   -0.13941E-06  2534   0.183E-03    0.152E-03
RMM:  12    -0.413164540464E+03   -0.89540E-06   -0.79875E-07  2490   0.143E-03
    4 T=    61. E= -.41286656E+03 F= -.41316454E+03 E0= -.41314205E+03  EK= 0.29798E+00 SP= 0.00E+00 SK= 0.00E+00
       N       E                     dE             d eps       ncg     rms          rms(c)
RMM:   1    -0.413163041175E+03    0.14984E-02   -0.90907E+00  4235   0.632E-01    0.884E-01
RMM:   2    -0.413168479443E+03   -0.54383E-02   -0.11173E-01  3984   0.872E-02    0.650E-01
RMM:   3    -0.413165268202E+03    0.32112E-02   -0.16235E-02  4972   0.484E-02    0.117E-01
RMM:   4    -0.413196117429E+03   -0.30849E-01   -0.33142E-02  5153   0.152E-01    0.734E-01
RMM:   5    -0.413164481663E+03    0.31636E-01   -0.15079E-02  4816   0.122E-01    0.497E-02
RMM:   6    -0.413164682842E+03   -0.20118E-03   -0.26042E-03  5756   0.501E-02    0.332E-02
RMM:   7    -0.413164690160E+03   -0.73180E-05   -0.44522E-04  5737   0.194E-02    0.211E-02
RMM:   8    -0.413164686861E+03    0.32986E-05   -0.64317E-05  5133   0.874E-03    0.977E-03
RMM:   9    -0.413164687478E+03   -0.61650E-06   -0.12511E-05  3842   0.397E-03    0.714E-03
RMM:  10    -0.413164691538E+03   -0.40603E-05   -0.20088E-06  2584   0.222E-03    0.441E-03
RMM:  11    -0.413164695272E+03   -0.37344E-05   -0.12708E-06  2534   0.177E-03    0.238E-03
RMM:  12    -0.413164700874E+03   -0.56018E-05   -0.18795E-06  2599   0.196E-03    0.105E-03
RMM:  13    -0.413164702688E+03   -0.18139E-05   -0.58689E-07  2386   0.129E-03    0.737E-04
RMM:  14    -0.413164702584E+03    0.10406E-06   -0.24013E-07  1875   0.847E-04
    5 T=    61. E= -.41286656E+03 F= -.41316470E+03 E0= -.41314223E+03  EK= 0.29814E+00 SP= 0.00E+00 SK= 0.00E+00
       N       E                     dE             d eps       ncg     rms          rms(c)
RMM:   1    -0.413163929276E+03    0.77341E-03   -0.91032E+00  4246   0.638E-01    0.902E-01
RMM:   2    -0.413168610038E+03   -0.46808E-02   -0.11078E-01  3954   0.861E-02    0.648E-01
RMM:   3    -0.413165491419E+03    0.31186E-02   -0.15485E-02  4844   0.449E-02    0.101E-01
RMM:   4    -0.413188613382E+03   -0.23122E-01   -0.24057E-02  5150   0.129E-01    0.637E-01
RMM:   5    -0.413165018221E+03    0.23595E-01   -0.11384E-02  4815   0.106E-01    0.471E-02
RMM:   6    -0.413165191258E+03   -0.17304E-03   -0.21228E-03  5767   0.442E-02    0.327E-02
RMM:   7    -0.413165184816E+03    0.64416E-05   -0.38964E-04  5599   0.189E-02    0.206E-02
RMM:   8    -0.413165175551E+03    0.92658E-05   -0.53099E-05  4951   0.827E-03    0.971E-03
RMM:   9    -0.413165174231E+03    0.13194E-05   -0.10689E-05  3623   0.366E-03    0.741E-03
RMM:  10    -0.413165174648E+03   -0.41734E-06   -0.18781E-06  2553   0.227E-03
    6 T=    61. E= -.41286679E+03 F= -.41316517E+03 E0= -.41314271E+03  EK= 0.29839E+00 SP= 0.00E+00 SK= 0.00E+00
       N       E                     dE             d eps       ncg     rms          rms(c)
RMM:   1    -0.413163634029E+03    0.15402E-02   -0.90507E+00  4257   0.641E-01    0.897E-01
RMM:   2    -0.413168397218E+03   -0.47632E-02   -0.11017E-01  4238   0.882E-02    0.642E-01
RMM:   3    -0.413170001342E+03   -0.16041E-02   -0.18759E-02  5143   0.785E-02    0.310E-01
RMM:   4    -0.413190413810E+03   -0.20412E-01   -0.39515E-02  5102   0.169E-01    0.659E-01
RMM:   5    -0.413164900223E+03    0.25514E-01   -0.99315E-03  4709   0.108E-01    0.601E-02
RMM:   6    -0.413164928506E+03   -0.28283E-04   -0.19409E-03  5474   0.441E-02    0.319E-02
RMM:   7    -0.413164945057E+03   -0.16551E-04   -0.36469E-04  5982   0.172E-02    0.193E-02
RMM:   8    -0.413164939739E+03    0.53175E-05   -0.63644E-05  5144   0.913E-03    0.797E-03
RMM:   9    -0.413164936622E+03    0.31167E-05   -0.79245E-06  3374   0.360E-03    0.411E-03
RMM:  10    -0.413164936484E+03    0.13799E-06   -0.18678E-06  2566   0.217E-03
    7 T=    61. E= -.41286650E+03 F= -.41316494E+03 E0= -.41314249E+03  EK= 0.29844E+00 SP= 0.00E+00 SK= 0.00E+00
       N       E                     dE             d eps       ncg     rms          rms(c)
RMM:   1    -0.413163931562E+03    0.10051E-02   -0.90721E+00  4268   0.645E-01    0.882E-01
RMM:   2    -0.413169478794E+03   -0.55472E-02   -0.11121E-01  4087   0.889E-02    0.647E-01
RMM:   3    -0.413166195970E+03    0.32828E-02   -0.16106E-02  4943   0.510E-02    0.124E-01
RMM:   4    -0.413198757068E+03   -0.32561E-01   -0.35289E-02  5144   0.156E-01    0.754E-01
RMM:   5    -0.413165330096E+03    0.33427E-01   -0.15890E-02  4803   0.125E-01    0.511E-02
RMM:   6    -0.413165534680E+03   -0.20458E-03   -0.27880E-03  5747   0.517E-02    0.338E-02
RMM:   7    -0.413165535877E+03   -0.11962E-05   -0.46480E-04  5754   0.197E-02    0.215E-02
RMM:   8    -0.413165531319E+03    0.45574E-05   -0.65622E-05  5161   0.882E-03    0.986E-03
RMM:   9    -0.413165530985E+03    0.33361E-06   -0.12844E-05  3855   0.400E-03    0.712E-03
RMM:  10    -0.413165533710E+03   -0.27240E-05   -0.20611E-06  2583   0.223E-03    0.440E-03
RMM:  11    -0.413165536137E+03   -0.24274E-05   -0.12067E-06  2523   0.174E-03    0.243E-03
RMM:  12    -0.413165539866E+03   -0.37290E-05   -0.19727E-06  2607   0.200E-03    0.106E-03
RMM:  13    -0.413165541101E+03   -0.12356E-05   -0.63958E-07  2412   0.132E-03    0.806E-04
RMM:  14    -0.413165540867E+03    0.23459E-06   -0.24178E-07  1886   0.852E-04
    8 T=    61. E= -.41286678E+03 F= -.41316554E+03 E0= -.41314311E+03  EK= 0.29876E+00 SP= 0.00E+00 SK= 0.00E+00
       N       E                     dE             d eps       ncg     rms          rms(c)
RMM:   1    -0.413164370319E+03    0.11708E-02   -0.91087E+00  4283   0.649E-01    0.897E-01
RMM:   2    -0.413169590515E+03   -0.52202E-02   -0.11103E-01  4101   0.896E-02    0.650E-01
RMM:   3    -0.413166057589E+03    0.35329E-02   -0.15735E-02  4837   0.474E-02    0.102E-01
RMM:   4    -0.413190446093E+03   -0.24389E-01   -0.25470E-02  5136   0.133E-01    0.654E-01
RMM:   5    -0.413165539863E+03    0.24906E-01   -0.12017E-02  4810   0.108E-01    0.471E-02
RMM:   6    -0.413165710914E+03   -0.17105E-03   -0.22087E-03  5769   0.449E-02    0.320E-02
RMM:   7    -0.413165710502E+03    0.41222E-06   -0.38407E-04  5626   0.187E-02    0.205E-02
RMM:   8    -0.413165701589E+03    0.89128E-05   -0.57768E-05  4969   0.844E-03    0.986E-03
RMM:   9    -0.413165699977E+03    0.16123E-05   -0.11405E-05  3760   0.382E-03    0.749E-03
RMM:  10    -0.413165700517E+03   -0.54046E-06   -0.18807E-06  2559   0.226E-03
    9 T=    61. E= -.41286670E+03 F= -.41316570E+03 E0= -.41314329E+03  EK= 0.29900E+00 SP= 0.00E+00 SK= 0.00E+00
       N       E                     dE             d eps       ncg     rms          rms(c)
RMM:   1    -0.413164610823E+03    0.10892E-02   -0.90808E+00  4293   0.653E-01    0.903E-01
RMM:   2    -0.413169430960E+03   -0.48201E-02   -0.11023E-01  4284   0.902E-02    0.644E-01
RMM:   3    -0.413171281894E+03   -0.18509E-02   -0.19202E-02  5128   0.820E-02    0.323E-01
RMM:   4    -0.413189830724E+03   -0.18549E-01   -0.38656E-02  5086   0.168E-01    0.641E-01
RMM:   5    -0.413165735022E+03    0.24096E-01   -0.91983E-03  4693   0.104E-01    0.596E-02
RMM:   6    -0.413165757405E+03   -0.22383E-04   -0.18432E-03  5459   0.426E-02    0.322E-02
RMM:   7    -0.413165769128E+03   -0.11723E-04   -0.35020E-04  5954   0.170E-02    0.192E-02
RMM:   8    -0.413165762499E+03    0.66293E-05   -0.61702E-05  5126   0.904E-03    0.787E-03
RMM:   9    -0.413165757996E+03    0.45026E-05   -0.76596E-06  3341   0.355E-03    0.406E-03
RMM:  10    -0.413165756830E+03    0.11659E-05   -0.17916E-06  2552   0.215E-03    0.259E-03
RMM:  11    -0.413165754971E+03    0.18592E-05   -0.12638E-06  2519   0.178E-03    0.144E-03
RMM:  12    -0.413165753114E+03    0.18570E-05   -0.75123E-07  2470   0.140E-03    0.572E-04
RMM:  13    -0.413165751990E+03    0.11242E-05   -0.37727E-07  2111   0.100E-03    0.312E-04
RMM:  14    -0.413165750824E+03    0.11656E-05   -0.23587E-07  1602   0.800E-04    0.207E-04
RMM:  15    -0.413165749156E+03    0.16681E-05   -0.22012E-07  1501   0.755E-04    0.145E-04
RMM:  16    -0.413165747379E+03    0.17771E-05   -0.18732E-07  1435   0.711E-04    0.144E-04
RMM:  17    -0.413165745587E+03    0.17915E-05   -0.15602E-07  1312   0.663E-04    0.769E-05
RMM:  18    -0.413165744470E+03    0.11169E-05   -0.83375E-08  1022   0.589E-04    0.346E-05
RMM:  19    -0.413165743871E+03    0.59981E-06   -0.45069E-08   847   0.548E-04
   10 T=    61. E= -.41286648E+03 F= -.41316574E+03 E0= -.41314336E+03  EK= 0.29926E+00 SP= 0.00E+00 SK= 0.00E+00
       N       E                     dE             d eps       ncg     rms          rms(c)
RMM:   1    -0.413164880653E+03    0.86382E-03   -0.90587E+00  4288   0.658E-01    0.883E-01
RMM:   2    -0.413170269324E+03   -0.53887E-02   -0.11107E-01  4200   0.896E-02    0.645E-01
RMM:   3    -0.413167162288E+03    0.31070E-02   -0.15879E-02  4895   0.523E-02    0.124E-01
RMM:   4    -0.413199608949E+03   -0.32447E-01   -0.35108E-02  5133   0.156E-01    0.752E-01
RMM:   5    -0.413166304266E+03    0.33305E-01   -0.15909E-02  4795   0.125E-01    0.509E-02
RMM:   6    -0.413166517189E+03   -0.21292E-03   -0.27827E-03  5734   0.514E-02    0.342E-02
RMM:   7    -0.413166518702E+03   -0.15130E-05   -0.46458E-04  5661   0.197E-02    0.216E-02
RMM:   8    -0.413166513681E+03    0.50208E-05   -0.66533E-05  5157   0.893E-03    0.100E-02
RMM:   9    -0.413166512076E+03    0.16051E-05   -0.13176E-05  3915   0.408E-03    0.726E-03
RMM:  10    -0.413166513604E+03   -0.15275E-05   -0.20242E-06  2580   0.224E-03    0.449E-03
RMM:  11    -0.413166514897E+03   -0.12930E-05   -0.11262E-06  2507   0.170E-03    0.253E-03
RMM:  12    -0.413166516982E+03   -0.20856E-05   -0.17160E-06  2568   0.195E-03    0.105E-03
RMM:  13    -0.413166517719E+03   -0.73636E-06   -0.60800E-07  2385   0.132E-03
   11 T=    61. E= -.41286677E+03 F= -.41316652E+03 E0= -.41314416E+03  EK= 0.29975E+00 SP= 0.00E+00 SK= 0.00E+00
       N       E                     dE             d eps       ncg     rms          rms(c)
RMM:   1    -0.413165049465E+03    0.14675E-02   -0.91267E+00  4294   0.664E-01    0.894E-01
RMM:   2    -0.413170231245E+03   -0.51818E-02   -0.11181E-01  4208   0.911E-02    0.652E-01
RMM:   3    -0.413166902450E+03    0.33288E-02   -0.16040E-02  4840   0.483E-02    0.106E-01
RMM:   4    -0.413193587895E+03   -0.26685E-01   -0.28135E-02  5130   0.139E-01    0.683E-01
RMM:   5    -0.413166296146E+03    0.27292E-01   -0.13117E-02  4801   0.113E-01    0.479E-02
RMM:   6    -0.413166482341E+03   -0.18619E-03   -0.24119E-03  5793   0.465E-02    0.320E-02
RMM:   7    -0.413166483876E+03   -0.15351E-05   -0.39174E-04  5668   0.188E-02    0.206E-02
RMM:   8    -0.413166475081E+03    0.87952E-05   -0.63578E-05  4989   0.870E-03    0.101E-02
RMM:   9    -0.413166472988E+03    0.20934E-05   -0.12532E-05  3921   0.402E-03    0.767E-03
RMM:  10    -0.413166473528E+03   -0.54003E-06   -0.19088E-06  2562   0.226E-03
   12 T=    61. E= -.41286650E+03 F= -.41316647E+03 E0= -.41314414E+03  EK= 0.29998E+00 SP= 0.00E+00 SK= 0.00E+00
       N       E                     dE             d eps       ncg     rms          rms(c)
RMM:   1    -0.413166069635E+03    0.40335E-03   -0.91130E+00  4304   0.666E-01    0.908E-01
RMM:   2    -0.413170356619E+03   -0.42870E-02   -0.11084E-01  4302   0.876E-02    0.647E-01
RMM:   3    -0.413173568094E+03   -0.32115E-02   -0.20141E-02  5137   0.850E-02    0.349E-01
RMM:   4    -0.413188995662E+03   -0.15428E-01   -0.38106E-02  5075   0.167E-01    0.612E-01
RMM:   5    -0.413167063543E+03    0.21932E-01   -0.81037E-03  4658   0.995E-02    0.592E-02
RMM:   6    -0.413167069227E+03   -0.56837E-05   -0.16654E-03  5391   0.406E-02    0.322E-02
RMM:   7    -0.413167080514E+03   -0.11288E-04   -0.32714E-04  5925   0.167E-02    0.190E-02
RMM:   8    -0.413167073337E+03    0.71772E-05   -0.59584E-05  5125   0.894E-03    0.772E-03
RMM:   9    -0.413167068040E+03    0.52967E-05   -0.72580E-06  3302   0.353E-03    0.395E-03
RMM:  10    -0.413167066228E+03    0.18124E-05   -0.15829E-06  2524   0.211E-03    0.250E-03
RMM:  11    -0.413167063156E+03    0.30715E-05   -0.12563E-06  2520   0.176E-03    0.145E-03
RMM:  12    -0.413167060598E+03    0.25578E-05   -0.68367E-07  2460   0.137E-03    0.589E-04
RMM:  13    -0.413167058934E+03    0.16645E-05   -0.35594E-07  2100   0.986E-04    0.331E-04
RMM:  14    -0.413167057430E+03    0.15038E-05   -0.20940E-07  1582   0.779E-04    0.222E-04
RMM:  15    -0.413167054934E+03    0.24965E-05   -0.20715E-07  1487   0.748E-04    0.150E-04
RMM:  16    -0.413167052671E+03    0.22625E-05   -0.16082E-07  1337   0.688E-04    0.142E-04
RMM:  17    -0.413167050306E+03    0.23655E-05   -0.14478E-07  1323   0.663E-04    0.782E-05
RMM:  18    -0.413167049158E+03    0.11479E-05   -0.69029E-08   978   0.576E-04    0.437E-05
RMM:  19    -0.413167048219E+03    0.93909E-06   -0.43861E-08   866   0.550E-04
   13 T=    61. E= -.41286663E+03 F= -.41316705E+03 E0= -.41314475E+03  EK= 0.30042E+00 SP= 0.00E+00 SK= 0.00E+00
       N       E                     dE             d eps       ncg     rms          rms(c)
RMM:   1    -0.413166257517E+03    0.79164E-03   -0.90576E+00  4292   0.675E-01    0.886E-01
RMM:   2    -0.413171291370E+03   -0.50339E-02   -0.11109E-01  4214   0.874E-02    0.644E-01
RMM:   3    -0.413168422333E+03    0.28690E-02   -0.15746E-02  4952   0.492E-02    0.130E-01
RMM:   4    -0.413202154887E+03   -0.33733E-01   -0.36909E-02  5135   0.160E-01    0.767E-01
RMM:   5    -0.413167508408E+03    0.34646E-01   -0.16474E-02  4792   0.127E-01    0.520E-02
RMM:   6    -0.413167723286E+03   -0.21488E-03   -0.29386E-03  5749   0.521E-02    0.348E-02
RMM:   7    -0.413167721514E+03    0.17713E-05   -0.47639E-04  5663   0.200E-02    0.221E-02
RMM:   8    -0.413167713287E+03    0.82270E-05   -0.69249E-05  5159   0.907E-03    0.103E-02
RMM:   9    -0.413167710066E+03    0.32216E-05   -0.13736E-05  3985   0.416E-03    0.742E-03
RMM:  10    -0.413167709694E+03    0.37175E-06   -0.20356E-06  2563   0.225E-03
   14 T=    61. E= -.41286679E+03 F= -.41316771E+03 E0= -.41314544E+03  EK= 0.30092E+00 SP= 0.00E+00 SK= 0.00E+00
       N       E                     dE             d eps       ncg     rms          rms(c)
RMM:   1    -0.413166331198E+03    0.13789E-02   -0.91432E+00  4304   0.674E-01    0.891E-01
RMM:   2    -0.413171757025E+03   -0.54258E-02   -0.11214E-01  4327   0.888E-02    0.654E-01
RMM:   3    -0.413175374389E+03   -0.36174E-02   -0.21848E-02  5131   0.912E-02    0.374E-01
RMM:   4    -0.413190031009E+03   -0.14657E-01   -0.40399E-02  5065   0.172E-01    0.616E-01
RMM:   5    -0.413167724282E+03    0.22307E-01   -0.80351E-03  4650   0.100E-01    0.583E-02
RMM:   6    -0.413167723984E+03    0.29741E-06   -0.16322E-03  5381   0.400E-02    0.304E-02
RMM:   7    -0.413167742314E+03   -0.18330E-04   -0.31610E-04  5932   0.165E-02    0.183E-02
RMM:   8    -0.413167740079E+03    0.22355E-05   -0.59681E-05  5131   0.890E-03    0.744E-03
RMM:   9    -0.413167738033E+03    0.20459E-05   -0.72840E-06  3264   0.355E-03    0.379E-03
RMM:  10    -0.413167738994E+03   -0.96064E-06   -0.14839E-06  2514   0.205E-03
   15 T=    61. E= -.41286648E+03 F= -.41316774E+03 E0= -.41314550E+03  EK= 0.30125E+00 SP= 0.00E+00 SK= 0.00E+00
       N       E                     dE             d eps       ncg     rms          rms(c)
RMM:   1    -0.413167799655E+03   -0.61622E-04   -0.91415E+00  4304   0.679E-01    0.910E-01
RMM:   2    -0.413172535863E+03   -0.47362E-02   -0.11121E-01  4231   0.906E-02    0.649E-01
RMM:   3    -0.413169495131E+03    0.30407E-02   -0.15728E-02  4935   0.514E-02    0.133E-01
RMM:   4    -0.413203570813E+03   -0.34076E-01   -0.37084E-02  5126   0.160E-01    0.770E-01
RMM:   5    -0.413168610505E+03    0.34960E-01   -0.16740E-02  4797   0.128E-01    0.523E-02
RMM:   6    -0.413168818548E+03   -0.20804E-03   -0.29179E-03  5756   0.528E-02    0.357E-02
RMM:   7    -0.413168809755E+03    0.87931E-05   -0.48349E-04  5696   0.206E-02    0.226E-02
RMM:   8    -0.413168797486E+03    0.12269E-04   -0.72002E-05  5170   0.931E-03    0.107E-02
RMM:   9    -0.413168791597E+03    0.58896E-05   -0.13778E-05  3974   0.418E-03    0.763E-03
RMM:  10    -0.413168787656E+03    0.39404E-05   -0.21651E-06  2577   0.232E-03    0.465E-03
RMM:  11    -0.413168784861E+03    0.27954E-05   -0.11795E-06  2507   0.175E-03    0.267E-03
RMM:  12    -0.413168779437E+03    0.54243E-05   -0.19660E-06  2603   0.207E-03    0.114E-03
RMM:  13    -0.413168776236E+03    0.32006E-05   -0.66891E-07  2417   0.139E-03    0.940E-04
RMM:  14    -0.413168776592E+03   -0.35608E-06   -0.25808E-07  1963   0.896E-04
   16 T=    61. E= -.41286681E+03 F= -.41316878E+03 E0= -.41314658E+03  EK= 0.30197E+00 SP= 0.00E+00 SK= 0.00E+00
       N       E                     dE             d eps       ncg     rms          rms(c)
RMM:   1    -0.413174187321E+03   -0.54111E-02   -0.91411E+00  4296   0.723E-01    0.891E-01
RMM:   2    -0.413173094267E+03    0.10931E-02   -0.11556E-01  4246   0.941E-02    0.644E-01
RMM:   3    -0.413169709653E+03    0.33846E-02   -0.15101E-02  4848   0.498E-02    0.116E-01
RMM:   4    -0.413199095236E+03   -0.29386E-01   -0.31139E-02  5128   0.146E-01    0.716E-01
RMM:   5    -0.413169059724E+03    0.30036E-01   -0.14504E-02  4799   0.119E-01    0.496E-02
RMM:   6    -0.413169250819E+03   -0.19109E-03   -0.26449E-03  5797   0.487E-02    0.336E-02
RMM:   7    -0.413169248716E+03    0.21025E-05   -0.42251E-04  5655   0.195E-02    0.214E-02
RMM:   8    -0.413169236137E+03    0.12579E-04   -0.68161E-05  5034   0.904E-03    0.106E-02
RMM:   9    -0.413169231009E+03    0.51277E-05   -0.13575E-05  4008   0.418E-03    0.792E-03
RMM:  10    -0.413169228339E+03    0.26701E-05   -0.20309E-06  2574   0.230E-03    0.485E-03
RMM:  11    -0.413169226230E+03    0.21090E-05   -0.12995E-06  2510   0.184E-03    0.270E-03
RMM:  12    -0.413169222722E+03    0.35083E-05   -0.18093E-06  2567   0.205E-03    0.109E-03
RMM:  13    -0.413169220888E+03    0.18342E-05   -0.57810E-07  2374   0.134E-03    0.779E-04
RMM:  14    -0.413169220987E+03   -0.99295E-07   -0.25275E-07  1942   0.875E-04
   17 T=    62. E= -.41286666E+03 F= -.41316922E+03 E0= -.41314706E+03  EK= 0.30257E+00 SP= 0.00E+00 SK= 0.00E+00
       N       E                     dE             d eps       ncg     rms          rms(c)
RMM:   1    -0.413168260997E+03    0.95989E-03   -0.91643E+00  4296   0.686E-01    0.890E-01
RMM:   2    -0.413173693763E+03   -0.54328E-02   -0.11300E-01  4246   0.918E-02    0.655E-01
RMM:   3    -0.413170239176E+03    0.34546E-02   -0.16517E-02  4866   0.510E-02    0.111E-01
RMM:   4    -0.413199191961E+03   -0.28953E-01   -0.30884E-02  5125   0.146E-01    0.711E-01
RMM:   5    -0.413169546573E+03    0.29645E-01   -0.14384E-02  4801   0.118E-01    0.486E-02
RMM:   6    -0.413169731549E+03   -0.18498E-03   -0.24830E-03  5774   0.484E-02    0.323E-02
RMM:   7    -0.413169732881E+03   -0.13319E-05   -0.41061E-04  5654   0.192E-02    0.207E-02
RMM:   8    -0.413169724354E+03    0.85272E-05   -0.65766E-05  5042   0.887E-03    0.100E-02
RMM:   9    -0.413169721647E+03    0.27061E-05   -0.12994E-05  3935   0.408E-03    0.743E-03
RMM:  10    -0.413169721654E+03   -0.63192E-08   -0.19145E-06  2560   0.223E-03
   18 T=    62. E= -.41286651E+03 F= -.41316972E+03 E0= -.41314760E+03  EK= 0.30321E+00 SP= 0.00E+00 SK= 0.00E+00
       N       E                     dE             d eps       ncg     rms          rms(c)
RMM:   1    -0.413171343079E+03   -0.16214E-02   -0.91935E+00  4302   0.718E-01    0.910E-01
RMM:   2    -0.413174489746E+03   -0.31467E-02   -0.11355E-01  4320   0.920E-02    0.653E-01
RMM:   3    -0.413176924493E+03   -0.24347E-02   -0.19951E-02  5124   0.838E-02    0.335E-01
RMM:   4    -0.413195462711E+03   -0.18538E-01   -0.40333E-02  5074   0.171E-01    0.646E-01
RMM:   5    -0.413170890345E+03    0.24572E-01   -0.92898E-03  4680   0.105E-01    0.592E-02
RMM:   6    -0.413170919726E+03   -0.29382E-04   -0.18848E-03  5451   0.426E-02    0.322E-02
RMM:   7    -0.413170928381E+03   -0.86544E-05   -0.34694E-04  5932   0.170E-02    0.194E-02
RMM:   8    -0.413170920115E+03    0.82659E-05   -0.62798E-05  5141   0.906E-03    0.796E-03
RMM:   9    -0.413170913683E+03    0.64318E-05   -0.78122E-06  3327   0.362E-03    0.408E-03
RMM:  10    -0.413170911203E+03    0.24803E-05   -0.17931E-06  2547   0.215E-03    0.261E-03
RMM:  11    -0.413170907361E+03    0.38415E-05   -0.12145E-06  2504   0.177E-03    0.144E-03
RMM:  12    -0.413170903850E+03    0.35116E-05   -0.68530E-07  2459   0.138E-03    0.550E-04
RMM:  13    -0.413170901774E+03    0.20763E-05   -0.34150E-07  2082   0.984E-04    0.318E-04
RMM:  14    -0.413170899870E+03    0.19033E-05   -0.19608E-07  1575   0.779E-04    0.214E-04
RMM:  15    -0.413170896697E+03    0.31735E-05   -0.17912E-07  1500   0.742E-04    0.153E-04
RMM:  16    -0.413170893847E+03    0.28494E-05   -0.13295E-07  1316   0.674E-04    0.140E-04
RMM:  17    -0.413170890959E+03    0.28884E-05   -0.11489E-07  1275   0.648E-04    0.730E-05
RMM:  18    -0.413170889223E+03    0.17363E-05   -0.65634E-08  1011   0.583E-04    0.397E-05
RMM:  19    -0.413170888229E+03    0.99335E-06   -0.36215E-08   845   0.548E-04
   19 T=    62. E= -.41286682E+03 F= -.41317089E+03 E0= -.41314881E+03  EK= 0.30406E+00 SP= 0.00E+00 SK= 0.00E+00
       N       E                     dE             d eps       ncg     rms          rms(c)
RMM:   1    -0.413170974087E+03   -0.84865E-04   -0.91342E+00  4294   0.712E-01    0.899E-01
RMM:   2    -0.413174670118E+03   -0.36960E-02   -0.11162E-01  4241   0.885E-02    0.646E-01
RMM:   3    -0.413172105629E+03    0.25645E-02   -0.15792E-02  4961   0.504E-02    0.138E-01
RMM:   4    -0.413207377446E+03   -0.35272E-01   -0.39038E-02  5123   0.164E-01    0.783E-01
RMM:   5    -0.413171112162E+03    0.36265E-01   -0.17420E-02  4791   0.130E-01    0.529E-02
RMM:   6    -0.413171321688E+03   -0.20953E-03   -0.29594E-03  5737   0.534E-02    0.358E-02
RMM:   7    -0.413171313696E+03    0.79917E-05   -0.49070E-04  5650   0.206E-02    0.226E-02
RMM:   8    -0.413171302849E+03    0.10847E-04   -0.74676E-05  5212   0.950E-03    0.106E-02
RMM:   9    -0.413171296955E+03    0.58941E-05   -0.14529E-05  4057   0.431E-03    0.749E-03
RMM:  10    -0.413171293408E+03    0.35473E-05   -0.21689E-06  2579   0.232E-03    0.463E-03
RMM:  11    -0.413171290964E+03    0.24435E-05   -0.11135E-06  2504   0.170E-03    0.266E-03
RMM:  12    -0.413171286360E+03    0.46039E-05   -0.16982E-06  2555   0.201E-03    0.112E-03
RMM:  13    -0.413171283692E+03    0.26681E-05   -0.64332E-07  2393   0.138E-03    0.928E-04
RMM:  14    -0.413171283919E+03   -0.22693E-06   -0.26222E-07  1973   0.901E-04
   20 T=    62. E= -.41286658E+03 F= -.41317128E+03 E0= -.41314925E+03  EK= 0.30470E+00 SP= 0.00E+00 SK= 0.00E+00
       N       E                     dE             d eps       ncg     rms          rms(c)
RMM:   1    -0.413171101337E+03    0.18236E-03   -0.91860E+00  4293   0.705E-01    0.890E-01
RMM:   2    -0.413176325362E+03   -0.52240E-02   -0.11356E-01  4249   0.897E-02    0.655E-01
RMM:   3    -0.413172888332E+03    0.34370E-02   -0.16519E-02  4884   0.491E-02    0.109E-01
RMM:   4    -0.413201125104E+03   -0.28237E-01   -0.30107E-02  5126   0.144E-01    0.702E-01
RMM:   5    -0.413172228425E+03    0.28897E-01   -0.14054E-02  4794   0.116E-01    0.484E-02
RMM:   6    -0.413172407357E+03   -0.17893E-03   -0.24620E-03  5806   0.474E-02    0.315E-02
RMM:   7    -0.413172412538E+03   -0.51806E-05   -0.37642E-04  5653   0.187E-02    0.199E-02
RMM:   8    -0.413172404283E+03    0.82546E-05   -0.68911E-05  5029   0.895E-03    0.103E-02
RMM:   9    -0.413172400417E+03    0.38664E-05   -0.13252E-05  4008   0.419E-03    0.766E-03
RMM:  10    -0.413172399558E+03    0.85868E-06   -0.18977E-06  2558   0.225E-03
   21 T=    62. E= -.41286674E+03 F= -.41317240E+03 E0= -.41315041E+03  EK= 0.30566E+00 SP= 0.00E+00 SK= 0.00E+00
       N       E                     dE             d eps       ncg     rms          rms(c)
RMM:   1    -0.413172912872E+03   -0.51246E-03   -0.92268E+00  4300   0.718E-01    0.908E-01
RMM:   2    -0.413177431971E+03   -0.45191E-02   -0.11431E-01  4332   0.934E-02    0.657E-01
RMM:   3    -0.413179252232E+03   -0.18203E-02   -0.20021E-02  5119   0.831E-02    0.327E-01
RMM:   4    -0.413199856398E+03   -0.20604E-01   -0.42093E-02  5084   0.174E-01    0.668E-01
RMM:   5    -0.413173480231E+03    0.26376E-01   -0.10153E-02  4683   0.109E-01    0.587E-02
RMM:   6    -0.413173525721E+03   -0.45490E-04   -0.20266E-03  5500   0.441E-02    0.321E-02
RMM:   7    -0.413173534465E+03   -0.87443E-05   -0.36015E-04  5905   0.174E-02    0.197E-02
RMM:   8    -0.413173527088E+03    0.73774E-05   -0.65476E-05  5137   0.922E-03    0.813E-03
RMM:   9    -0.413173520767E+03    0.63214E-05   -0.85236E-06  3399   0.369E-03    0.421E-03
RMM:  10    -0.413173518346E+03    0.24202E-05   -0.19539E-06  2571   0.215E-03    0.273E-03
RMM:  11    -0.413173514748E+03    0.35980E-05   -0.11336E-06  2494   0.173E-03    0.146E-03
RMM:  12    -0.413173511145E+03    0.36032E-05   -0.68430E-07  2449   0.137E-03    0.527E-04
RMM:  13    -0.413173509175E+03    0.19706E-05   -0.33791E-07  2093   0.986E-04    0.316E-04
RMM:  14    -0.413173507516E+03    0.16586E-05   -0.18813E-07  1605   0.775E-04    0.219E-04
RMM:  15    -0.413173504462E+03    0.30539E-05   -0.15487E-07  1395   0.721E-04    0.139E-04
RMM:  16    -0.413173501766E+03    0.26963E-05   -0.11395E-07  1279   0.668E-04    0.144E-04
RMM:  17    -0.413173499038E+03    0.27277E-05   -0.93415E-08  1207   0.635E-04    0.738E-05
RMM:  18    -0.413173496743E+03    0.22948E-05   -0.66451E-08  1063   0.597E-04    0.341E-05
RMM:  19    -0.413173495793E+03    0.95065E-06   -0.31831E-08   849   0.552E-04
   22 T=    62. E= -.41286685E+03 F= -.41317350E+03 E0= -.41315155E+03  EK= 0.30664E+00 SP= 0.00E+00 SK= 0.00E+00
       N       E                     dE             d eps       ncg     rms          rms(c)
RMM:   1    -0.413173306163E+03    0.19058E-03   -0.91961E+00  4291   0.710E-01    0.909E-01
RMM:   2    -0.413178044531E+03   -0.47384E-02   -0.11277E-01  4265   0.919E-02    0.650E-01
RMM:   3    -0.413174873251E+03    0.31713E-02   -0.15800E-02  4915   0.514E-02    0.131E-01
RMM:   4    -0.413208746952E+03   -0.33874E-01   -0.36825E-02  5126   0.159E-01    0.767E-01
RMM:   5    -0.413174030297E+03    0.34717E-01   -0.16793E-02  4790   0.128E-01    0.522E-02
RMM:   6    -0.413174227007E+03   -0.19671E-03   -0.29654E-03  5775   0.522E-02    0.358E-02
RMM:   7    -0.413174215555E+03    0.11452E-04   -0.46916E-04  5642   0.206E-02    0.226E-02
RMM:   8    -0.413174201341E+03    0.14214E-04   -0.75892E-05  5149   0.959E-03    0.111E-02
RMM:   9    -0.413174194238E+03    0.71032E-05   -0.14709E-05  4099   0.438E-03    0.790E-03
RMM:  10    -0.413174189445E+03    0.47930E-05   -0.22183E-06  2583   0.235E-03    0.485E-03
RMM:  11    -0.413174186142E+03    0.33028E-05   -0.11883E-06  2509   0.176E-03    0.285E-03
RMM:  12    -0.413174179756E+03    0.63863E-05   -0.18925E-06  2574   0.211E-03    0.119E-03
RMM:  13    -0.413174176621E+03    0.31344E-05   -0.66824E-07  2398   0.142E-03    0.907E-04
RMM:  14    -0.413174176640E+03   -0.18565E-07   -0.27656E-07  2038   0.923E-04
   23 T=    63. E= -.41286665E+03 F= -.41317418E+03 E0= -.41315228E+03  EK= 0.30752E+00 SP= 0.00E+00 SK= 0.00E+00
       N       E                     dE             d eps       ncg     rms          rms(c)
RMM:   1    -0.413174541859E+03   -0.36524E-03   -0.92159E+00  4295   0.720E-01    0.892E-01
RMM:   2    -0.413180027808E+03   -0.54859E-02   -0.11413E-01  4270   0.937E-02    0.655E-01
RMM:   3    -0.413176077930E+03    0.39499E-02   -0.16273E-02  4795   0.491E-02    0.973E-02
RMM:   4    -0.413199169368E+03   -0.23091E-01   -0.24049E-02  5125   0.129E-01    0.636E-01
RMM:   5    -0.413175618747E+03    0.23551E-01   -0.11612E-02  4804   0.105E-01    0.462E-02
RMM:   6    -0.413175741302E+03   -0.12256E-03   -0.20100E-03  5823   0.423E-02    0.288E-02
RMM:   7    -0.413175740406E+03    0.89621E-06   -0.25837E-04  5644   0.161E-02    0.155E-02
RMM:   8    -0.413175735436E+03    0.49697E-05   -0.54370E-05  4979   0.768E-03    0.100E-02
RMM:   9    -0.413175730671E+03    0.47653E-05   -0.11014E-05  3861   0.385E-03    0.737E-03
RMM:  10    -0.413175728983E+03    0.16874E-05   -0.17620E-06  2552   0.222E-03    0.442E-03
RMM:  11    -0.413175727282E+03    0.17015E-05   -0.14756E-06  2527   0.193E-03    0.231E-03
RMM:  12    -0.413175724643E+03    0.26387E-05   -0.13840E-06  2512   0.184E-03    0.969E-04
RMM:  13    -0.413175723708E+03    0.93495E-06   -0.45687E-07  2272   0.120E-03
   24 T=    63. E= -.41286695E+03 F= -.41317572E+03 E0= -.41315388E+03  EK= 0.30878E+00 SP= 0.00E+00 SK= 0.00E+00
       N       E                     dE             d eps       ncg     rms          rms(c)
RMM:   1    -0.413176886749E+03   -0.11621E-02   -0.92997E+00  4298   0.737E-01    0.907E-01
RMM:   2    -0.413180864909E+03   -0.39782E-02   -0.11566E-01  4272   0.955E-02    0.661E-01
RMM:   3    -0.413177007831E+03    0.38571E-02   -0.16291E-02  4754   0.507E-02    0.975E-02
RMM:   4    -0.413199596269E+03   -0.22588E-01   -0.23366E-02  5127   0.127E-01    0.629E-01
RMM:   5    -0.413176576787E+03    0.23019E-01   -0.11350E-02  4803   0.104E-01    0.462E-02
RMM:   6    -0.413176700555E+03   -0.12377E-03   -0.19880E-03  5825   0.420E-02    0.291E-02
RMM:   7    -0.413176698265E+03    0.22900E-05   -0.26174E-04  5667   0.162E-02    0.160E-02
RMM:   8    -0.413176691930E+03    0.63345E-05   -0.55493E-05  4977   0.780E-03    0.101E-02
RMM:   9    -0.413176686548E+03    0.53823E-05   -0.10924E-05  3855   0.388E-03    0.744E-03
RMM:  10    -0.413176683853E+03    0.26954E-05   -0.17692E-06  2555   0.222E-03    0.444E-03
RMM:  11    -0.413176681143E+03    0.27091E-05   -0.14334E-06  2516   0.193E-03    0.233E-03
RMM:  12    -0.413176677284E+03    0.38598E-05   -0.13666E-06  2513   0.183E-03    0.949E-04
RMM:  13    -0.413176675834E+03    0.14498E-05   -0.45845E-07  2278   0.120E-03    0.609E-04
RMM:  14    -0.413176675363E+03    0.47029E-06   -0.21286E-07  1786   0.823E-04
   25 T=    63. E= -.41286669E+03 F= -.41317668E+03 E0= -.41315488E+03  EK= 0.30999E+00 SP= 0.00E+00 SK= 0.00E+00
       N       E                     dE             d eps       ncg     rms          rms(c)
RMM:   1    -0.413177187085E+03   -0.51125E-03   -0.92884E+00  4294   0.725E-01    0.918E-01
RMM:   2    -0.413181720704E+03   -0.45336E-02   -0.11432E-01  4270   0.955E-02    0.655E-01
RMM:   3    -0.413178403792E+03    0.33169E-02   -0.15850E-02  4796   0.506E-02    0.110E-01
RMM:   4    -0.413204389567E+03   -0.25986E-01   -0.27130E-02  5133   0.137E-01    0.673E-01
RMM:   5    -0.413177894584E+03    0.26495E-01   -0.13113E-02  4800   0.112E-01    0.489E-02
RMM:   6    -0.413178039473E+03   -0.14489E-03   -0.23066E-03  5818   0.459E-02    0.333E-02
RMM:   7    -0.413178029868E+03    0.96057E-05   -0.37481E-04  5601   0.191E-02    0.202E-02
RMM:   8    -0.413178016205E+03    0.13663E-04   -0.64914E-05  5014   0.895E-03    0.106E-02
RMM:   9    -0.413178009191E+03    0.70131E-05   -0.12483E-05  3898   0.409E-03    0.778E-03
RMM:  10    -0.413178003459E+03    0.57320E-05   -0.19762E-06  2556   0.233E-03    0.464E-03
RMM:  11    -0.413177998375E+03    0.50848E-05   -0.13477E-06  2521   0.188E-03    0.247E-03
RMM:  12    -0.413177990890E+03    0.74849E-05   -0.15258E-06  2525   0.195E-03    0.103E-03
RMM:  13    -0.413177987490E+03    0.33998E-05   -0.53146E-07  2346   0.129E-03    0.681E-04
RMM:  14    -0.413177987109E+03    0.38135E-06   -0.24702E-07  1899   0.865E-04
   26 T=    63. E= -.41286661E+03 F= -.41317799E+03 E0= -.41315624E+03  EK= 0.31138E+00 SP= 0.00E+00 SK= 0.00E+00
       N       E                     dE             d eps       ncg     rms          rms(c)
RMM:   1    -0.413179429707E+03   -0.14422E-02   -0.92809E+00  4291   0.751E-01    0.897E-01
RMM:   2    -0.413183665595E+03   -0.42359E-02   -0.11733E-01  4270   0.998E-02    0.657E-01
RMM:   3    -0.413180098904E+03    0.35667E-02   -0.16032E-02  4736   0.507E-02    0.938E-02
RMM:   4    -0.413200231480E+03   -0.20133E-01   -0.20754E-02  5136   0.120E-01    0.595E-01
RMM:   5    -0.413179749668E+03    0.20482E-01   -0.10217E-02  4804   0.982E-02    0.455E-02
RMM:   6    -0.413179852774E+03   -0.10311E-03   -0.17962E-03  5827   0.399E-02    0.286E-02
RMM:   7    -0.413179850290E+03    0.24846E-05   -0.23921E-04  5603   0.158E-02    0.152E-02
RMM:   8    -0.413179844856E+03    0.54336E-05   -0.48219E-05  4938   0.735E-03    0.973E-03
RMM:   9    -0.413179839905E+03    0.49514E-05   -0.96489E-06  3688   0.365E-03    0.721E-03
RMM:  10    -0.413179837146E+03    0.27585E-05   -0.16488E-06  2531   0.219E-03    0.426E-03
RMM:  11    -0.413179834002E+03    0.31442E-05   -0.14806E-06  2525   0.195E-03    0.216E-03
RMM:  12    -0.413179829987E+03    0.40156E-05   -0.12188E-06  2495   0.175E-03    0.905E-04
RMM:  13    -0.413179828681E+03    0.13053E-05   -0.42265E-07  2242   0.114E-03    0.594E-04
RMM:  14    -0.413179828109E+03    0.57230E-06   -0.19780E-07  1725   0.799E-04
   27 T=    64. E= -.41286689E+03 F= -.41317983E+03 E0= -.41315813E+03  EK= 0.31294E+00 SP= 0.00E+00 SK= 0.00E+00
       N       E                     dE             d eps       ncg     rms          rms(c)
RMM:   1    -0.413184785903E+03   -0.49572E-02   -0.94270E+00  4291   0.775E-01    0.908E-01
RMM:   2    -0.413184889254E+03   -0.10335E-03   -0.11656E-01  4269   0.100E-01    0.666E-01
RMM:   3    -0.413181227521E+03    0.36617E-02   -0.17104E-02  4727   0.535E-02    0.937E-02
RMM:   4    -0.413202597866E+03   -0.21370E-01   -0.22047E-02  5133   0.124E-01    0.613E-01
RMM:   5    -0.413180814476E+03    0.21783E-01   -0.10833E-02  4805   0.101E-01    0.460E-02
RMM:   6    -0.413180931471E+03   -0.11699E-03   -0.19055E-03  5829   0.414E-02    0.299E-02
RMM:   7    -0.413180931561E+03   -0.89527E-07   -0.28847E-04  5619   0.171E-02    0.174E-02
RMM:   8    -0.413180924016E+03    0.75443E-05   -0.55328E-05  4955   0.811E-03    0.995E-03
RMM:   9    -0.413180919184E+03    0.48325E-05   -0.10548E-05  3736   0.384E-03    0.730E-03
RMM:  10    -0.413180916896E+03    0.22875E-05   -0.17414E-06  2536   0.224E-03    0.430E-03
RMM:  11    -0.413180914513E+03    0.23835E-05   -0.14340E-06  2526   0.193E-03    0.216E-03
RMM:  12    -0.413180911461E+03    0.30518E-05   -0.12736E-06  2501   0.178E-03    0.952E-04
RMM:  13    -0.413180910272E+03    0.11894E-05   -0.45054E-07  2283   0.118E-03    0.601E-04
RMM:  14    -0.413180909721E+03    0.55016E-06   -0.21167E-07  1773   0.815E-04
   28 T=    64. E= -.41286658E+03 F= -.41318091E+03 E0= -.41315926E+03  EK= 0.31433E+00 SP= 0.00E+00 SK= 0.00E+00
       N       E                     dE             d eps       ncg     rms          rms(c)
RMM:   1    -0.413184044030E+03   -0.31338E-02   -0.94117E+00  4293   0.760E-01    0.926E-01
RMM:   2    -0.413186796323E+03   -0.27523E-02   -0.11687E-01  4270   0.103E-01    0.662E-01
RMM:   3    -0.413183084509E+03    0.37118E-02   -0.16163E-02  4600   0.494E-02    0.903E-02
RMM:   4    -0.413195976070E+03   -0.12892E-01   -0.13132E-02  5146   0.957E-02    0.478E-01
RMM:   5    -0.413182913431E+03    0.13063E-01   -0.66450E-03  4828   0.788E-02    0.439E-02
RMM:   6    -0.413182966818E+03   -0.53387E-04   -0.12189E-03  5827   0.325E-02    0.263E-02
RMM:   7    -0.413182962115E+03    0.47028E-05   -0.16924E-04  5489   0.139E-02    0.137E-02
RMM:   8    -0.413182951750E+03    0.10365E-04   -0.26686E-05  4595   0.565E-03    0.815E-03
RMM:   9    -0.413182949278E+03    0.24724E-05   -0.60234E-06  3135   0.299E-03    0.639E-03
RMM:  10    -0.413182943693E+03    0.55847E-05   -0.13957E-06  2508   0.209E-03    0.348E-03
RMM:  11    -0.413182937854E+03    0.58391E-05   -0.11919E-06  2506   0.177E-03    0.181E-03
RMM:  12    -0.413182931810E+03    0.60440E-05   -0.82834E-07  2447   0.149E-03    0.952E-04
RMM:  13    -0.413182929668E+03    0.21423E-05   -0.33690E-07  2148   0.101E-03    0.484E-04
RMM:  14    -0.413182928145E+03    0.15233E-05   -0.16159E-07  1534   0.744E-04    0.353E-04
RMM:  15    -0.413182923930E+03    0.42142E-05   -0.15397E-07  1760   0.750E-04    0.235E-04
RMM:  16    -0.413182920408E+03    0.35222E-05   -0.82878E-08  1241   0.634E-04    0.230E-04
RMM:  17    -0.413182917898E+03    0.25106E-05   -0.43323E-08   886   0.562E-04    0.148E-04
RMM:  18    -0.413182913755E+03    0.41424E-05   -0.56733E-08   993   0.594E-04    0.420E-05
RMM:  19    -0.413182912781E+03    0.97430E-06   -0.22733E-08   785   0.555E-04
   29 T=    64. E= -.41286678E+03 F= -.41318291E+03 E0= -.41316131E+03  EK= 0.31614E+00 SP= 0.00E+00 SK= 0.00E+00
       N       E                     dE             d eps       ncg     rms          rms(c)
RMM:   1    -0.413191627639E+03   -0.87139E-02   -0.94402E+00  4291   0.846E-01    0.906E-01
RMM:   2    -0.413189105473E+03    0.25222E-02   -0.12421E-01  4266   0.116E-01    0.660E-01
RMM:   3    -0.413184927507E+03    0.41780E-02   -0.15768E-02  4540   0.549E-02    0.886E-02
RMM:   4    -0.413196608923E+03   -0.11681E-01   -0.11913E-02  5141   0.914E-02    0.455E-01
RMM:   5    -0.413184793870E+03    0.11815E-01   -0.60373E-03  4826   0.751E-02    0.427E-02
RMM:   6    -0.413184839783E+03   -0.45912E-04   -0.11011E-03  5833   0.310E-02    0.256E-02
RMM:   7    -0.413184842811E+03   -0.30284E-05   -0.20336E-04  5460   0.148E-02    0.159E-02
RMM:   8    -0.413184828297E+03    0.14514E-04   -0.30454E-05  4676   0.639E-03    0.800E-03
RMM:   9    -0.413184826561E+03    0.17359E-05   -0.59528E-06  3092   0.303E-03    0.596E-03
RMM:  10    -0.413184823224E+03    0.33372E-05   -0.14927E-06  2501   0.208E-03    0.328E-03
RMM:  11    -0.413184820014E+03    0.32100E-05   -0.96983E-07  2482   0.166E-03    0.171E-03
RMM:  12    -0.413184816517E+03    0.34969E-05   -0.73194E-07  2434   0.138E-03    0.930E-04
RMM:  13    -0.413184814968E+03    0.15492E-05   -0.30230E-07  2066   0.962E-04    0.402E-04
RMM:  14    -0.413184813664E+03    0.13035E-05   -0.15512E-07  1485   0.730E-04    0.262E-04
RMM:  15    -0.413184811067E+03    0.25972E-05   -0.11451E-07  1403   0.687E-04    0.123E-04
RMM:  16    -0.413184808745E+03    0.23221E-05   -0.67431E-08  1045   0.625E-04    0.112E-04
RMM:  17    -0.413184807160E+03    0.15848E-05   -0.39329E-08   864   0.583E-04    0.720E-05
RMM:  18    -0.413184803918E+03    0.32425E-05   -0.57631E-08  1033   0.613E-04    0.281E-05
RMM:  19    -0.413184803159E+03    0.75921E-06   -0.21336E-08   755   0.555E-04
   30 T=    65. E= -.41286678E+03 F= -.41318480E+03 E0= -.41316326E+03  EK= 0.31802E+00 SP= 0.00E+00 SK= 0.00E+00
       N       E                     dE             d eps       ncg     rms          rms(c)
RMM:   1    -0.413185721432E+03   -0.91751E-03   -0.94879E+00  4290   0.774E-01    0.911E-01
RMM:   2    -0.413191280868E+03   -0.55594E-02   -0.11941E-01  4267   0.113E-01    0.671E-01
RMM:   3    -0.413186667175E+03    0.46137E-02   -0.17514E-02  4554   0.622E-02    0.808E-02
RMM:   4    -0.413200950972E+03   -0.14284E-01   -0.14430E-02  5137   0.101E-01    0.503E-01
RMM:   5    -0.413186430169E+03    0.14521E-01   -0.73502E-03  4820   0.830E-02    0.434E-02
RMM:   6    -0.413186495239E+03   -0.65070E-04   -0.12995E-03  5827   0.339E-02    0.262E-02
RMM:   7    -0.413186503629E+03   -0.83896E-05   -0.21121E-04  5500   0.150E-02    0.155E-02
RMM:   8    -0.413186491390E+03    0.12238E-04   -0.35295E-05  4775   0.659E-03    0.831E-03
RMM:   9    -0.413186490610E+03    0.77988E-06   -0.71990E-06  3312   0.327E-03
   31 T=    65. E= -.41286653E+03 F= -.41318649E+03 E0= -.41316499E+03  EK= 0.31996E+00 SP= 0.00E+00 SK= 0.00E+00
       N       E                     dE             d eps       ncg     rms          rms(c)
RMM:   1    -0.413189512622E+03   -0.30212E-02   -0.95328E+00  4295   0.808E-01    0.933E-01
RMM:   2    -0.413193466811E+03   -0.39542E-02   -0.12066E-01  4296   0.121E-01    0.670E-01
RMM:   3    -0.413192717626E+03    0.74919E-03   -0.19090E-02  5020   0.868E-02    0.266E-01
RMM:   4    -0.413224508153E+03   -0.31791E-01   -0.46535E-02  5087   0.182E-01    0.773E-01
RMM:   5    -0.413188957455E+03    0.35551E-01   -0.15182E-02  4744   0.127E-01    0.578E-02
RMM:   6    -0.413189107689E+03   -0.15023E-03   -0.29343E-03  5731   0.523E-02    0.359E-02
RMM:   7    -0.413189108331E+03   -0.64137E-06   -0.47618E-04  5761   0.200E-02    0.233E-02
RMM:   8    -0.413189099162E+03    0.91687E-05   -0.87333E-05  5165   0.104E-02    0.107E-02
RMM:   9    -0.413189089390E+03    0.97717E-05   -0.12970E-05  3910   0.448E-03    0.570E-03
RMM:  10    -0.413189083728E+03    0.56621E-05   -0.27879E-06  2658   0.247E-03    0.373E-03
RMM:  11    -0.413189078365E+03    0.53627E-05   -0.12154E-06  2503   0.181E-03    0.196E-03
RMM:  12    -0.413189070391E+03    0.79745E-05   -0.10205E-06  2477   0.165E-03    0.675E-04
RMM:  13    -0.413189066690E+03    0.37007E-05   -0.50255E-07  2329   0.119E-03    0.437E-04
RMM:  14    -0.413189064971E+03    0.17197E-05   -0.25940E-07  1912   0.872E-04    0.338E-04
RMM:  15    -0.413189061194E+03    0.37768E-05   -0.15588E-07  1492   0.735E-04    0.158E-04
RMM:  16    -0.413189056357E+03    0.48364E-05   -0.12054E-07  1352   0.689E-04    0.203E-04
RMM:  17    -0.413189052516E+03    0.38412E-05   -0.81305E-08  1103   0.629E-04    0.152E-04
RMM:  18    -0.413189049637E+03    0.28791E-05   -0.63503E-08  1093   0.610E-04    0.680E-05
RMM:  19    -0.413189046722E+03    0.29148E-05   -0.57506E-08  1147   0.606E-04    0.349E-05
RMM:  20    -0.413189046331E+03    0.39144E-06   -0.23511E-08   779   0.536E-04
   32 T=    66. E= -.41286676E+03 F= -.41318905E+03 E0= -.41316760E+03  EK= 0.32229E+00 SP= 0.00E+00 SK= 0.00E+00
       N       E                     dE             d eps       ncg     rms          rms(c)
RMM:   1    -0.413191182507E+03   -0.21358E-02   -0.95088E+00  4298   0.823E-01    0.920E-01
RMM:   2    -0.413195141934E+03   -0.39594E-02   -0.12161E-01  4274   0.120E-01    0.666E-01
RMM:   3    -0.413191040563E+03    0.41014E-02   -0.16530E-02  4357   0.628E-02    0.773E-02
RMM:   4    -0.413194123054E+03   -0.30825E-02   -0.33998E-03  5164   0.489E-02    0.236E-01
RMM:   5    -0.413191035168E+03    0.30879E-02   -0.16443E-03  4830   0.395E-02    0.413E-02
RMM:   6    -0.413191067766E+03   -0.32597E-04   -0.58503E-04  5595   0.233E-02    0.307E-02
RMM:   7    -0.413191031830E+03    0.35935E-04   -0.23803E-04  5092   0.159E-02    0.173E-02
RMM:   8    -0.413191023406E+03    0.84241E-05   -0.24999E-05  4557   0.569E-03    0.673E-03
RMM:   9    -0.413191021479E+03    0.19274E-05   -0.27354E-06  2603   0.224E-03    0.411E-03
RMM:  10    -0.413191016923E+03    0.45558E-05   -0.96438E-07  2479   0.161E-03    0.229E-03
RMM:  11    -0.413191012363E+03    0.45597E-05   -0.69028E-07  2387   0.127E-03    0.908E-04
RMM:  12    -0.413191008658E+03    0.37059E-05   -0.33766E-07  2036   0.958E-04    0.381E-04
RMM:  13    -0.413191005524E+03    0.31332E-05   -0.18812E-07  1591   0.773E-04    0.242E-04
RMM:  14    -0.413191002646E+03    0.28786E-05   -0.96223E-08  1107   0.655E-04    0.166E-04
RMM:  15    -0.413190998481E+03    0.41648E-05   -0.82016E-08  1101   0.645E-04    0.769E-05
RMM:  16    -0.413190995715E+03    0.27655E-05   -0.59122E-08  1067   0.615E-04    0.832E-05
RMM:  17    -0.413190993225E+03    0.24907E-05   -0.41642E-08   942   0.583E-04    0.407E-05
RMM:  18    -0.413190990971E+03    0.22539E-05   -0.35885E-08   943   0.570E-04    0.307E-05
RMM:  19    -0.413190990440E+03    0.53086E-06   -0.15299E-08   698   0.526E-04
   33 T=    66. E= -.41286652E+03 F= -.41319099E+03 E0= -.41316959E+03  EK= 0.32447E+00 SP= 0.00E+00 SK= 0.00E+00
       N       E                     dE             d eps       ncg     rms          rms(c)
RMM:   1    -0.413195682397E+03   -0.46914E-02   -0.96446E+00  4300   0.839E-01    0.917E-01
RMM:   2    -0.413197668155E+03   -0.19858E-02   -0.12367E-01  4275   0.127E-01    0.677E-01
RMM:   3    -0.413193424245E+03    0.42439E-02   -0.17818E-02  4335   0.691E-02    0.646E-02
RMM:   4    -0.413196365015E+03   -0.29408E-02   -0.31739E-03  5155   0.476E-02    0.232E-01
RMM:   5    -0.413193402220E+03    0.29628E-02   -0.15719E-03  4830   0.386E-02    0.405E-02
RMM:   6    -0.413193435287E+03   -0.33066E-04   -0.56108E-04  5611   0.225E-02    0.291E-02
RMM:   7    -0.413193410300E+03    0.24986E-04   -0.22951E-04  5101   0.156E-02    0.185E-02
RMM:   8    -0.413193401602E+03    0.86986E-05   -0.23167E-05  4288   0.547E-03    0.668E-03
RMM:   9    -0.413193400754E+03    0.84734E-06   -0.26020E-06  2580   0.220E-03
   34 T=    67. E= -.41286655E+03 F= -.41319340E+03 E0= -.41317205E+03  EK= 0.32685E+00 SP= 0.00E+00 SK= 0.00E+00
       N       E                     dE             d eps       ncg     rms          rms(c)
RMM:   1    -0.413204363687E+03   -0.10962E-01   -0.97605E+00  4302   0.925E-01    0.938E-01
RMM:   2    -0.413200105485E+03    0.42582E-02   -0.13461E-01  4276   0.135E-01    0.680E-01
RMM:   3    -0.413196307251E+03    0.37982E-02   -0.16472E-02  4558   0.708E-02    0.105E-01
RMM:   4    -0.413215204416E+03   -0.18897E-01   -0.19252E-02  5148   0.116E-01    0.576E-01
RMM:   5    -0.413196057907E+03    0.19147E-01   -0.96314E-03  4819   0.953E-02    0.469E-02
RMM:   6    -0.413196146653E+03   -0.88746E-04   -0.17413E-03  5837   0.392E-02    0.317E-02
RMM:   7    -0.413196152950E+03   -0.62972E-05   -0.35369E-04  5482   0.185E-02    0.204E-02
RMM:   8    -0.413196131197E+03    0.21753E-04   -0.49529E-05  4980   0.818E-03    0.929E-03
RMM:   9    -0.413196127261E+03    0.39363E-05   -0.91778E-06  3493   0.364E-03    0.663E-03
RMM:  10    -0.413196121013E+03    0.62483E-05   -0.18330E-06  2550   0.228E-03    0.377E-03
RMM:  11    -0.413196115485E+03    0.55276E-05   -0.11458E-06  2502   0.176E-03    0.197E-03
RMM:  12    -0.413196108331E+03    0.71542E-05   -0.10184E-06  2482   0.162E-03    0.946E-04
RMM:  13    -0.413196105414E+03    0.29170E-05   -0.39902E-07  2215   0.110E-03    0.476E-04
RMM:  14    -0.413196103840E+03    0.15735E-05   -0.19670E-07  1672   0.787E-04    0.327E-04
RMM:  15    -0.413196098784E+03    0.50565E-05   -0.14469E-07  1520   0.733E-04    0.172E-04
RMM:  16    -0.413196095431E+03    0.33527E-05   -0.84778E-08  1185   0.644E-04    0.150E-04
RMM:  17    -0.413196091458E+03    0.39728E-05   -0.67151E-08  1097   0.619E-04    0.128E-04
RMM:  18    -0.413196086663E+03    0.47956E-05   -0.67362E-08  1138   0.617E-04    0.464E-05
RMM:  19    -0.413196085608E+03    0.10547E-05   -0.26720E-08   807   0.552E-04    0.264E-05
RMM:  20    -0.413196084950E+03    0.65826E-06   -0.17678E-08   756   0.543E-04
   35 T=    67. E= -.41286673E+03 F= -.41319608E+03 E0= -.41317478E+03  EK= 0.32935E+00 SP= 0.00E+00 SK= 0.00E+00
       N       E                     dE             d eps       ncg     rms          rms(c)
RMM:   1    -0.413200308645E+03   -0.42230E-02   -0.96926E+00  4300   0.875E-01    0.936E-01
RMM:   2    -0.413202064043E+03   -0.17554E-02   -0.12642E-01  4253   0.131E-01    0.674E-01
RMM:   3    -0.413198305075E+03    0.37590E-02   -0.16809E-02  4426   0.686E-02    0.868E-02
RMM:   4    -0.413204442889E+03   -0.61378E-02   -0.63899E-03  5172   0.675E-02    0.333E-01
RMM:   5    -0.413198286799E+03    0.61561E-02   -0.32078E-03  4817   0.554E-02    0.433E-02
RMM:   6    -0.413198311357E+03   -0.24558E-04   -0.81335E-04  5673   0.280E-02    0.318E-02
RMM:   7    -0.413198289816E+03    0.21540E-04   -0.29292E-04  5192   0.174E-02    0.187E-02
RMM:   8    -0.413198277015E+03    0.12801E-04   -0.28504E-05  4751   0.636E-03    0.814E-03
RMM:   9    -0.413198274493E+03    0.25221E-05   -0.41535E-06  2773   0.255E-03    0.476E-03
RMM:  10    -0.413198269071E+03    0.54219E-05   -0.13746E-06  2496   0.196E-03    0.252E-03
RMM:  11    -0.413198263992E+03    0.50792E-05   -0.81312E-07  2443   0.147E-03    0.123E-03
RMM:  12    -0.413198259072E+03    0.49195E-05   -0.46831E-07  2239   0.114E-03    0.556E-04
RMM:  13    -0.413198255693E+03    0.33797E-05   -0.24989E-07  1811   0.860E-04    0.282E-04
RMM:  14    -0.413198252390E+03    0.33026E-05   -0.12596E-07  1267   0.696E-04    0.191E-04
RMM:  15    -0.413198247827E+03    0.45633E-05   -0.79137E-08  1027   0.644E-04    0.984E-05
RMM:  16    -0.413198244683E+03    0.31438E-05   -0.55774E-08   950   0.619E-04    0.653E-05
RMM:  17    -0.413198241889E+03    0.27937E-05   -0.45447E-08   943   0.600E-04    0.447E-05
RMM:  18    -0.413198238213E+03    0.36764E-05   -0.45347E-08  1037   0.599E-04    0.288E-05
RMM:  19    -0.413198237564E+03    0.64903E-06   -0.16634E-08   655   0.526E-04
   36 T=    68. E= -.41286655E+03 F= -.41319824E+03 E0= -.41317698E+03  EK= 0.33168E+00 SP= 0.00E+00 SK= 0.00E+00
       N       E                     dE             d eps       ncg     rms          rms(c)
RMM:   1    -0.413205418116E+03   -0.71799E-02   -0.97893E+00  4306   0.922E-01    0.924E-01
RMM:   2    -0.413205761810E+03   -0.34369E-03   -0.13111E-01  4252   0.134E-01    0.682E-01
RMM:   3    -0.413201285198E+03    0.44766E-02   -0.17376E-02  4499   0.663E-02    0.835E-02
RMM:   4    -0.413212953886E+03   -0.11669E-01   -0.11838E-02  5157   0.915E-02    0.457E-01
RMM:   5    -0.413201171582E+03    0.11782E-01   -0.60043E-03  4824   0.757E-02    0.445E-02
RMM:   6    -0.413201190912E+03   -0.19330E-04   -0.12191E-03  5779   0.332E-02    0.304E-02
RMM:   7    -0.413201198731E+03   -0.78190E-05   -0.32754E-04  5375   0.178E-02    0.201E-02
RMM:   8    -0.413201181585E+03    0.17146E-04   -0.36934E-05  4849   0.731E-03    0.901E-03
RMM:   9    -0.413201180354E+03    0.12306E-05   -0.65950E-06  3094   0.315E-03    0.572E-03
RMM:  10    -0.413201177881E+03    0.24730E-05   -0.16627E-06  2525   0.220E-03    0.305E-03
RMM:  11    -0.413201175114E+03    0.27675E-05   -0.11869E-06  2498   0.176E-03    0.153E-03
RMM:  12    -0.413201172126E+03    0.29873E-05   -0.72372E-07  2428   0.140E-03    0.786E-04
RMM:  13    -0.413201170490E+03    0.16364E-05   -0.33546E-07  2044   0.978E-04    0.384E-04
RMM:  14    -0.413201168862E+03    0.16283E-05   -0.17296E-07  1518   0.751E-04    0.235E-04
RMM:  15    -0.413201165995E+03    0.28668E-05   -0.11047E-07  1267   0.679E-04    0.113E-04
RMM:  16    -0.413201163769E+03    0.22260E-05   -0.67608E-08  1016   0.630E-04    0.793E-05
RMM:  17    -0.413201161928E+03    0.18414E-05   -0.45811E-08   935   0.600E-04    0.512E-05
RMM:  18    -0.413201158813E+03    0.31148E-05   -0.49739E-08  1024   0.607E-04    0.268E-05
RMM:  19    -0.413201157914E+03    0.89921E-06   -0.21317E-08   774   0.559E-04
   37 T=    68. E= -.41286682E+03 F= -.41320116E+03 E0= -.41317994E+03  EK= 0.33434E+00 SP= 0.00E+00 SK= 0.00E+00
       N       E                     dE             d eps       ncg     rms          rms(c)
RMM:   1    -0.413211245523E+03   -0.10087E-01   -0.99149E+00  4307   0.969E-01    0.942E-01
RMM:   2    -0.413208516930E+03    0.27286E-02   -0.13816E-01  4251   0.131E-01    0.689E-01
RMM:   3    -0.413204183916E+03    0.43330E-02   -0.16968E-02  4765   0.627E-02    0.123E-01
RMM:   4    -0.413236506920E+03   -0.32323E-01   -0.33536E-02  5132   0.153E-01    0.750E-01
RMM:   5    -0.413203671244E+03    0.32836E-01   -0.16479E-02  4801   0.125E-01    0.519E-02
RMM:   6    -0.413203732180E+03   -0.60935E-04   -0.27422E-03  5837   0.495E-02    0.333E-02
RMM:   7    -0.413203745223E+03   -0.13043E-04   -0.35734E-04  5625   0.182E-02    0.175E-02
RMM:   8    -0.413203737078E+03    0.81445E-05   -0.51594E-05  4894   0.760E-03    0.985E-03
RMM:   9    -0.413203736993E+03    0.85671E-07   -0.19283E-05  4454   0.467E-03    0.800E-03
RMM:  10    -0.413203731514E+03    0.54789E-05   -0.29098E-06  2693   0.271E-03    0.442E-03
RMM:  11    -0.413203728946E+03    0.25683E-05   -0.14295E-06  2501   0.192E-03    0.275E-03
RMM:  12    -0.413203722320E+03    0.66255E-05   -0.20525E-06  2571   0.228E-03    0.135E-03
RMM:  13    -0.413203719406E+03    0.29141E-05   -0.67848E-07  2410   0.148E-03    0.845E-04
RMM:  14    -0.413203719061E+03    0.34481E-06   -0.26753E-07  2051   0.930E-04
   38 T=    69. E= -.41286675E+03 F= -.41320372E+03 E0= -.41318254E+03  EK= 0.33697E+00 SP= 0.00E+00 SK= 0.00E+00
       N       E                     dE             d eps       ncg     rms          rms(c)
RMM:   1    -0.413209545237E+03   -0.58258E-02   -0.98862E+00  4306   0.971E-01    0.953E-01
RMM:   2    -0.413211006937E+03   -0.14617E-02   -0.13181E-01  4251   0.124E-01    0.683E-01
RMM:   3    -0.413206886189E+03    0.41207E-02   -0.17135E-02  4872   0.594E-02    0.136E-01
RMM:   4    -0.413243263187E+03   -0.36377E-01   -0.38487E-02  5136   0.164E-01    0.795E-01
RMM:   5    -0.413206214510E+03    0.37049E-01   -0.18442E-02  4798   0.133E-01    0.544E-02
RMM:   6    -0.413206300214E+03   -0.85704E-04   -0.31072E-03  5834   0.524E-02    0.350E-02
RMM:   7    -0.413206313551E+03   -0.13336E-04   -0.41453E-04  5675   0.192E-02    0.191E-02
RMM:   8    -0.413206301998E+03    0.11552E-04   -0.65376E-05  5041   0.846E-03    0.109E-02
RMM:   9    -0.413206299264E+03    0.27348E-05   -0.21723E-05  4577   0.504E-03    0.804E-03
RMM:  10    -0.413206291508E+03    0.77557E-05   -0.29532E-06  2675   0.274E-03    0.453E-03
RMM:  11    -0.413206287193E+03    0.43153E-05   -0.13453E-06  2497   0.190E-03    0.281E-03
RMM:  12    -0.413206276445E+03    0.10748E-04   -0.19205E-06  2545   0.223E-03    0.137E-03
RMM:  13    -0.413206271437E+03    0.50085E-05   -0.70983E-07  2423   0.149E-03    0.895E-04
RMM:  14    -0.413206270873E+03    0.56382E-06   -0.28069E-07  2089   0.953E-04
   39 T=    69. E= -.41286659E+03 F= -.41320627E+03 E0= -.41318513E+03  EK= 0.33968E+00 SP= 0.00E+00 SK= 0.00E+00
       N       E                     dE             d eps       ncg     rms          rms(c)
RMM:   1    -0.413220203566E+03   -0.13932E-01   -0.99937E+00  4309   0.106E+00    0.933E-01
RMM:   2    -0.413214583848E+03    0.56197E-02   -0.14548E-01  4251   0.129E-01    0.688E-01
RMM:   3    -0.413210326297E+03    0.42576E-02   -0.16682E-02  4947   0.627E-02    0.160E-01
RMM:   4    -0.413256027567E+03   -0.45701E-01   -0.49985E-02  5130   0.186E-01    0.888E-01
RMM:   5    -0.413209246729E+03    0.46781E-01   -0.22953E-02  4790   0.148E-01    0.577E-02
RMM:   6    -0.413209376921E+03   -0.13019E-03   -0.38436E-03  5829   0.580E-02    0.360E-02
RMM:   7    -0.413209390208E+03   -0.13287E-04   -0.45994E-04  5691   0.199E-02    0.192E-02
RMM:   8    -0.413209388161E+03    0.20467E-05   -0.73368E-05  5071   0.851E-03    0.112E-02
RMM:   9    -0.413209381706E+03    0.64555E-05   -0.23514E-05  4579   0.509E-03    0.785E-03
RMM:  10    -0.413209377725E+03    0.39811E-05   -0.45468E-06  2901   0.301E-03    0.464E-03
RMM:  11    -0.413209374385E+03    0.33400E-05   -0.17305E-06  2520   0.214E-03    0.285E-03
RMM:  12    -0.413209366472E+03    0.79131E-05   -0.19126E-06  2531   0.224E-03    0.111E-03
RMM:  13    -0.413209362353E+03    0.41191E-05   -0.73949E-07  2439   0.151E-03    0.901E-04
RMM:  14    -0.413209362210E+03    0.14246E-06   -0.30371E-07  2135   0.977E-04
   40 T=    70. E= -.41286680E+03 F= -.41320936E+03 E0= -.41318826E+03  EK= 0.34256E+00 SP= 0.00E+00 SK= 0.00E+00
       N       E                     dE             d eps       ncg     rms          rms(c)
RMM:   1    -0.413220392858E+03   -0.11031E-01   -0.10099E+01  4311   0.109E+00    0.948E-01
RMM:   2    -0.413216864267E+03    0.35286E-02   -0.13876E-01  4257   0.135E-01    0.698E-01
RMM:   3    -0.413212953139E+03    0.39111E-02   -0.18605E-02  4978   0.672E-02    0.177E-01
RMM:   4    -0.413260294309E+03   -0.47341E-01   -0.54006E-02  5137   0.194E-01    0.906E-01
RMM:   5    -0.413211398439E+03    0.48896E-01   -0.23519E-02  4791   0.151E-01    0.589E-02
RMM:   6    -0.413211543347E+03   -0.14491E-03   -0.40016E-03  5822   0.592E-02    0.364E-02
RMM:   7    -0.413211560989E+03   -0.17641E-04   -0.49084E-04  5744   0.205E-02    0.206E-02
RMM:   8    -0.413211562384E+03   -0.13947E-05   -0.10016E-04  5193   0.995E-03    0.132E-02
RMM:   9    -0.413211551955E+03    0.10429E-04   -0.25110E-05  4650   0.563E-03    0.763E-03
RMM:  10    -0.413211548143E+03    0.38116E-05   -0.41688E-06  2795   0.295E-03    0.458E-03
RMM:  11    -0.413211545198E+03    0.29451E-05   -0.15047E-06  2502   0.205E-03    0.279E-03
RMM:  12    -0.413211538449E+03    0.67487E-05   -0.17224E-06  2530   0.212E-03    0.112E-03
RMM:  13    -0.413211534150E+03    0.42997E-05   -0.73932E-07  2442   0.148E-03    0.780E-04
RMM:  14    -0.413211533565E+03    0.58483E-06   -0.30873E-07  2129   0.978E-04
   41 T=    70. E= -.41286642E+03 F= -.41321153E+03 E0= -.41319047E+03  EK= 0.34512E+00 SP= 0.00E+00 SK= 0.00E+00
       N       E                     dE             d eps       ncg     rms          rms(c)
RMM:   1    -0.413231195615E+03   -0.19661E-01   -0.10196E+01  4312   0.120E+00    0.968E-01
RMM:   2    -0.413219007220E+03    0.12188E-01   -0.14421E-01  4286   0.134E-01    0.694E-01
RMM:   3    -0.413216755112E+03    0.22521E-02   -0.18685E-02  5058   0.734E-02    0.238E-01
RMM:   4    -0.413260881040E+03   -0.44126E-01   -0.56416E-02  5109   0.199E-01    0.887E-01
RMM:   5    -0.413214069811E+03    0.46811E-01   -0.21532E-02  4766   0.148E-01    0.617E-02
RMM:   6    -0.413214185170E+03   -0.11536E-03   -0.37585E-03  5796   0.578E-02    0.377E-02
RMM:   7    -0.413214196512E+03   -0.11342E-04   -0.49493E-04  5727   0.209E-02    0.226E-02
RMM:   8    -0.413214194874E+03    0.16387E-05   -0.12928E-04  5239   0.115E-02    0.142E-02
RMM:   9    -0.413214179474E+03    0.15400E-04   -0.24123E-05  4585   0.596E-03    0.660E-03
RMM:  10    -0.413214173490E+03    0.59835E-05   -0.52155E-06  2988   0.298E-03    0.407E-03
RMM:  11    -0.413214168696E+03    0.47940E-05   -0.12970E-06  2495   0.197E-03    0.237E-03
RMM:  12    -0.413214159227E+03    0.94687E-05   -0.11874E-06  2486   0.184E-03    0.945E-04
RMM:  13    -0.413214153097E+03    0.61302E-05   -0.55176E-07  2385   0.130E-03    0.563E-04
RMM:  14    -0.413214151942E+03    0.11549E-05   -0.26625E-07  2015   0.906E-04    0.387E-04
RMM:  15    -0.413214149400E+03    0.25420E-05   -0.13767E-07  1471   0.715E-04    0.232E-04
RMM:  16    -0.413214141913E+03    0.74871E-05   -0.12833E-07  1538   0.731E-04    0.274E-04
RMM:  17    -0.413214139982E+03    0.19310E-05   -0.55462E-08   992   0.595E-04    0.176E-04
RMM:  18    -0.413214134157E+03    0.58247E-05   -0.70835E-08  1353   0.642E-04    0.155E-04
RMM:  19    -0.413214132348E+03    0.18091E-05   -0.33290E-08   927   0.552E-04    0.682E-05
RMM:  20    -0.413214130802E+03    0.15467E-05   -0.29354E-08   961   0.560E-04    0.584E-05
RMM:  21    -0.413214130675E+03    0.12676E-06   -0.12427E-08   699   0.520E-04
   42 T=    71. E= -.41286652E+03 F= -.41321413E+03 E0= -.41319309E+03  EK= 0.34762E+00 SP= 0.00E+00 SK= 0.00E+00
       N       E                     dE             d eps       ncg     rms          rms(c)
RMM:   1    -0.413239163246E+03   -0.25032E-01   -0.10226E+01  4311   0.127E+00    0.944E-01
RMM:   2    -0.413221312959E+03    0.17850E-01   -0.16220E-01  4295   0.145E-01    0.695E-01
RMM:   3    -0.413220278337E+03    0.10346E-02   -0.18069E-02  5073   0.806E-02    0.295E-01
RMM:   4    -0.413261445925E+03   -0.41168E-01   -0.58758E-02  5098   0.204E-01    0.872E-01
RMM:   5    -0.413216241900E+03    0.45204E-01   -0.20014E-02  4752   0.145E-01    0.635E-02
RMM:   6    -0.413216332221E+03   -0.90321E-04   -0.35729E-03  5763   0.565E-02    0.375E-02
RMM:   7    -0.413216342342E+03   -0.10122E-04   -0.52715E-04  5749   0.210E-02    0.246E-02
RMM:   8    -0.413216340057E+03    0.22852E-05   -0.13232E-04  5201   0.120E-02    0.132E-02
RMM:   9    -0.413216328115E+03    0.11942E-04   -0.21011E-05  4473   0.581E-03    0.549E-03
RMM:  10    -0.413216324769E+03    0.33456E-05   -0.48139E-06  2925   0.278E-03    0.351E-03
RMM:  11    -0.413216321488E+03    0.32806E-05   -0.13082E-06  2499   0.190E-03    0.193E-03
RMM:  12    -0.413216315989E+03    0.54999E-05   -0.93306E-07  2472   0.160E-03    0.710E-04
RMM:  13    -0.413216312546E+03    0.34427E-05   -0.44571E-07  2267   0.114E-03    0.372E-04
RMM:  14    -0.413216311102E+03    0.14435E-05   -0.23055E-07  1840   0.848E-04    0.263E-04
RMM:  15    -0.413216308202E+03    0.29001E-05   -0.13491E-07  1401   0.714E-04    0.123E-04
RMM:  16    -0.413216304889E+03    0.33134E-05   -0.91990E-08  1176   0.663E-04    0.104E-04
RMM:  17    -0.413216302641E+03    0.22477E-05   -0.62230E-08  1075   0.630E-04    0.682E-05
RMM:  18    -0.413216299964E+03    0.26767E-05   -0.51926E-08  1096   0.620E-04    0.432E-05
RMM:  19    -0.413216297668E+03    0.22968E-05   -0.41336E-08  1089   0.601E-04    0.304E-05
RMM:  20    -0.413216297063E+03    0.60465E-06   -0.20168E-08   809   0.549E-04
   43 T=    71. E= -.41286658E+03 F= -.41321630E+03 E0= -.41319529E+03  EK= 0.34971E+00 SP= 0.00E+00 SK= 0.00E+00
       N       E                     dE             d eps       ncg     rms          rms(c)
RMM:   1    -0.413229211703E+03   -0.12914E-01   -0.10223E+01  4314   0.127E+00    0.950E-01
RMM:   2    -0.413222951851E+03    0.62599E-02   -0.15470E-01  4294   0.154E-01    0.707E-01
RMM:   3    -0.413222776785E+03    0.17507E-03   -0.20890E-02  5069   0.903E-02    0.319E-01
RMM:   4    -0.413259729460E+03   -0.36953E-01   -0.57831E-02  5090   0.204E-01    0.841E-01
RMM:   5    -0.413217609244E+03    0.42120E-01   -0.17888E-02  4726   0.139E-01    0.623E-02
RMM:   6    -0.413217675144E+03   -0.65900E-04   -0.32737E-03  5745   0.542E-02    0.361E-02
RMM:   7    -0.413217677347E+03   -0.22027E-05   -0.48385E-04  5749   0.205E-02    0.237E-02
RMM:   8    -0.413217674773E+03    0.25742E-05   -0.12531E-04  5183   0.118E-02    0.125E-02
RMM:   9    -0.413217664305E+03    0.10468E-04   -0.19349E-05  4402   0.566E-03    0.514E-03
RMM:  10    -0.413217661955E+03    0.23490E-05   -0.43517E-06  2847   0.267E-03    0.326E-03
RMM:  11    -0.413217659479E+03    0.24764E-05   -0.12687E-06  2495   0.187E-03    0.176E-03
RMM:  12    -0.413217655397E+03    0.40817E-05   -0.86992E-07  2469   0.154E-03    0.702E-04
RMM:  13    -0.413217652754E+03    0.26434E-05   -0.43131E-07  2182   0.110E-03    0.332E-04
RMM:  14    -0.413217651206E+03    0.15481E-05   -0.22785E-07  1746   0.830E-04    0.221E-04
RMM:  15    -0.413217647924E+03    0.32821E-05   -0.15738E-07  1387   0.729E-04    0.124E-04
RMM:  16    -0.413217645864E+03    0.20595E-05   -0.93569E-08  1142   0.659E-04    0.906E-05
RMM:  17    -0.413217643848E+03    0.20165E-05   -0.69954E-08  1098   0.637E-04    0.592E-05
RMM:  18    -0.413217641365E+03    0.24825E-05   -0.58598E-08  1126   0.624E-04    0.341E-05
RMM:  19    -0.413217639521E+03    0.18439E-05   -0.39459E-08  1005   0.590E-04    0.261E-05
RMM:  20    -0.413217638905E+03    0.61642E-06   -0.20206E-08   783   0.552E-04
   44 T=    72. E= -.41286636E+03 F= -.41321764E+03 E0= -.41319666E+03  EK= 0.35128E+00 SP= 0.00E+00 SK= 0.00E+00
       N       E                     dE             d eps       ncg     rms          rms(c)
RMM:   1    -0.413259019521E+03   -0.41380E-01   -0.10481E+01  4312   0.148E+00    0.973E-01
RMM:   2    -0.413224002545E+03    0.35017E-01   -0.17647E-01  4311   0.168E-01    0.705E-01
RMM:   3    -0.413226658048E+03   -0.26555E-02   -0.20625E-02  5101   0.990E-02    0.398E-01
RMM:   4    -0.413251564011E+03   -0.24906E-01   -0.51716E-02  5059   0.195E-01    0.745E-01
RMM:   5    -0.413219216194E+03    0.32348E-01   -0.13061E-02  4695   0.124E-01    0.630E-02
RMM:   6    -0.413219221632E+03   -0.54378E-05   -0.25167E-03  5658   0.482E-02    0.367E-02
RMM:   7    -0.413219219318E+03    0.23141E-05   -0.42539E-04  5698   0.196E-02    0.243E-02
RMM:   8    -0.413219211226E+03    0.80915E-05   -0.12587E-04  5104   0.121E-02    0.117E-02
RMM:   9    -0.413219198272E+03    0.12954E-04   -0.17993E-05  4404   0.578E-03    0.466E-03
RMM:  10    -0.413219194423E+03    0.38489E-05   -0.36996E-06  2784   0.250E-03    0.282E-03
RMM:  11    -0.413219188970E+03    0.54530E-05   -0.12947E-06  2497   0.187E-03    0.154E-03
RMM:  12    -0.413219182848E+03    0.61219E-05   -0.69184E-07  2438   0.142E-03    0.666E-04
RMM:  13    -0.413219179138E+03    0.37098E-05   -0.34002E-07  1999   0.993E-04    0.313E-04
RMM:  14    -0.413219175901E+03    0.32366E-05   -0.19298E-07  1568   0.783E-04    0.186E-04
RMM:  15    -0.413219170979E+03    0.49224E-05   -0.14138E-07  1376   0.723E-04    0.124E-04
RMM:  16    -0.413219168007E+03    0.29718E-05   -0.87581E-08  1143   0.659E-04    0.888E-05
RMM:  17    -0.413219163869E+03    0.41379E-05   -0.83793E-08  1356   0.660E-04    0.564E-05
RMM:  18    -0.413219161501E+03    0.23681E-05   -0.49666E-08  1047   0.588E-04    0.456E-05
RMM:  19    -0.413219159463E+03    0.20377E-05   -0.36799E-08   995   0.573E-04    0.257E-05
RMM:  20    -0.413219159143E+03    0.32017E-06   -0.18684E-08   748   0.530E-04
   45 T=    72. E= -.41286671E+03 F= -.41321916E+03 E0= -.41319820E+03  EK= 0.35245E+00 SP= 0.00E+00 SK= 0.00E+00
       N       E                     dE             d eps       ncg     rms          rms(c)
RMM:   1    -0.413248220768E+03   -0.29061E-01   -0.10274E+01  4311   0.150E+00    0.955E-01
RMM:   2    -0.413224035808E+03    0.24185E-01   -0.16332E-01  4322   0.175E-01    0.698E-01
RMM:   3    -0.413229444336E+03   -0.54085E-02   -0.23636E-02  5107   0.112E-01    0.449E-01
RMM:   4    -0.413244307767E+03   -0.14863E-01   -0.47259E-02  5048   0.188E-01    0.657E-01
RMM:   5    -0.413219226874E+03    0.25081E-01   -0.91976E-03  4655   0.110E-01    0.597E-02
RMM:   6    -0.413219199868E+03    0.27006E-04   -0.19416E-03  5571   0.424E-02    0.346E-02
RMM:   7    -0.413219191944E+03    0.79245E-05   -0.35390E-04  5603   0.183E-02    0.229E-02
RMM:   8    -0.413219181093E+03    0.10850E-04   -0.12313E-04  5082   0.119E-02    0.108E-02
RMM:   9    -0.413219169233E+03    0.11861E-04   -0.15451E-05  4273   0.549E-03    0.445E-03
RMM:  10    -0.413219165844E+03    0.33889E-05   -0.30383E-06  2720   0.234E-03    0.259E-03
RMM:  11    -0.413219160784E+03    0.50596E-05   -0.11850E-06  2488   0.178E-03    0.137E-03
RMM:  12    -0.413219155404E+03    0.53803E-05   -0.64166E-07  2412   0.135E-03    0.647E-04
RMM:  13    -0.413219152008E+03    0.33954E-05   -0.31092E-07  1922   0.950E-04    0.305E-04
RMM:  14    -0.413219148884E+03    0.31241E-05   -0.17706E-07  1474   0.751E-04    0.174E-04
RMM:  15    -0.413219144256E+03    0.46282E-05   -0.13255E-07  1289   0.704E-04    0.121E-04
RMM:  16    -0.413219141688E+03    0.25684E-05   -0.83871E-08  1123   0.648E-04    0.856E-05
RMM:  17    -0.413219137234E+03    0.44537E-05   -0.87338E-08  1365   0.662E-04    0.618E-05
RMM:  18    -0.413219135467E+03    0.17671E-05   -0.45898E-08  1007   0.572E-04    0.400E-05
RMM:  19    -0.413219133712E+03    0.17550E-05   -0.34816E-08   940   0.557E-04    0.206E-05
RMM:  20    -0.413219133367E+03    0.34553E-06   -0.19002E-08   739   0.523E-04
   46 T=    72. E= -.41286656E+03 F= -.41321913E+03 E0= -.41319819E+03  EK= 0.35258E+00 SP= 0.00E+00 SK= 0.00E+00
       N       E                     dE             d eps       ncg     rms          rms(c)
RMM:   1    -0.413234630961E+03   -0.15497E-01   -0.10171E+01  4312   0.150E+00    0.947E-01
RMM:   2    -0.413223650127E+03    0.10981E-01   -0.15869E-01  4346   0.182E-01    0.708E-01
RMM:   3    -0.413230910969E+03   -0.72608E-02   -0.26728E-02  5092   0.124E-01    0.484E-01
RMM:   4    -0.413242325425E+03   -0.11414E-01   -0.48570E-02  5032   0.192E-01    0.638E-01
RMM:   5    -0.413218476225E+03    0.23849E-01   -0.82381E-03  4620   0.107E-01    0.590E-02
RMM:   6    -0.413218434497E+03    0.41728E-04   -0.17886E-03  5513   0.407E-02    0.327E-02
RMM:   7    -0.413218428367E+03    0.61302E-05   -0.32123E-04  5592   0.176E-02    0.220E-02
RMM:   8    -0.413218418458E+03    0.99097E-05   -0.12612E-04  5081   0.119E-02    0.105E-02
RMM:   9    -0.413218407615E+03    0.10842E-04   -0.15044E-05  4211   0.545E-03    0.433E-03
RMM:  10    -0.413218405371E+03    0.22446E-05   -0.30116E-06  2718   0.232E-03    0.250E-03
RMM:  11    -0.413218401898E+03    0.34725E-05   -0.12220E-06  2491   0.179E-03    0.129E-03
RMM:  12    -0.413218398458E+03    0.34405E-05   -0.64515E-07  2398   0.134E-03    0.668E-04
RMM:  13    -0.413218395912E+03    0.25455E-05   -0.32238E-07  1881   0.949E-04    0.309E-04
RMM:  14    -0.413218393440E+03    0.24716E-05   -0.18823E-07  1421   0.753E-04    0.170E-04
RMM:  15    -0.413218390256E+03    0.31841E-05   -0.14292E-07  1290   0.706E-04    0.112E-04
RMM:  16    -0.413218388276E+03    0.19803E-05   -0.92815E-08  1157   0.652E-04    0.848E-05
RMM:  17    -0.413218384649E+03    0.36269E-05   -0.96558E-08  1354   0.667E-04    0.572E-05
RMM:  18    -0.413218383267E+03    0.13820E-05   -0.48131E-08   993   0.571E-04    0.357E-05
RMM:  19    -0.413218382080E+03    0.11871E-05   -0.33343E-08   892   0.547E-04    0.211E-05
RMM:  20    -0.413218381519E+03    0.56063E-06   -0.19126E-08   740   0.523E-04
   47 T=    72. E= -.41286668E+03 F= -.41321838E+03 E0= -.41319746E+03  EK= 0.35170E+00 SP= 0.00E+00 SK= 0.00E+00
       N       E                     dE             d eps       ncg     rms          rms(c)
RMM:   1    -0.413245989748E+03   -0.27608E-01   -0.10201E+01  4307   0.167E+00    0.964E-01
RMM:   2    -0.413221702867E+03    0.24287E-01   -0.17134E-01  4396   0.197E-01    0.706E-01
RMM:   3    -0.413234553811E+03   -0.12851E-01   -0.29557E-02  5127   0.138E-01    0.584E-01
RMM:   4    -0.413232873109E+03    0.16807E-02   -0.44457E-02  5001   0.187E-01    0.533E-01
RMM:   5    -0.413216734134E+03    0.16139E-01   -0.54263E-03  4567   0.947E-02    0.588E-02
RMM:   6    -0.413216644960E+03    0.89174E-04   -0.10490E-03  5160   0.336E-02    0.316E-02
RMM:   7    -0.413216635437E+03    0.95228E-05   -0.22061E-04  5562   0.149E-02    0.189E-02
RMM:   8    -0.413216631095E+03    0.43422E-05   -0.13829E-04  5167   0.122E-02    0.120E-02
RMM:   9    -0.413216614597E+03    0.16498E-04   -0.18967E-05  4451   0.602E-03    0.447E-03
RMM:  10    -0.413216611629E+03    0.29679E-05   -0.33891E-06  2754   0.241E-03    0.246E-03
RMM:  11    -0.413216605715E+03    0.59136E-05   -0.14159E-06  2467   0.192E-03    0.131E-03
RMM:  12    -0.413216601690E+03    0.40251E-05   -0.61736E-07  2369   0.136E-03    0.765E-04
RMM:  13    -0.413216597597E+03    0.40936E-05   -0.30171E-07  1827   0.960E-04    0.379E-04
RMM:  14    -0.413216593434E+03    0.41626E-05   -0.16645E-07  1431   0.744E-04    0.208E-04
RMM:  15    -0.413216589580E+03    0.38546E-05   -0.10945E-07  1175   0.669E-04    0.127E-04
RMM:  16    -0.413216586846E+03    0.27332E-05   -0.79039E-08  1144   0.628E-04    0.109E-04
RMM:  17    -0.413216583258E+03    0.35889E-05   -0.69984E-08  1162   0.613E-04    0.596E-05
RMM:  18    -0.413216580682E+03    0.25760E-05   -0.44146E-08   949   0.564E-04    0.495E-05
RMM:  19    -0.413216579960E+03    0.72196E-06   -0.21423E-08   696   0.515E-04
   48 T=    71. E= -.41286698E+03 F= -.41321658E+03 E0= -.41319567E+03  EK= 0.34960E+00 SP= 0.00E+00 SK= 0.00E+00
       N       E                     dE             d eps       ncg     rms          rms(c)
RMM:   1    -0.413244976771E+03   -0.28396E-01   -0.10031E+01  4305   0.179E+00    0.953E-01
RMM:   2    -0.413217557378E+03    0.27419E-01   -0.16943E-01  4449   0.208E-01    0.695E-01
RMM:   3    -0.413236846588E+03   -0.19289E-01   -0.34352E-02  5137   0.155E-01    0.672E-01
RMM:   4    -0.413223809030E+03    0.13038E-01   -0.42369E-02  4970   0.186E-01    0.447E-01
RMM:   5    -0.413212834615E+03    0.10974E-01   -0.41331E-03  4536   0.878E-02    0.604E-02
RMM:   6    -0.413212700545E+03    0.13407E-03   -0.57147E-04  4802   0.290E-02    0.318E-02
RMM:   7    -0.413212692537E+03    0.80078E-05   -0.22709E-04  5853   0.155E-02    0.164E-02
RMM:   8    -0.413212682921E+03    0.96158E-05   -0.97760E-05  5186   0.110E-02    0.116E-02
RMM:   9    -0.413212673706E+03    0.92153E-05   -0.18409E-05  4482   0.546E-03    0.450E-03
RMM:  10    -0.413212669869E+03    0.38369E-05   -0.28664E-06  2689   0.257E-03    0.240E-03
RMM:  11    -0.413212663819E+03    0.60495E-05   -0.16694E-06  2493   0.210E-03    0.156E-03
RMM:  12    -0.413212659928E+03    0.38911E-05   -0.64052E-07  2423   0.144E-03    0.910E-04
RMM:  13    -0.413212655663E+03    0.42649E-05   -0.32038E-07  2097   0.991E-04    0.519E-04
RMM:  14    -0.413212649435E+03    0.62288E-05   -0.23373E-07  1819   0.838E-04    0.420E-04
RMM:  15    -0.413212645628E+03    0.38066E-05   -0.10913E-07  1125   0.636E-04    0.175E-04
RMM:  16    -0.413212643231E+03    0.23972E-05   -0.79201E-08  1113   0.608E-04    0.982E-05
RMM:  17    -0.413212638961E+03    0.42695E-05   -0.82179E-08  1250   0.632E-04    0.122E-04
RMM:  18    -0.413212637749E+03    0.12121E-05   -0.36319E-08   894   0.551E-04    0.953E-05
RMM:  19    -0.413212636600E+03    0.11488E-05   -0.24832E-08   821   0.536E-04    0.514E-05
[...]
RMM:   9    -0.413265244817E+03    0.10270E-07   -0.19015E-04  5203   0.170E-02    0.190E-02
RMM:  10    -0.413265240366E+03    0.44514E-05   -0.40331E-05  5156   0.796E-03    0.108E-02
RMM:  11    -0.413265240648E+03   -0.28234E-06   -0.29312E-05  5116   0.644E-03    0.502E-03
RMM:  12    -0.413265242039E+03   -0.13907E-05   -0.37306E-06  2886   0.281E-03    0.312E-03
RMM:  13    -0.413265243091E+03   -0.10526E-05   -0.12950E-06  2534   0.193E-03    0.122E-03
RMM:  14    -0.413265244317E+03   -0.12258E-05   -0.69636E-07  2384   0.136E-03    0.602E-04
RMM:  15    -0.413265245267E+03   -0.95025E-06   -0.44351E-07  2093   0.106E-03
  139 T=   141. E= -.41257136E+03 F= -.41326525E+03 E0= -.41323997E+03  EK= 0.69388E+00 SP= 0.00E+00 SK= 0.00E+00
       N       E                     dE             d eps       ncg     rms          rms(c)
RMM:   1    -0.413372925167E+03   -0.10768E+00   -0.13417E+01  4294   0.696E+00    0.108E+00
RMM:   2    -0.413375560865E+03   -0.26357E-02   -0.44133E-01  5395   0.798E-01    0.134E+00
RMM:   3    -0.413330127539E+03    0.45433E-01   -0.10154E-01  5453   0.361E-01    0.102E+00
RMM:   4    -0.413310063498E+03    0.20064E-01   -0.50405E-02  5201   0.270E-01    0.511E-01
RMM:   5    -0.413311321516E+03   -0.12580E-02   -0.26018E-02  5173   0.205E-01    0.276E-01
RMM:   6    -0.413309219155E+03    0.21024E-02   -0.17927E-02  5064   0.157E-01    0.144E-01
RMM:   7    -0.413308321883E+03    0.89727E-03   -0.22926E-03  4764   0.710E-02    0.596E-02
RMM:   8    -0.413308287883E+03    0.34000E-04   -0.37429E-04  5041   0.261E-02    0.343E-02
RMM:   9    -0.413308292734E+03   -0.48511E-05   -0.20702E-04  5254   0.178E-02    0.192E-02
RMM:  10    -0.413308289924E+03    0.28108E-05   -0.56837E-05  5405   0.914E-03    0.100E-02
RMM:  11    -0.413308290755E+03   -0.83190E-06   -0.34979E-05  5610   0.698E-03    0.612E-03
RMM:  12    -0.413308291478E+03   -0.72300E-06   -0.57739E-06  3181   0.341E-03
  140 T=   150. E= -.41256922E+03 F= -.41330829E+03 E0= -.41328352E+03  EK= 0.73907E+00 SP= 0.00E+00 SK= 0.00E+00
       N       E                     dE             d eps       ncg     rms          rms(c)
RMM:   1    -0.413467251763E+03   -0.15896E+00   -0.14931E+01  4294   0.734E+00    0.119E+00
RMM:   2    -0.413471930549E+03   -0.46788E-02   -0.52304E-01  5392   0.883E-01    0.148E+00
RMM:   3    -0.413427488882E+03    0.44442E-01   -0.12276E-01  5454   0.394E-01    0.118E+00
RMM:   4    -0.413397382923E+03    0.30106E-01   -0.59760E-02  5193   0.295E-01    0.590E-01
RMM:   5    -0.413399003766E+03   -0.16208E-02   -0.34571E-02  5255   0.237E-01    0.309E-01
RMM:   6    -0.413396118413E+03    0.28854E-02   -0.21975E-02  5086   0.174E-01    0.153E-01
RMM:   7    -0.413395127444E+03    0.99097E-03   -0.30749E-03  4956   0.798E-02    0.710E-02
RMM:   8    -0.413395060373E+03    0.67071E-04   -0.43128E-04  4754   0.300E-02    0.406E-02
RMM:   9    -0.413395069479E+03   -0.91056E-05   -0.28142E-04  5258   0.210E-02    0.234E-02
RMM:  10    -0.413395064093E+03    0.53851E-05   -0.79911E-05  5439   0.109E-02    0.117E-02
RMM:  11    -0.413395065930E+03   -0.18362E-05   -0.55131E-05  5820   0.850E-03    0.752E-03
RMM:  12    -0.413395065994E+03   -0.64418E-07   -0.76366E-06  3571   0.382E-03
  141 T=   168. E= -.41256887E+03 F= -.41339507E+03 E0= -.41337107E+03  EK= 0.82619E+00 SP= 0.00E+00 SK= 0.00E+00
       N       E                     dE             d eps       ncg     rms          rms(c)
RMM:   1    -0.413634686134E+03   -0.23962E+00   -0.17935E+01  4292   0.796E+00    0.128E+00
RMM:   2    -0.413594596556E+03    0.40090E-01   -0.59944E-01  5390   0.962E-01    0.146E+00
RMM:   3    -0.413583588607E+03    0.11008E-01   -0.13806E-01  5507   0.412E-01    0.133E+00
RMM:   4    -0.413539236893E+03    0.44352E-01   -0.68078E-02  5176   0.310E-01    0.664E-01
RMM:   5    -0.413538612005E+03    0.62489E-03   -0.35069E-02  4973   0.254E-01    0.294E-01
RMM:   6    -0.413536860345E+03    0.17517E-02   -0.21604E-02  5060   0.174E-01    0.159E-01
RMM:   7    -0.413535547785E+03    0.13126E-02   -0.37624E-03  4898   0.844E-02    0.741E-02
RMM:   8    -0.413535469924E+03    0.77861E-04   -0.54350E-04  4993   0.327E-02    0.452E-02
RMM:   9    -0.413535464842E+03    0.50825E-05   -0.27602E-04  4765   0.216E-02    0.200E-02
RMM:  10    -0.413535465350E+03   -0.50867E-06   -0.92797E-05  5571   0.114E-02    0.108E-02
RMM:  11    -0.413535467444E+03   -0.20931E-05   -0.35261E-05  5604   0.695E-03    0.696E-03
RMM:  12    -0.413535467573E+03   -0.12934E-06   -0.67486E-06  3339   0.375E-03
  142 T=   197. E= -.41257024E+03 F= -.41353547E+03 E0= -.41351253E+03  EK= 0.96522E+00 SP= 0.00E+00 SK= 0.00E+00
       N       E                     dE             d eps       ncg     rms          rms(c)
RMM:   1    -0.413867286858E+03   -0.33182E+00   -0.22587E+01  4284   0.879E+00    0.128E+00
RMM:   2    -0.413744680211E+03    0.12261E+00   -0.70574E-01  5398   0.105E+00    0.134E+00
RMM:   3    -0.413772168091E+03   -0.27488E-01   -0.14316E-01  5629   0.419E-01    0.137E+00
RMM:   4    -0.413720584923E+03    0.51583E-01   -0.63243E-02  5245   0.290E-01    0.744E-01
RMM:   5    -0.413715451639E+03    0.51333E-02   -0.33021E-02  4398   0.267E-01    0.256E-01
RMM:   6    -0.413715103718E+03    0.34792E-03   -0.15239E-02  5179   0.151E-01    0.143E-01
RMM:   7    -0.413714103765E+03    0.99995E-03   -0.41085E-03  5102   0.802E-02    0.815E-02
RMM:   8    -0.413713929122E+03    0.17464E-03   -0.54155E-04  4670   0.333E-02    0.505E-02
RMM:   9    -0.413713901683E+03    0.27439E-04   -0.41682E-04  4561   0.274E-02    0.175E-02
RMM:  10    -0.413713907390E+03   -0.57069E-05   -0.11283E-04  5781   0.121E-02    0.120E-02
RMM:  11    -0.413713907755E+03   -0.36475E-06   -0.22526E-05  4508   0.617E-03    0.514E-03
RMM:  12    -0.413713910669E+03   -0.29146E-05   -0.64438E-06  3119   0.335E-03    0.263E-03
RMM:  13    -0.413713913058E+03   -0.23890E-05   -0.17723E-06  2620   0.208E-03    0.136E-03
RMM:  14    -0.413713914393E+03   -0.13349E-05   -0.89650E-07  2498   0.149E-03    0.648E-04
RMM:  15    -0.413713915278E+03   -0.88491E-06   -0.66375E-07  2174   0.117E-03
  143 T=   232. E= -.41257628E+03 F= -.41371392E+03 E0= -.41369206E+03  EK= 0.11376E+01 SP= 0.00E+00 SK= 0.00E+00
       N       E                     dE             d eps       ncg     rms          rms(c)
RMM:   1    -0.414077781435E+03   -0.36387E+00   -0.28241E+01  4265   0.964E+00    0.142E+00
RMM:   2    -0.413858992680E+03    0.21879E+00   -0.87353E-01  5390   0.116E+00    0.139E+00
RMM:   3    -0.413858349537E+03    0.64314E-03   -0.11446E-01  5470   0.400E-01    0.103E+00
RMM:   4    -0.413953516433E+03   -0.95167E-01   -0.13773E-01  5329   0.352E-01    0.144E+00
RMM:   5    -0.413848309478E+03    0.10521E+00   -0.89470E-02  4644   0.377E-01    0.279E-01
RMM:   6    -0.413847123452E+03    0.11860E-02   -0.20362E-02  5494   0.172E-01    0.125E-01
RMM:   7    -0.413846883170E+03    0.24028E-03   -0.33483E-03  5498   0.661E-02    0.847E-02
RMM:   8    -0.413846840722E+03    0.42448E-04   -0.12469E-03  5266   0.396E-02    0.565E-02
RMM:   9    -0.413846730573E+03    0.11015E-03   -0.56820E-04  4767   0.314E-02    0.210E-02
RMM:  10    -0.413846741870E+03   -0.11297E-04   -0.16814E-04  5949   0.152E-02    0.148E-02
RMM:  11    -0.413846741896E+03   -0.26092E-07   -0.35339E-05  5089   0.709E-03    0.890E-03
RMM:  12    -0.413846746187E+03   -0.42911E-05   -0.11283E-05  4107   0.460E-03    0.424E-03
RMM:  13    -0.413846750976E+03   -0.47895E-05   -0.27176E-06  2703   0.274E-03    0.268E-03
RMM:  14    -0.413846755106E+03   -0.41295E-05   -0.11762E-06  2560   0.177E-03    0.105E-03
RMM:  15    -0.413846758759E+03   -0.36530E-05   -0.90523E-07  2514   0.139E-03    0.547E-04
RMM:  16    -0.413846761723E+03   -0.29640E-05   -0.60233E-07  1972   0.104E-03    0.347E-04
RMM:  17    -0.413846764424E+03   -0.27011E-05   -0.52591E-07  2002   0.984E-04    0.228E-04
RMM:  18    -0.413846766968E+03   -0.25445E-05   -0.46722E-07  1850   0.886E-04    0.150E-04
RMM:  19    -0.413846769173E+03   -0.22043E-05   -0.38782E-07  1623   0.814E-04    0.108E-04
RMM:  20    -0.413846769996E+03   -0.82319E-06   -0.17113E-07  1229   0.651E-04
  144 T=   255. E= -.41259183E+03 F= -.41384677E+03 E0= -.41382580E+03  EK= 0.12549E+01 SP= 0.00E+00 SK= 0.00E+00
       N       E                     dE             d eps       ncg     rms          rms(c)
RMM:   1    -0.414021580131E+03   -0.17481E+00   -0.30904E+01  4265   0.989E+00    0.189E+00
RMM:   2    -0.413769507532E+03    0.25207E+00   -0.98896E-01  5378   0.123E+00    0.182E+00
RMM:   3    -0.413831029076E+03   -0.61522E-01   -0.21223E-01  5712   0.490E-01    0.183E+00
RMM:   4    -0.413762595824E+03    0.68433E-01   -0.97132E-02  5109   0.358E-01    0.108E+00
RMM:   5    -0.413755636653E+03    0.69592E-02   -0.89215E-02  4368   0.418E-01    0.404E-01
RMM:   6    -0.413750152668E+03    0.54840E-02   -0.89664E-03  4450   0.151E-01    0.142E-01
RMM:   7    -0.413749730205E+03    0.42246E-03   -0.27995E-03  5568   0.680E-02    0.844E-02
RMM:   8    -0.413749672192E+03    0.58013E-04   -0.15232E-03  5266   0.467E-02    0.522E-02
RMM:   9    -0.413749565141E+03    0.10705E-03   -0.56047E-04  5095   0.301E-02    0.266E-02
RMM:  10    -0.413749563354E+03    0.17872E-05   -0.12846E-04  5544   0.141E-02    0.135E-02
RMM:  11    -0.413749565269E+03   -0.19150E-05   -0.26729E-05  4717   0.661E-03    0.761E-03
RMM:  12    -0.413749569592E+03   -0.43231E-05   -0.75850E-06  3294   0.356E-03    0.415E-03
RMM:  13    -0.413749575682E+03   -0.60900E-05   -0.26921E-06  2705   0.267E-03    0.216E-03
RMM:  14    -0.413749580588E+03   -0.49054E-05   -0.14417E-06  2568   0.191E-03    0.901E-04
RMM:  15    -0.413749585047E+03   -0.44594E-05   -0.99629E-07  2535   0.145E-03    0.525E-04
RMM:  16    -0.413749588121E+03   -0.30741E-05   -0.61031E-07  2081   0.108E-03    0.410E-04
RMM:  17    -0.413749594213E+03   -0.60917E-05   -0.12523E-06  2534   0.135E-03    0.249E-04
RMM:  18    -0.413749596790E+03   -0.25774E-05   -0.53628E-07  1604   0.872E-04    0.155E-04
RMM:  19    -0.413749599583E+03   -0.27928E-05   -0.44419E-07  1719   0.873E-04    0.152E-04
RMM:  20    -0.413749601240E+03   -0.16564E-05   -0.25909E-07  1469   0.734E-04    0.117E-04
RMM:  21    -0.413749602293E+03   -0.10532E-05   -0.13911E-07  1157   0.634E-04    0.496E-05
RMM:  22    -0.413749603320E+03   -0.10269E-05   -0.98277E-08  1123   0.607E-04    0.335E-05
RMM:  23    -0.413749603686E+03   -0.36634E-06   -0.54852E-08   975   0.569E-04
  145 T=   234. E= -.41259837E+03 F= -.41374960E+03 E0= -.41372929E+03  EK= 0.11512E+01 SP= 0.00E+00 SK= 0.00E+00
       N       E                     dE             d eps       ncg     rms          rms(c)
RMM:   1    -0.413645180033E+03    0.10442E+00   -0.25299E+01  4265   0.874E+00    0.184E+00
RMM:   2    -0.413450039735E+03    0.19514E+00   -0.84631E-01  5350   0.109E+00    0.173E+00
RMM:   3    -0.413500150910E+03   -0.50111E-01   -0.20104E-01  5656   0.473E-01    0.180E+00
RMM:   4    -0.413429684620E+03    0.70466E-01   -0.85801E-02  4965   0.365E-01    0.855E-01
RMM:   5    -0.413427895433E+03    0.17892E-02   -0.63965E-02  4463   0.353E-01    0.329E-01
RMM:   6    -0.413424443201E+03    0.34522E-02   -0.69878E-03  4615   0.128E-01    0.120E-01
RMM:   7    -0.413424160189E+03    0.28301E-03   -0.22125E-03  5398   0.590E-02    0.674E-02
RMM:   8    -0.413424110266E+03    0.49923E-04   -0.91944E-04  5030   0.393E-02    0.381E-02
RMM:   9    -0.413424092369E+03    0.17897E-04   -0.26091E-04  5463   0.198E-02    0.197E-02
RMM:  10    -0.413424098913E+03   -0.65441E-05   -0.10323E-04  5638   0.111E-02    0.124E-02
RMM:  11    -0.413424094969E+03    0.39441E-05   -0.24656E-05  4786   0.628E-03    0.641E-03
RMM:  12    -0.413424099055E+03   -0.40853E-05   -0.54802E-06  3095   0.321E-03    0.340E-03
RMM:  13    -0.413424103754E+03   -0.46990E-05   -0.20866E-06  2635   0.237E-03    0.187E-03
RMM:  14    -0.413424107886E+03   -0.41323E-05   -0.10931E-06  2537   0.172E-03    0.753E-04
RMM:  15    -0.413424111224E+03   -0.33381E-05   -0.71953E-07  2361   0.125E-03    0.445E-04
RMM:  16    -0.413424114317E+03   -0.30931E-05   -0.52550E-07  1964   0.101E-03    0.308E-04
RMM:  17    -0.413424118568E+03   -0.42506E-05   -0.71030E-07  2171   0.105E-03    0.178E-04
RMM:  18    -0.413424120903E+03   -0.23349E-05   -0.36798E-07  1580   0.791E-04    0.112E-04
RMM:  19    -0.413424123737E+03   -0.28341E-05   -0.36460E-07  1576   0.798E-04    0.786E-05
RMM:  20    -0.413424124976E+03   -0.12394E-05   -0.17956E-07  1257   0.670E-04    0.582E-05
RMM:  21    -0.413424126135E+03   -0.11591E-05   -0.11775E-07  1137   0.623E-04    0.323E-05
RMM:  22    -0.413424126960E+03   -0.82461E-06   -0.76727E-08  1046   0.587E-04
  146 T=   173. E= -.41257304E+03 F= -.41342413E+03 E0= -.41340420E+03  EK= 0.85108E+00 SP= 0.00E+00 SK= 0.00E+00
       N       E                     dE             d eps       ncg     rms          rms(c)
RMM:   1    -0.413349401975E+03    0.74724E-01   -0.17379E+01  4266   0.718E+00    0.172E+00
RMM:   2    -0.413243504435E+03    0.10590E+00   -0.59917E-01  5306   0.835E-01    0.144E+00
RMM:   3    -0.413328457165E+03   -0.84953E-01   -0.15954E-01  5350   0.442E-01    0.129E+00
RMM:   4    -0.413303373033E+03    0.25084E-01   -0.18163E-01  5105   0.427E-01    0.103E+00
RMM:   5    -0.413246639697E+03    0.56733E-01   -0.63141E-02  4979   0.319E-01    0.277E-01
RMM:   6    -0.413243672510E+03    0.29672E-02   -0.67439E-03  4693   0.122E-01    0.990E-02
RMM:   7    -0.413243573014E+03    0.99496E-04   -0.22146E-03  5468   0.564E-02    0.588E-02
RMM:   8    -0.413243616116E+03   -0.43102E-04   -0.10985E-03  5768   0.368E-02    0.437E-02
RMM:   9    -0.413243551375E+03    0.64741E-04   -0.22978E-04  5045   0.197E-02    0.216E-02
RMM:  10    -0.413243555053E+03   -0.36781E-05   -0.10055E-04  5723   0.113E-02    0.106E-02
RMM:  11    -0.413243557722E+03   -0.26686E-05   -0.20007E-05  4666   0.544E-03    0.601E-03
RMM:  12    -0.413243561652E+03   -0.39304E-05   -0.47884E-06  2989   0.326E-03    0.324E-03
RMM:  13    -0.413243564687E+03   -0.30352E-05   -0.14448E-06  2580   0.206E-03    0.167E-03
RMM:  14    -0.413243567298E+03   -0.26109E-05   -0.94015E-07  2503   0.154E-03    0.709E-04
RMM:  15    -0.413243569625E+03   -0.23266E-05   -0.65155E-07  2245   0.118E-03    0.478E-04
RMM:  16    -0.413243571713E+03   -0.20882E-05   -0.52223E-07  1994   0.102E-03    0.228E-04
RMM:  17    -0.413243572852E+03   -0.11393E-05   -0.30514E-07  1624   0.821E-04    0.139E-04
RMM:  18    -0.413243574028E+03   -0.11762E-05   -0.31058E-07  1796   0.817E-04    0.973E-05
RMM:  19    -0.413243574517E+03   -0.48886E-06   -0.15345E-07  1264   0.639E-04
  147 T=   137. E= -.41256845E+03 F= -.41324357E+03 E0= -.41322389E+03  EK= 0.67512E+00 SP= 0.00E+00 SK= 0.00E+00
       N       E                     dE             d eps       ncg     rms          rms(c)
RMM:   1    -0.413404811367E+03   -0.16124E+00   -0.15681E+01  4286   0.737E+00    0.168E+00
RMM:   2    -0.413369052195E+03    0.35759E-01   -0.48371E-01  5384   0.823E-01    0.147E+00
RMM:   3    -0.413417825398E+03   -0.48773E-01   -0.16316E-01  5429   0.431E-01    0.163E+00
RMM:   4    -0.413346461162E+03    0.71364E-01   -0.11404E-01  5155   0.393E-01    0.619E-01
RMM:   5    -0.413341303556E+03    0.51576E-02   -0.59922E-02  4954   0.315E-01    0.246E-01
RMM:   6    -0.413338527602E+03    0.27760E-02   -0.18254E-02  5199   0.168E-01    0.144E-01
RMM:   7    -0.413337619962E+03    0.90764E-03   -0.17593E-03  4562   0.635E-02    0.648E-02
RMM:   8    -0.413337596631E+03    0.23332E-04   -0.65552E-04  5525   0.311E-02    0.346E-02
RMM:   9    -0.413337617841E+03   -0.21211E-04   -0.28964E-04  5467   0.209E-02    0.233E-02
RMM:  10    -0.413337617362E+03    0.47975E-06   -0.55931E-05  5235   0.973E-03    0.133E-02
RMM:  11    -0.413337627401E+03   -0.10039E-04   -0.48210E-05  5421   0.832E-03    0.690E-03
RMM:  12    -0.413337638531E+03   -0.11130E-04   -0.81165E-06  3388   0.409E-03    0.412E-03
RMM:  13    -0.413337642988E+03   -0.44571E-05   -0.30785E-06  2770   0.262E-03    0.188E-03
RMM:  14    -0.413337646352E+03   -0.33640E-05   -0.14659E-06  2576   0.184E-03    0.950E-04
RMM:  15    -0.413337648912E+03   -0.25603E-05   -0.12612E-06  2509   0.156E-03    0.596E-04
RMM:  16    -0.413337650340E+03   -0.14279E-05   -0.10612E-06  2370   0.132E-03    0.364E-04
RMM:  17    -0.413337650499E+03   -0.15856E-06   -0.85414E-07  2248   0.115E-03
  148 T=   155. E= -.41257597E+03 F= -.41333765E+03 E0= -.41331818E+03  EK= 0.76168E+00 SP= 0.00E+00 SK= 0.00E+00
       N       E                     dE             d eps       ncg     rms          rms(c)
RMM:   1    -0.413660143494E+03   -0.32249E+00   -0.20325E+01  4298   0.830E+00    0.193E+00
RMM:   2    -0.413608788026E+03    0.51355E-01   -0.69952E-01  5415   0.102E+00    0.187E+00
RMM:   3    -0.413595045594E+03    0.13742E-01   -0.22082E-01  5447   0.517E-01    0.176E+00
RMM:   4    -0.413532639250E+03    0.62406E-01   -0.13927E-01  5236   0.444E-01    0.795E-01
RMM:   5    -0.413529226378E+03    0.34129E-02   -0.79146E-02  4984   0.359E-01    0.360E-01
RMM:   6    -0.413524010791E+03    0.52156E-02   -0.31943E-02  5132   0.219E-01    0.182E-01
RMM:   7    -0.413522475271E+03    0.15355E-02   -0.27697E-03  4498   0.832E-02    0.759E-02
RMM:   8    -0.413522447166E+03    0.28105E-04   -0.89279E-04  5457   0.374E-02    0.440E-02
RMM:   9    -0.413522467481E+03   -0.20316E-04   -0.34141E-04  4951   0.235E-02    0.219E-02
RMM:  10    -0.413522479934E+03   -0.12453E-04   -0.86206E-05  5505   0.115E-02    0.134E-02
RMM:  11    -0.413522493140E+03   -0.13205E-04   -0.40808E-05  5371   0.787E-03    0.774E-03
RMM:  12    -0.413522507748E+03   -0.14608E-04   -0.12202E-05  3936   0.476E-03    0.536E-03
RMM:  13    -0.413522516245E+03   -0.84976E-05   -0.51604E-06  3054   0.341E-03    0.242E-03
RMM:  14    -0.413522520448E+03   -0.42028E-05   -0.27158E-06  2725   0.230E-03    0.131E-03
RMM:  15    -0.413522524061E+03   -0.36133E-05   -0.23352E-06  2702   0.211E-03    0.861E-04
RMM:  16    -0.413522524999E+03   -0.93755E-06   -0.15421E-06  2493   0.152E-03
  149 T=   189. E= -.41259648E+03 F= -.41352252E+03 E0= -.41350333E+03  EK= 0.92604E+00 SP= 0.00E+00 SK= 0.00E+00
       N       E                     dE             d eps       ncg     rms          rms(c)
RMM:   1    -0.413694106351E+03   -0.17158E+00   -0.22336E+01  4302   0.858E+00    0.173E+00
RMM:   2    -0.413567616539E+03    0.12649E+00   -0.68314E-01  5410   0.101E+00    0.173E+00
RMM:   3    -0.413550614042E+03    0.17002E-01   -0.18972E-01  5525   0.482E-01    0.160E+00
RMM:   4    -0.413501520326E+03    0.49094E-01   -0.98806E-02  5222   0.379E-01    0.795E-01
RMM:   5    -0.413501729301E+03   -0.20898E-03   -0.72066E-02  4944   0.341E-01    0.369E-01
RMM:   6    -0.413496459153E+03    0.52701E-02   -0.33205E-02  5084   0.220E-01    0.184E-01
RMM:   7    -0.413494739118E+03    0.17200E-02   -0.31315E-03  4552   0.874E-02    0.819E-02
RMM:   8    -0.413494702678E+03    0.36440E-04   -0.10147E-03  5557   0.393E-02    0.519E-02
RMM:   9    -0.413494704091E+03   -0.14121E-05   -0.40386E-04  4649   0.258E-02    0.189E-02
RMM:  10    -0.413494725471E+03   -0.21381E-04   -0.11666E-04  5772   0.128E-02    0.123E-02
RMM:  11    -0.413494738218E+03   -0.12747E-04   -0.31619E-05  4960   0.706E-03    0.741E-03
RMM:  12    -0.413494751026E+03   -0.12808E-04   -0.10904E-05  3724   0.459E-03    0.455E-03
RMM:  13    -0.413494757742E+03   -0.67155E-05   -0.42432E-06  2952   0.291E-03    0.209E-03
RMM:  14    -0.413494762310E+03   -0.45685E-05   -0.27664E-06  2742   0.231E-03    0.134E-03
RMM:  15    -0.413494764743E+03   -0.24329E-05   -0.26809E-06  2737   0.213E-03    0.861E-04
RMM:  16    -0.413494764275E+03    0.46752E-06   -0.15387E-06  2415   0.142E-03
  150 T=   185. E= -.41258427E+03 F= -.41349476E+03 E0= -.41347581E+03  EK= 0.91050E+00 SP= 0.00E+00 SK= 0.00E+00
