       N       E                     dE             d eps       ncg     rms          rms(c)
RMM:   1     0.220132496853E+04    0.22013E+04   -0.52439E+04  2132   0.654E+02
RMM:   2     0.705424521464E+03   -0.14959E+04   -0.16261E+04  2132   0.177E+02
RMM:   3     0.137509749751E+03   -0.56791E+03   -0.65687E+03  2132   0.117E+02
RMM:   4    -0.159285989220E+03   -0.29680E+03   -0.27851E+03  2132   0.936E+01
RMM:   5    -0.287402439700E+03   -0.12812E+03   -0.11442E+03  2132   0.595E+01
RMM:   6    -0.349792578043E+03   -0.62390E+02   -0.55148E+02  2132   0.423E+01
RMM:   7    -0.382747200266E+03   -0.32955E+02   -0.30434E+02  2132   0.293E+01
RMM:   8    -0.404244306263E+03   -0.21497E+02   -0.18447E+02  2132   0.233E+01
RMM:   9    -0.436070204030E+03   -0.31826E+02   -0.30758E+02  6108   0.173E+01
RMM:  10    -0.441331996038E+03   -0.52618E+01   -0.62713E+01  6398   0.538E+00
RMM:  11    -0.442515615994E+03   -0.11836E+01   -0.10804E+01  6224   0.171E+00
RMM:  12    -0.442894496042E+03   -0.37888E+00   -0.27524E+00  6370   0.597E-01    0.134E+02
RMM:  13    -0.425646248531E+03    0.17248E+02   -0.81058E+01  4671   0.119E+01    0.712E+01
RMM:  14    -0.499753104073E+03   -0.74107E+02   -0.54381E+02  5417   0.233E+01    0.307E+01
RMM:  15    -0.414307323231E+03    0.85446E+02   -0.19634E+02  5060   0.163E+01    0.610E+00
RMM:  16    -0.414067241461E+03    0.24008E+00   -0.39270E+01  6075   0.604E+00    0.430E+00
RMM:  17    -0.413222269789E+03    0.84497E+00   -0.23170E+00  5347   0.182E+00    0.246E+00
RMM:  18    -0.413167398136E+03    0.54872E-01   -0.88007E-01  5953   0.968E-01    0.159E+00
RMM:  19    -0.413168089983E+03   -0.69185E-03   -0.30400E-01  5751   0.583E-01    0.850E-01
RMM:  20    -0.413180044642E+03   -0.11955E-01   -0.17392E-01  5311   0.467E-01    0.490E-01
RMM:  21    -0.413166867149E+03    0.13177E-01   -0.30839E-02  4999   0.214E-01    0.228E-01
RMM:  22    -0.413165915703E+03    0.95145E-03   -0.11603E-02  6155   0.860E-02    0.152E-01
RMM:  23    -0.413164163121E+03    0.17526E-02   -0.58831E-03  5725   0.727E-02    0.802E-02
RMM:  24    -0.413162879853E+03    0.12833E-02   -0.18675E-03  5636   0.415E-02    0.334E-02
RMM:  25    -0.413162756406E+03    0.12345E-03   -0.77489E-04  5710   0.225E-02    0.285E-02
RMM:  26    -0.413162978657E+03   -0.22225E-03   -0.46502E-04  5769   0.224E-02    0.263E-02
RMM:  27    -0.413163428936E+03   -0.45028E-03   -0.19155E-04  4503   0.191E-02    0.134E-02
RMM:  28    -0.413163940648E+03   -0.51171E-03   -0.17923E-04  5081   0.196E-02    0.909E-03
RMM:  29    -0.413164264869E+03   -0.32422E-03   -0.98045E-05  4374   0.133E-02    0.351E-03
RMM:  30    -0.413164465094E+03   -0.20022E-03   -0.73602E-05  3961   0.916E-03    0.221E-03
RMM:  31    -0.413164553309E+03   -0.88215E-04   -0.43340E-05  3154   0.543E-03    0.221E-03
RMM:  32    -0.413164577323E+03   -0.24014E-04   -0.17497E-05  2901   0.273E-03    0.111E-03
RMM:  33    -0.413164584948E+03   -0.76248E-05   -0.76468E-06  2709   0.175E-03    0.468E-04
RMM:  34    -0.413164587544E+03   -0.25961E-05   -0.60440E-06  2615   0.146E-03    0.822E-04
RMM:  35    -0.413164587216E+03    0.32799E-06   -0.18599E-06  1895   0.987E-04
    1 T=    61. E= -.41286677E+03 F= -.41316459E+03 E0= -.41314209E+03  EK= 0.29782E+00 SP= 0.00E+00 SK= 0.00E+00
       N       E                     dE             d eps       ncg     rms          rms(c)
RMM:   1    -0.413158109071E+03    0.64785E-02   -0.10305E+01  4004   0.667E-01    0.885E-01
RMM:   2    -0.413166988803E+03   -0.88797E-02   -0.12631E-01  3921   0.952E-02    0.645E-01
RMM:   3    -0.413164490759E+03    0.24980E-02   -0.94112E-03  4731   0.409E-02    0.121E-01
RMM:   4    -0.413184165087E+03   -0.19674E-01   -0.20814E-02  5213   0.119E-01    0.586E-01
RMM:   5    -0.413164177018E+03    0.19988E-01   -0.10010E-02  4857   0.984E-02    0.394E-02
RMM:   6    -0.413164306094E+03   -0.12908E-03   -0.16886E-03  5803   0.395E-02    0.263E-02
RMM:   7    -0.413164314023E+03   -0.79297E-05   -0.28963E-04  5727   0.153E-02    0.161E-02
RMM:   8    -0.413164316045E+03   -0.20216E-05   -0.40109E-05  4823   0.665E-03    0.695E-03
RMM:   9    -0.413164319522E+03   -0.34771E-05   -0.86588E-06  3311   0.316E-03    0.545E-03
RMM:  10    -0.413164324438E+03   -0.49157E-05   -0.16458E-06  2563   0.187E-03    0.349E-03
RMM:  11    -0.413164330758E+03   -0.63198E-05   -0.13641E-06  2535   0.168E-03    0.161E-03
RMM:  12    -0.413164337363E+03   -0.66051E-05   -0.12443E-06  2496   0.153E-03    0.723E-04
RMM:  13    -0.413164338123E+03   -0.76001E-06   -0.45960E-07  2093   0.991E-04
    2 T=    61. E= -.41286651E+03 F= -.41316434E+03 E0= -.41314184E+03  EK= 0.29783E+00 SP= 0.00E+00 SK= 0.00E+00
       N       E                     dE             d eps       ncg     rms          rms(c)
RMM:   1    -0.413159152331E+03    0.51850E-02   -0.10328E+01  4192   0.671E-01    0.908E-01
RMM:   2    -0.413166923469E+03   -0.77711E-02   -0.12426E-01  3984   0.935E-02    0.639E-01
RMM:   3    -0.413165005735E+03    0.19177E-02   -0.94266E-03  4777   0.398E-02    0.134E-01
RMM:   4    -0.413186338199E+03   -0.21332E-01   -0.21803E-02  5181   0.123E-01    0.610E-01
RMM:   5    -0.413164739825E+03    0.21598E-01   -0.10609E-02  4840   0.102E-01    0.408E-02
RMM:   6    -0.413164875251E+03   -0.13543E-03   -0.17817E-03  5809   0.409E-02    0.268E-02
RMM:   7    -0.413164875148E+03    0.10314E-06   -0.29408E-04  5722   0.159E-02    0.168E-02
RMM:   8    -0.413164870090E+03    0.50572E-05   -0.47745E-05  4935   0.732E-03    0.782E-03
RMM:   9    -0.413164869191E+03    0.89982E-06   -0.96201E-06  3540   0.350E-03
    3 T=    61. E= -.41286675E+03 F= -.41316487E+03 E0= -.41314237E+03  EK= 0.29812E+00 SP= 0.00E+00 SK= 0.00E+00
       N       E                     dE             d eps       ncg     rms          rms(c)
RMM:   1    -0.413158643547E+03    0.62265E-02   -0.10247E+01  4222   0.673E-01    0.892E-01
RMM:   2    -0.413166698717E+03   -0.80552E-02   -0.12355E-01  4324   0.943E-02    0.633E-01
RMM:   3    -0.413172683651E+03   -0.59849E-02   -0.15647E-02  5189   0.895E-02    0.399E-01
RMM:   4    -0.413182437922E+03   -0.97543E-02   -0.34888E-02  5096   0.162E-01    0.555E-01
RMM:   5    -0.413164711450E+03    0.17726E-01   -0.63207E-03  4653   0.930E-02    0.574E-02
RMM:   6    -0.413164639644E+03    0.71807E-04   -0.12213E-03  5312   0.357E-02    0.267E-02
RMM:   7    -0.413164655770E+03   -0.16126E-04   -0.27603E-04  5992   0.162E-02    0.169E-02
RMM:   8    -0.413164652733E+03    0.30364E-05   -0.53185E-05  5215   0.832E-03    0.697E-03
RMM:   9    -0.413164651476E+03    0.12571E-05   -0.10970E-05  3967   0.410E-03    0.369E-03
RMM:  10    -0.413164652465E+03   -0.98827E-06   -0.12730E-06  2530   0.196E-03
    4 T=    61. E= -.41286653E+03 F= -.41316465E+03 E0= -.41314217E+03  EK= 0.29812E+00 SP= 0.00E+00 SK= 0.00E+00
       N       E                     dE             d eps       ncg     rms          rms(c)
RMM:   1    -0.413158548721E+03    0.61028E-02   -0.10297E+01  4234   0.679E-01    0.883E-01
RMM:   2    -0.413167274681E+03   -0.87260E-02   -0.12640E-01  3899   0.909E-02    0.644E-01
RMM:   3    -0.413165064388E+03    0.22103E-02   -0.93692E-03  4901   0.393E-02    0.128E-01
RMM:   4    -0.413191159980E+03   -0.26096E-01   -0.26886E-02  5167   0.137E-01    0.674E-01
RMM:   5    -0.413164636474E+03    0.26524E-01   -0.12843E-02  4826   0.112E-01    0.428E-02
RMM:   6    -0.413164803923E+03   -0.16745E-03   -0.21686E-03  5772   0.450E-02    0.270E-02
RMM:   7    -0.413164813851E+03   -0.99287E-05   -0.33212E-04  5831   0.159E-02    0.167E-02
RMM:   8    -0.413164816216E+03   -0.23646E-05   -0.44920E-05  4881   0.692E-03    0.729E-03
RMM:   9    -0.413164819240E+03   -0.30244E-05   -0.96978E-06  3495   0.342E-03    0.561E-03
RMM:  10    -0.413164823505E+03   -0.42651E-05   -0.15206E-06  2556   0.192E-03    0.364E-03
RMM:  11    -0.413164829112E+03   -0.56065E-05   -0.13906E-06  2544   0.178E-03    0.167E-03
RMM:  12    -0.413164834627E+03   -0.55152E-05   -0.13295E-06  2540   0.163E-03    0.777E-04
RMM:  13    -0.413164835029E+03   -0.40179E-06   -0.35699E-07  2122   0.101E-03
    5 T=    61. E= -.41286661E+03 F= -.41316484E+03 E0= -.41314236E+03  EK= 0.29823E+00 SP= 0.00E+00 SK= 0.00E+00
       N       E                     dE             d eps       ncg     rms          rms(c)
RMM:   1    -0.413159432852E+03    0.54018E-02   -0.10329E+01  4253   0.684E-01    0.903E-01
RMM:   2    -0.413167344759E+03   -0.79119E-02   -0.12455E-01  4037   0.937E-02    0.641E-01
RMM:   3    -0.413165483014E+03    0.18617E-02   -0.93992E-03  4777   0.398E-02    0.132E-01
RMM:   4    -0.413186576802E+03   -0.21094E-01   -0.21457E-02  5157   0.122E-01    0.608E-01
RMM:   5    -0.413165155710E+03    0.21421E-01   -0.10505E-02  4826   0.101E-01    0.404E-02
RMM:   6    -0.413165286268E+03   -0.13056E-03   -0.17881E-03  5823   0.402E-02    0.260E-02
RMM:   7    -0.413165288321E+03   -0.20526E-05   -0.27981E-04  5719   0.155E-02    0.165E-02
RMM:   8    -0.413165283124E+03    0.51972E-05   -0.48686E-05  4915   0.741E-03    0.792E-03
RMM:   9    -0.413165281870E+03    0.12534E-05   -0.97436E-06  3601   0.360E-03    0.618E-03
RMM:  10    -0.413165282387E+03   -0.51675E-06   -0.13991E-06  2539   0.198E-03
    6 T=    61. E= -.41286681E+03 F= -.41316528E+03 E0= -.41314282E+03  EK= 0.29847E+00 SP= 0.00E+00 SK= 0.00E+00
       N       E                     dE             d eps       ncg     rms          rms(c)
RMM:   1    -0.413159196126E+03    0.60857E-02   -0.10276E+01  4256   0.686E-01    0.899E-01
RMM:   2    -0.413167093632E+03   -0.78975E-02   -0.12374E-01  4174   0.939E-02    0.634E-01
RMM:   3    -0.413167572369E+03   -0.47874E-03   -0.11142E-02  5105   0.612E-02    0.246E-01
RMM:   4    -0.413200459063E+03   -0.32887E-01   -0.44255E-02  5136   0.177E-01    0.777E-01
RMM:   5    -0.413164946122E+03    0.35513E-01   -0.15543E-02  4766   0.129E-01    0.569E-02
RMM:   6    -0.413165049780E+03   -0.10366E-03   -0.26350E-03  5626   0.509E-02    0.275E-02
RMM:   7    -0.413165068515E+03   -0.18735E-04   -0.39127E-04  6040   0.167E-02    0.174E-02
RMM:   8    -0.413165066210E+03    0.23050E-05   -0.65768E-05  5254   0.850E-03    0.787E-03
RMM:   9    -0.413165062485E+03    0.37249E-05   -0.10602E-05  3505   0.371E-03    0.387E-03
RMM:  10    -0.413165062448E+03    0.37013E-07   -0.24675E-06  2606   0.223E-03
    7 T=    61. E= -.41286652E+03 F= -.41316506E+03 E0= -.41314261E+03  EK= 0.29855E+00 SP= 0.00E+00 SK= 0.00E+00
       N       E                     dE             d eps       ncg     rms          rms(c)
RMM:   1    -0.413159390805E+03    0.56717E-02   -0.10279E+01  4266   0.693E-01    0.882E-01
RMM:   2    -0.413168108873E+03   -0.87181E-02   -0.12585E-01  4115   0.939E-02    0.641E-01
RMM:   3    -0.413166616240E+03    0.14926E-02   -0.99033E-03  5051   0.499E-02    0.175E-01
RMM:   4    -0.413209032404E+03   -0.42416E-01   -0.47223E-02  5150   0.181E-01    0.858E-01
RMM:   5    -0.413165374994E+03    0.43657E-01   -0.20536E-02  4805   0.143E-01    0.519E-02
RMM:   6    -0.413165587480E+03   -0.21249E-03   -0.33403E-03  5759   0.566E-02    0.283E-02
RMM:   7    -0.413165605413E+03   -0.17933E-04   -0.45553E-04  5970   0.182E-02    0.192E-02
RMM:   8    -0.413165607315E+03   -0.19020E-05   -0.73191E-05  5235   0.854E-03    0.930E-03
RMM:   9    -0.413165606865E+03    0.45037E-06   -0.14683E-05  3989   0.419E-03    0.556E-03
RMM:  10    -0.413165610125E+03   -0.32602E-05   -0.26501E-06  2631   0.219E-03    0.372E-03
RMM:  11    -0.413165613219E+03   -0.30944E-05   -0.12422E-06  2529   0.172E-03    0.192E-03
RMM:  12    -0.413165616820E+03   -0.36010E-05   -0.13164E-06  2545   0.168E-03    0.589E-04
RMM:  13    -0.413165618045E+03   -0.12241E-05   -0.53389E-07  2265   0.116E-03    0.495E-04
RMM:  14    -0.413165617965E+03    0.79759E-07   -0.22136E-07  1692   0.809E-04
    8 T=    61. E= -.41286674E+03 F= -.41316562E+03 E0= -.41314319E+03  EK= 0.29888E+00 SP= 0.00E+00 SK= 0.00E+00
       N       E                     dE             d eps       ncg     rms          rms(c)
RMM:   1    -0.413159859315E+03    0.57587E-02   -0.10333E+01  4284   0.699E-01    0.898E-01
RMM:   2    -0.413168174493E+03   -0.83152E-02   -0.12536E-01  4134   0.957E-02    0.644E-01
RMM:   3    -0.413166089834E+03    0.20847E-02   -0.94862E-03  4822   0.412E-02    0.133E-01
RMM:   4    -0.413191216243E+03   -0.25126E-01   -0.25814E-02  5155   0.134E-01    0.663E-01
RMM:   5    -0.413165651326E+03    0.25565E-01   -0.12475E-02  4811   0.110E-01    0.423E-02
RMM:   6    -0.413165812339E+03   -0.16101E-03   -0.21169E-03  5793   0.439E-02    0.275E-02
RMM:   7    -0.413165814755E+03   -0.24160E-05   -0.32135E-04  5742   0.162E-02    0.173E-02
RMM:   8    -0.413165810623E+03    0.41326E-05   -0.50393E-05  4956   0.745E-03    0.811E-03
RMM:   9    -0.413165809268E+03    0.13551E-05   -0.10272E-05  3629   0.365E-03    0.616E-03
RMM:  10    -0.413165809962E+03   -0.69432E-06   -0.14671E-06  2546   0.196E-03
    9 T=    61. E= -.41286664E+03 F= -.41316581E+03 E0= -.41314340E+03  EK= 0.29917E+00 SP= 0.00E+00 SK= 0.00E+00
       N       E                     dE             d eps       ncg     rms          rms(c)
RMM:   1    -0.413160160923E+03    0.56483E-02   -0.10312E+01  4300   0.700E-01    0.906E-01
RMM:   2    -0.413167850670E+03   -0.76897E-02   -0.12391E-01  4242   0.946E-02    0.636E-01
RMM:   3    -0.413168428912E+03   -0.57824E-03   -0.11332E-02  5088   0.639E-02    0.249E-01
RMM:   4    -0.413200691501E+03   -0.32263E-01   -0.43927E-02  5122   0.176E-01    0.772E-01
RMM:   5    -0.413165738262E+03    0.34953E-01   -0.15317E-02  4754   0.128E-01    0.565E-02
RMM:   6    -0.413165849223E+03   -0.11096E-03   -0.26052E-03  5615   0.505E-02    0.279E-02
RMM:   7    -0.413165862954E+03   -0.13731E-04   -0.38571E-04  6012   0.167E-02    0.176E-02
RMM:   8    -0.413165858707E+03    0.42471E-05   -0.65009E-05  5256   0.847E-03    0.792E-03
RMM:   9    -0.413165853530E+03    0.51769E-05   -0.10547E-05  3514   0.372E-03    0.393E-03
RMM:  10    -0.413165852358E+03    0.11715E-05   -0.24490E-06  2605   0.223E-03    0.275E-03
RMM:  11    -0.413165850594E+03    0.17640E-05   -0.12304E-06  2518   0.175E-03    0.143E-03
RMM:  12    -0.413165848710E+03    0.18846E-05   -0.76632E-07  2473   0.138E-03    0.457E-04
RMM:  13    -0.413165847808E+03    0.90157E-06   -0.37134E-07  2038   0.982E-04
   10 T=    61. E= -.41286643E+03 F= -.41316585E+03 E0= -.41314346E+03  EK= 0.29942E+00 SP= 0.00E+00 SK= 0.00E+00
       N       E                     dE             d eps       ncg     rms          rms(c)
RMM:   1    -0.413160365405E+03    0.54833E-02   -0.10268E+01  4287   0.705E-01    0.883E-01
RMM:   2    -0.413168959157E+03   -0.85938E-02   -0.12533E-01  4205   0.962E-02    0.639E-01
RMM:   3    -0.413166980927E+03    0.19782E-02   -0.93451E-03  4859   0.434E-02    0.137E-01
RMM:   4    -0.413197122882E+03   -0.30142E-01   -0.31262E-02  5147   0.147E-01    0.724E-01
RMM:   5    -0.413166411566E+03    0.30711E-01   -0.14897E-02  4805   0.121E-01    0.443E-02
RMM:   6    -0.413166597740E+03   -0.18617E-03   -0.25180E-03  5781   0.478E-02    0.279E-02
RMM:   7    -0.413166604549E+03   -0.68088E-05   -0.35971E-04  5780   0.168E-02    0.180E-02
RMM:   8    -0.413166601698E+03    0.28511E-05   -0.58673E-05  5013   0.787E-03    0.875E-03
RMM:   9    -0.413166600199E+03    0.14981E-05   -0.12196E-05  3833   0.394E-03    0.641E-03
RMM:  10    -0.413166601270E+03   -0.10705E-05   -0.17256E-06  2558   0.203E-03    0.418E-03
RMM:  11    -0.413166602853E+03   -0.15833E-05   -0.16702E-06  2565   0.197E-03    0.189E-03
RMM:  12    -0.413166604145E+03   -0.12915E-05   -0.13203E-06  2528   0.172E-03    0.762E-04
RMM:  13    -0.413166604250E+03   -0.10518E-06   -0.37693E-07  2190   0.106E-03
   11 T=    61. E= -.41286678E+03 F= -.41316660E+03 E0= -.41314424E+03  EK= 0.29983E+00 SP= 0.00E+00 SK= 0.00E+00
       N       E                     dE             d eps       ncg     rms          rms(c)
RMM:   1    -0.413160554698E+03    0.60494E-02   -0.10340E+01  4292   0.715E-01    0.894E-01
RMM:   2    -0.413168966428E+03   -0.84117E-02   -0.12626E-01  4207   0.946E-02    0.646E-01
RMM:   3    -0.413166784621E+03    0.21818E-02   -0.94710E-03  4808   0.406E-02    0.130E-01
RMM:   4    -0.413191505001E+03   -0.24720E-01   -0.25410E-02  5144   0.132E-01    0.657E-01
RMM:   5    -0.413166405049E+03    0.25100E-01   -0.12265E-02  4811   0.109E-01    0.415E-02
RMM:   6    -0.413166563238E+03   -0.15819E-03   -0.20837E-03  5806   0.431E-02    0.262E-02
RMM:   7    -0.413166569673E+03   -0.64342E-05   -0.29951E-04  5737   0.158E-02    0.168E-02
RMM:   8    -0.413166565964E+03    0.37084E-05   -0.54512E-05  4969   0.767E-03    0.838E-03
RMM:   9    -0.413166564433E+03    0.15309E-05   -0.11011E-05  3760   0.381E-03    0.637E-03
RMM:  10    -0.413166565320E+03   -0.88671E-06   -0.14779E-06  2543   0.199E-03
   12 T=    61. E= -.41286655E+03 F= -.41316657E+03 E0= -.41314423E+03  EK= 0.30001E+00 SP= 0.00E+00 SK= 0.00E+00
       N       E                     dE             d eps       ncg     rms          rms(c)
RMM:   1    -0.413161599027E+03    0.49654E-02   -0.10340E+01  4302   0.713E-01    0.911E-01
RMM:   2    -0.413168956266E+03   -0.73572E-02   -0.12418E-01  4265   0.915E-02    0.638E-01
RMM:   3    -0.413169835775E+03   -0.87951E-03   -0.11508E-02  5125   0.609E-02    0.252E-01
RMM:   4    -0.413201807361E+03   -0.31972E-01   -0.44213E-02  5125   0.176E-01    0.769E-01
RMM:   5    -0.413167016567E+03    0.34791E-01   -0.15082E-02  4747   0.127E-01    0.565E-02
RMM:   6    -0.413167132277E+03   -0.11571E-03   -0.26012E-03  5626   0.501E-02    0.282E-02
RMM:   7    -0.413167142411E+03   -0.10134E-04   -0.38533E-04  6013   0.167E-02    0.179E-02
RMM:   8    -0.413167136796E+03    0.56145E-05   -0.64930E-05  5229   0.850E-03    0.802E-03
RMM:   9    -0.413167130394E+03    0.64019E-05   -0.10482E-05  3518   0.376E-03    0.395E-03
RMM:  10    -0.413167128221E+03    0.21735E-05   -0.24548E-06  2608   0.222E-03    0.273E-03
RMM:  11    -0.413167125288E+03    0.29328E-05   -0.12196E-06  2518   0.175E-03    0.141E-03
RMM:  12    -0.413167122240E+03    0.30477E-05   -0.76470E-07  2463   0.138E-03    0.448E-04
RMM:  13    -0.413167120862E+03    0.13782E-05   -0.35988E-07  2038   0.982E-04    0.293E-04
RMM:  14    -0.413167119746E+03    0.11160E-05   -0.21165E-07  1552   0.788E-04    0.198E-04
RMM:  15    -0.413167117851E+03    0.18954E-05   -0.19089E-07  1402   0.742E-04    0.993E-05
RMM:  16    -0.413167116081E+03    0.17693E-05   -0.15336E-07  1406   0.706E-04    0.112E-04
RMM:  17    -0.413167114305E+03    0.17769E-05   -0.13179E-07  1355   0.658E-04    0.629E-05
RMM:  18    -0.413167112903E+03    0.14014E-05   -0.89024E-08  1099   0.594E-04    0.264E-05
RMM:  19    -0.413167112442E+03    0.46086E-06   -0.41957E-08   851   0.541E-04
   13 T=    61. E= -.41286662E+03 F= -.41316711E+03 E0= -.41314481E+03  EK= 0.30049E+00 SP= 0.00E+00 SK= 0.00E+00
       N       E                     dE             d eps       ncg     rms          rms(c)
RMM:   1    -0.413161828534E+03    0.52844E-02   -0.10267E+01  4291   0.720E-01    0.886E-01
RMM:   2    -0.413170023181E+03   -0.81946E-02   -0.12516E-01  4220   0.923E-02    0.637E-01
RMM:   3    -0.413168258451E+03    0.17647E-02   -0.94323E-03  4930   0.424E-02    0.146E-01
RMM:   4    -0.413202262229E+03   -0.34004E-01   -0.35746E-02  5143   0.157E-01    0.768E-01
RMM:   5    -0.413167599799E+03    0.34662E-01   -0.16814E-02  4793   0.128E-01    0.467E-02
RMM:   6    -0.413167805849E+03   -0.20605E-03   -0.28213E-03  5765   0.507E-02    0.290E-02
RMM:   7    -0.413167811002E+03   -0.51532E-05   -0.39145E-04  5769   0.175E-02    0.188E-02
RMM:   8    -0.413167806693E+03    0.43093E-05   -0.62990E-05  5086   0.816E-03    0.913E-03
RMM:   9    -0.413167803416E+03    0.32776E-05   -0.13425E-05  3967   0.411E-03    0.642E-03
RMM:  10    -0.413167803142E+03    0.27318E-06   -0.19052E-06  2570   0.207E-03
   14 T=    61. E= -.41286674E+03 F= -.41316780E+03 E0= -.41314553E+03  EK= 0.30106E+00 SP= 0.00E+00 SK= 0.00E+00
       N       E                     dE             d eps       ncg     rms          rms(c)
RMM:   1    -0.413161817738E+03    0.59857E-02   -0.10354E+01  4300   0.726E-01    0.891E-01
RMM:   2    -0.413170494708E+03   -0.86770E-02   -0.12725E-01  4303   0.962E-02    0.648E-01
RMM:   3    -0.413171782072E+03   -0.12874E-02   -0.12543E-02  5121   0.704E-02    0.290E-01
RMM:   4    -0.413200813811E+03   -0.29032E-01   -0.45713E-02  5099   0.180E-01    0.749E-01
RMM:   5    -0.413167691801E+03    0.33122E-01   -0.13721E-02  4718   0.123E-01    0.563E-02
RMM:   6    -0.413167779121E+03   -0.87320E-04   -0.23948E-03  5596   0.482E-02    0.261E-02
RMM:   7    -0.413167798329E+03   -0.19208E-04   -0.35545E-04  6008   0.164E-02    0.170E-02
RMM:   8    -0.413167799529E+03   -0.12001E-05   -0.65181E-05  5234   0.853E-03    0.778E-03
RMM:   9    -0.413167797354E+03    0.21756E-05   -0.10357E-05  3480   0.377E-03    0.360E-03
RMM:  10    -0.413167798520E+03   -0.11657E-05   -0.22519E-06  2581   0.215E-03    0.242E-03
RMM:  11    -0.413167799919E+03   -0.13992E-05   -0.14159E-06  2529   0.181E-03    0.140E-03
RMM:  12    -0.413167800437E+03   -0.51825E-06   -0.71710E-07  2461   0.136E-03
   15 T=    61. E= -.41286637E+03 F= -.41316780E+03 E0= -.41314557E+03  EK= 0.30143E+00 SP= 0.00E+00 SK= 0.00E+00
       N       E                     dE             d eps       ncg     rms          rms(c)
RMM:   1    -0.413163270999E+03    0.45289E-02   -0.10371E+01  4301   0.726E-01    0.913E-01
RMM:   2    -0.413170993614E+03   -0.77226E-02   -0.12496E-01  4242   0.967E-02    0.641E-01
RMM:   3    -0.413169373290E+03    0.16203E-02   -0.98935E-03  4935   0.455E-02    0.155E-01
RMM:   4    -0.413205284612E+03   -0.35911E-01   -0.37973E-02  5142   0.162E-01    0.789E-01
RMM:   5    -0.413168626329E+03    0.36658E-01   -0.17710E-02  4793   0.132E-01    0.485E-02
RMM:   6    -0.413168839711E+03   -0.21338E-03   -0.30354E-03  5772   0.525E-02    0.304E-02
RMM:   7    -0.413168839548E+03    0.16229E-06   -0.41648E-04  5785   0.183E-02    0.198E-02
RMM:   8    -0.413168830857E+03    0.86917E-05   -0.69777E-05  5136   0.854E-03    0.100E-02
RMM:   9    -0.413168824005E+03    0.68514E-05   -0.14237E-05  4055   0.425E-03    0.698E-03
RMM:  10    -0.413168820287E+03    0.37187E-05   -0.21158E-06  2589   0.216E-03    0.449E-03
RMM:  11    -0.413168816669E+03    0.36176E-05   -0.14800E-06  2536   0.189E-03    0.228E-03
RMM:  12    -0.413168811406E+03    0.52631E-05   -0.15617E-06  2548   0.191E-03    0.830E-04
RMM:  13    -0.413168810033E+03    0.13732E-05   -0.47009E-07  2302   0.121E-03    0.576E-04
RMM:  14    -0.413168810049E+03   -0.16153E-07   -0.21539E-07  1809   0.826E-04
   16 T=    62. E= -.41286667E+03 F= -.41316881E+03 E0= -.41314661E+03  EK= 0.30214E+00 SP= 0.00E+00 SK= 0.00E+00
       N       E                     dE             d eps       ncg     rms          rms(c)
RMM:   1    -0.413163334260E+03    0.54758E-02   -0.10289E+01  4296   0.726E-01    0.893E-01
RMM:   2    -0.413171614884E+03   -0.82806E-02   -0.12509E-01  4246   0.969E-02    0.637E-01
RMM:   3    -0.413169567391E+03    0.20475E-02   -0.93792E-03  4839   0.427E-02    0.139E-01
RMM:   4    -0.413197724814E+03   -0.28157E-01   -0.29126E-02  5140   0.142E-01    0.700E-01
RMM:   5    -0.413169108719E+03    0.28616E-01   -0.14014E-02  4806   0.116E-01    0.441E-02
RMM:   6    -0.413169282601E+03   -0.17388E-03   -0.23874E-03  5794   0.462E-02    0.283E-02
RMM:   7    -0.413169283280E+03   -0.67867E-06   -0.34244E-04  5722   0.169E-02    0.180E-02
RMM:   8    -0.413169275837E+03    0.74433E-05   -0.58156E-05  5005   0.793E-03    0.888E-03
RMM:   9    -0.413169271254E+03    0.45826E-05   -0.11871E-05  3828   0.394E-03    0.658E-03
RMM:  10    -0.413169269093E+03    0.21609E-05   -0.16121E-06  2547   0.203E-03    0.426E-03
RMM:  11    -0.413169266293E+03    0.28005E-05   -0.16088E-06  2545   0.198E-03    0.192E-03
RMM:  12    -0.413169263272E+03    0.30205E-05   -0.12335E-06  2513   0.171E-03    0.762E-04
RMM:  13    -0.413169262890E+03    0.38201E-06   -0.36790E-07  2183   0.106E-03
   17 T=    62. E= -.41286655E+03 F= -.41316926E+03 E0= -.41314710E+03  EK= 0.30271E+00 SP= 0.00E+00 SK= 0.00E+00
       N       E                     dE             d eps       ncg     rms          rms(c)
RMM:   1    -0.413166608885E+03    0.26544E-02   -0.10393E+01  4298   0.761E-01    0.888E-01
RMM:   2    -0.413172436271E+03   -0.58274E-02   -0.13431E-01  4250   0.102E-01    0.650E-01
RMM:   3    -0.413170080312E+03    0.23560E-02   -0.93757E-03  4825   0.425E-02    0.137E-01
RMM:   4    -0.413196811840E+03   -0.26732E-01   -0.27666E-02  5141   0.138E-01    0.682E-01
RMM:   5    -0.413169604673E+03    0.27207E-01   -0.13372E-02  4807   0.113E-01    0.425E-02
RMM:   6    -0.413169771048E+03   -0.16638E-03   -0.22506E-03  5819   0.445E-02    0.266E-02
RMM:   7    -0.413169778112E+03   -0.70633E-05   -0.30920E-04  5751   0.161E-02    0.169E-02
RMM:   8    -0.413169773978E+03    0.41342E-05   -0.59835E-05  4987   0.794E-03    0.873E-03
RMM:   9    -0.413169771196E+03    0.27814E-05   -0.12475E-05  3953   0.403E-03    0.651E-03
RMM:  10    -0.413169771329E+03   -0.13323E-06   -0.16151E-06  2550   0.201E-03
   18 T=    62. E= -.41286649E+03 F= -.41316977E+03 E0= -.41314765E+03  EK= 0.30328E+00 SP= 0.00E+00 SK= 0.00E+00
       N       E                     dE             d eps       ncg     rms          rms(c)
RMM:   1    -0.413165395315E+03    0.43759E-02   -0.10395E+01  4301   0.736E-01    0.912E-01
RMM:   2    -0.413173117169E+03   -0.77219E-02   -0.12598E-01  4313   0.955E-02    0.645E-01
RMM:   3    -0.413174082068E+03   -0.96490E-03   -0.11940E-02  5112   0.651E-02    0.265E-01
RMM:   4    -0.413205493235E+03   -0.31411E-01   -0.45167E-02  5103   0.178E-01    0.767E-01
RMM:   5    -0.413170903927E+03    0.34589E-01   -0.14951E-02  4737   0.127E-01    0.559E-02
RMM:   6    -0.413171015466E+03   -0.11154E-03   -0.25814E-03  5626   0.497E-02    0.281E-02
RMM:   7    -0.413171022525E+03   -0.70593E-05   -0.37494E-04  5990   0.166E-02    0.179E-02
RMM:   8    -0.413171015919E+03    0.66067E-05   -0.65648E-05  5213   0.852E-03    0.804E-03
RMM:   9    -0.413171008648E+03    0.72701E-05   -0.11017E-05  3584   0.382E-03    0.390E-03
RMM:  10    -0.413171005934E+03    0.27144E-05   -0.23891E-06  2594   0.220E-03    0.271E-03
RMM:  11    -0.413171002175E+03    0.37592E-05   -0.11539E-06  2512   0.171E-03    0.141E-03
RMM:  12    -0.413170998339E+03    0.38359E-05   -0.69381E-07  2447   0.135E-03    0.433E-04
RMM:  13    -0.413170996547E+03    0.17914E-05   -0.33239E-07  2002   0.961E-04    0.281E-04
RMM:  14    -0.413170995104E+03    0.14437E-05   -0.19062E-07  1506   0.772E-04    0.193E-04
RMM:  15    -0.413170992607E+03    0.24967E-05   -0.16111E-07  1362   0.726E-04    0.928E-05
RMM:  16    -0.413170990375E+03    0.22322E-05   -0.12679E-07  1321   0.687E-04    0.104E-04
RMM:  17    -0.413170988014E+03    0.23605E-05   -0.11328E-07  1370   0.660E-04    0.617E-05
RMM:  18    -0.413170986189E+03    0.18256E-05   -0.73771E-08  1096   0.591E-04    0.242E-05
RMM:  19    -0.413170985633E+03    0.55574E-06   -0.34187E-08   837   0.539E-04
   19 T=    62. E= -.41286689E+03 F= -.41317099E+03 E0= -.41314891E+03  EK= 0.30410E+00 SP= 0.00E+00 SK= 0.00E+00
       N       E                     dE             d eps       ncg     rms          rms(c)
RMM:   1    -0.413165735470E+03    0.52507E-02   -0.10333E+01  4295   0.743E-01    0.901E-01
RMM:   2    -0.413173356749E+03   -0.76213E-02   -0.12531E-01  4253   0.948E-02    0.639E-01
RMM:   3    -0.413171929533E+03    0.14272E-02   -0.97574E-03  4958   0.447E-02    0.158E-01
RMM:   4    -0.413209263893E+03   -0.37334E-01   -0.39886E-02  5141   0.166E-01    0.804E-01
RMM:   5    -0.413171107972E+03    0.38156E-01   -0.18490E-02  4790   0.134E-01    0.494E-02
RMM:   6    -0.413171326263E+03   -0.21829E-03   -0.31348E-03  5782   0.533E-02    0.307E-02
RMM:   7    -0.413171326630E+03   -0.36691E-06   -0.43007E-04  5773   0.183E-02    0.199E-02
RMM:   8    -0.413171318094E+03    0.85362E-05   -0.70293E-05  5166   0.859E-03    0.984E-03
RMM:   9    -0.413171311168E+03    0.69262E-05   -0.15072E-05  4129   0.433E-03    0.675E-03
RMM:  10    -0.413171307568E+03    0.35998E-05   -0.21926E-06  2594   0.216E-03    0.439E-03
RMM:  11    -0.413171304208E+03    0.33606E-05   -0.12771E-06  2509   0.180E-03    0.231E-03
RMM:  12    -0.413171299283E+03    0.49245E-05   -0.14481E-06  2527   0.188E-03    0.806E-04
RMM:  13    -0.413171297700E+03    0.15833E-05   -0.47171E-07  2317   0.122E-03    0.601E-04
RMM:  14    -0.413171297846E+03   -0.14657E-06   -0.21684E-07  1821   0.826E-04
   20 T=    62. E= -.41286658E+03 F= -.41317130E+03 E0= -.41314926E+03  EK= 0.30472E+00 SP= 0.00E+00 SK= 0.00E+00
       N       E                     dE             d eps       ncg     rms          rms(c)
RMM:   1    -0.413166517303E+03    0.47804E-02   -0.10376E+01  4294   0.756E-01    0.889E-01
RMM:   2    -0.413175129695E+03   -0.86124E-02   -0.12853E-01  4266   0.971E-02    0.649E-01
RMM:   3    -0.413172766603E+03    0.23631E-02   -0.97445E-03  4872   0.429E-02    0.133E-01
RMM:   4    -0.413201901985E+03   -0.29135E-01   -0.30315E-02  5136   0.145E-01    0.711E-01
RMM:   5    -0.413172253453E+03    0.29649E-01   -0.14597E-02  4800   0.118E-01    0.438E-02
RMM:   6    -0.413172422086E+03   -0.16863E-03   -0.23967E-03  5816   0.466E-02    0.274E-02
RMM:   7    -0.413172427075E+03   -0.49889E-05   -0.33399E-04  5730   0.167E-02    0.174E-02
RMM:   8    -0.413172422201E+03    0.48741E-05   -0.63156E-05  5020   0.814E-03    0.907E-03
RMM:   9    -0.413172418227E+03    0.39739E-05   -0.12887E-05  3984   0.412E-03    0.656E-03
RMM:  10    -0.413172417538E+03    0.68844E-06   -0.17604E-06  2567   0.203E-03
   21 T=    62. E= -.41286673E+03 F= -.41317242E+03 E0= -.41315043E+03  EK= 0.30569E+00 SP= 0.00E+00 SK= 0.00E+00
       N       E                     dE             d eps       ncg     rms          rms(c)
RMM:   1    -0.413168222027E+03    0.41962E-02   -0.10434E+01  4300   0.761E-01    0.909E-01
RMM:   2    -0.413175943331E+03   -0.77213E-02   -0.12728E-01  4313   0.974E-02    0.649E-01
RMM:   3    -0.413176487471E+03   -0.54414E-03   -0.11949E-02  5085   0.652E-02    0.260E-01
RMM:   4    -0.413209970308E+03   -0.33483E-01   -0.47031E-02  5106   0.182E-01    0.787E-01
RMM:   5    -0.413173389803E+03    0.36581E-01   -0.15968E-02  4746   0.130E-01    0.559E-02
RMM:   6    -0.413173505050E+03   -0.11525E-03   -0.27214E-03  5651   0.510E-02    0.283E-02
RMM:   7    -0.413173511888E+03   -0.68372E-05   -0.39155E-04  5972   0.170E-02    0.183E-02
RMM:   8    -0.413173505659E+03    0.62282E-05   -0.68204E-05  5209   0.868E-03    0.827E-03
RMM:   9    -0.413173498434E+03    0.72250E-05   -0.11820E-05  3663   0.395E-03    0.401E-03
RMM:  10    -0.413173495760E+03    0.26749E-05   -0.25259E-06  2610   0.223E-03    0.280E-03
RMM:  11    -0.413173492100E+03    0.36592E-05   -0.11150E-06  2502   0.170E-03    0.143E-03
RMM:  12    -0.413173488159E+03    0.39410E-05   -0.68323E-07  2445   0.137E-03    0.422E-04
RMM:  13    -0.413173486217E+03    0.19428E-05   -0.33939E-07  2035   0.986E-04    0.273E-04
RMM:  14    -0.413173484849E+03    0.13677E-05   -0.18865E-07  1531   0.772E-04    0.182E-04
RMM:  15    -0.413173482300E+03    0.25486E-05   -0.15007E-07  1349   0.722E-04    0.935E-05
RMM:  16    -0.413173479971E+03    0.23297E-05   -0.11751E-07  1324   0.685E-04    0.108E-04
RMM:  17    -0.413173477912E+03    0.20585E-05   -0.90178E-08  1263   0.639E-04    0.628E-05
RMM:  18    -0.413173475716E+03    0.21965E-05   -0.72224E-08  1132   0.602E-04    0.310E-05
RMM:  19    -0.413173475043E+03    0.67228E-06   -0.33450E-08   853   0.544E-04
   22 T=    62. E= -.41286674E+03 F= -.41317348E+03 E0= -.41315153E+03  EK= 0.30674E+00 SP= 0.00E+00 SK= 0.00E+00
       N       E                     dE             d eps       ncg     rms          rms(c)
RMM:   1    -0.413168624253E+03    0.48515E-02   -0.10405E+01  4295   0.752E-01    0.911E-01
RMM:   2    -0.413176508609E+03   -0.78844E-02   -0.12644E-01  4268   0.100E-01    0.643E-01
RMM:   3    -0.413174684141E+03    0.18245E-02   -0.99806E-03  4896   0.471E-02    0.154E-01
RMM:   4    -0.413209821582E+03   -0.35137E-01   -0.37038E-02  5144   0.160E-01    0.780E-01
RMM:   5    -0.413174004265E+03    0.35817E-01   -0.17494E-02  4793   0.130E-01    0.484E-02
RMM:   6    -0.413174207159E+03   -0.20289E-03   -0.30200E-03  5792   0.518E-02    0.308E-02
RMM:   7    -0.413174206390E+03    0.76876E-06   -0.40477E-04  5743   0.182E-02    0.196E-02
RMM:   8    -0.413174196556E+03    0.98344E-05   -0.72669E-05  5133   0.872E-03    0.103E-02
RMM:   9    -0.413174188284E+03    0.82717E-05   -0.14943E-05  4159   0.440E-03    0.720E-03
RMM:  10    -0.413174183431E+03    0.48533E-05   -0.21486E-06  2584   0.220E-03    0.464E-03
RMM:  11    -0.413174178859E+03    0.45714E-05   -0.14361E-06  2519   0.190E-03    0.243E-03
RMM:  12    -0.413174172197E+03    0.66622E-05   -0.15331E-06  2524   0.196E-03    0.857E-04
RMM:  13    -0.413174170361E+03    0.18363E-05   -0.50449E-07  2332   0.126E-03    0.624E-04
RMM:  14    -0.413174170331E+03    0.29569E-07   -0.23121E-07  1857   0.849E-04
   23 T=    63. E= -.41286651E+03 F= -.41317417E+03 E0= -.41315227E+03  EK= 0.30766E+00 SP= 0.00E+00 SK= 0.00E+00
       N       E                     dE             d eps       ncg     rms          rms(c)
RMM:   1    -0.413174766684E+03   -0.59632E-03   -0.10453E+01  4292   0.809E-01    0.890E-01
RMM:   2    -0.413178628164E+03   -0.38615E-02   -0.13965E-01  4271   0.107E-01    0.650E-01
RMM:   3    -0.413175857703E+03    0.27705E-02   -0.92123E-03  4677   0.430E-02    0.139E-01
RMM:   4    -0.413195417398E+03   -0.19560E-01   -0.20066E-02  5144   0.118E-01    0.585E-01
RMM:   5    -0.413175617544E+03    0.19800E-01   -0.98528E-03  4807   0.967E-02    0.398E-02
RMM:   6    -0.413175717273E+03   -0.99729E-04   -0.16531E-03  5830   0.378E-02    0.242E-02
RMM:   7    -0.413175717226E+03    0.47221E-07   -0.20453E-04  5701   0.137E-02    0.126E-02
RMM:   8    -0.413175714311E+03    0.29147E-05   -0.46893E-05  4938   0.694E-03    0.834E-03
RMM:   9    -0.413175709976E+03    0.43349E-05   -0.98994E-06  3769   0.368E-03    0.624E-03
RMM:  10    -0.413175708564E+03    0.14123E-05   -0.13416E-06  2532   0.198E-03    0.401E-03
RMM:  11    -0.413175706278E+03    0.22860E-05   -0.15485E-06  2532   0.199E-03    0.192E-03
RMM:  12    -0.413175703638E+03    0.26394E-05   -0.97953E-07  2442   0.159E-03    0.673E-04
RMM:  13    -0.413175703153E+03    0.48549E-06   -0.33706E-07  2101   0.100E-03
   24 T=    63. E= -.41286683E+03 F= -.41317570E+03 E0= -.41315386E+03  EK= 0.30887E+00 SP= 0.00E+00 SK= 0.00E+00
       N       E                     dE             d eps       ncg     rms          rms(c)
RMM:   1    -0.413178143298E+03   -0.24397E-02   -0.10555E+01  4298   0.824E-01    0.907E-01
RMM:   2    -0.413179443047E+03   -0.12997E-02   -0.13554E-01  4274   0.107E-01    0.655E-01
RMM:   3    -0.413176833866E+03    0.26092E-02   -0.96693E-03  4701   0.433E-02    0.135E-01
RMM:   4    -0.413196299041E+03   -0.19465E-01   -0.19954E-02  5141   0.118E-01    0.584E-01
RMM:   5    -0.413176561875E+03    0.19737E-01   -0.97825E-03  4807   0.965E-02    0.403E-02
RMM:   6    -0.413176656183E+03   -0.94308E-04   -0.16561E-03  5822   0.377E-02    0.241E-02
RMM:   7    -0.413176654160E+03    0.20221E-05   -0.18474E-04  5620   0.130E-02    0.111E-02
RMM:   8    -0.413176649168E+03    0.49927E-05   -0.32258E-05  4749   0.581E-03    0.752E-03
RMM:   9    -0.413176645881E+03    0.32864E-05   -0.63812E-06  3166   0.290E-03    0.559E-03
RMM:  10    -0.413176644558E+03    0.13231E-05   -0.13222E-06  2525   0.187E-03    0.393E-03
RMM:  11    -0.413176640281E+03    0.42774E-05   -0.18818E-06  2556   0.220E-03    0.185E-03
RMM:  12    -0.413176637130E+03    0.31507E-05   -0.96567E-07  2459   0.162E-03    0.103E-03
RMM:  13    -0.413176636475E+03    0.65528E-06   -0.28244E-07  2137   0.972E-04
   25 T=    63. E= -.41286668E+03 F= -.41317664E+03 E0= -.41315484E+03  EK= 0.30995E+00 SP= 0.00E+00 SK= 0.00E+00
       N       E                     dE             d eps       ncg     rms          rms(c)
RMM:   1    -0.413172646585E+03    0.39905E-02   -0.10489E+01  4295   0.770E-01    0.920E-01
RMM:   2    -0.413180199732E+03   -0.75531E-02   -0.12761E-01  4271   0.100E-01    0.648E-01
RMM:   3    -0.413178168389E+03    0.20313E-02   -0.99602E-03  4642   0.431E-02    0.133E-01
RMM:   4    -0.413194031070E+03   -0.15863E-01   -0.16222E-02  5146   0.107E-01    0.528E-01
RMM:   5    -0.413177987986E+03    0.16043E-01   -0.80509E-03  4816   0.869E-02    0.398E-02
RMM:   6    -0.413178043916E+03   -0.55930E-04   -0.13204E-03  5831   0.340E-02    0.232E-02
RMM:   7    -0.413178034241E+03    0.96754E-05   -0.14768E-04  5543   0.122E-02    0.103E-02
RMM:   8    -0.413178026204E+03    0.80372E-05   -0.24004E-05  4477   0.511E-03    0.690E-03
RMM:   9    -0.413178021297E+03    0.49069E-05   -0.35333E-06  2736   0.244E-03    0.465E-03
RMM:  10    -0.413178018559E+03    0.27379E-05   -0.86963E-07  2470   0.156E-03    0.342E-03
RMM:  11    -0.413178008771E+03    0.97879E-05   -0.16482E-06  2527   0.214E-03    0.185E-03
RMM:  12    -0.413178004933E+03    0.38383E-05   -0.70241E-07  2394   0.143E-03    0.974E-04
RMM:  13    -0.413178003646E+03    0.12867E-05   -0.23757E-07  1913   0.877E-04    0.510E-04
RMM:  14    -0.413178000233E+03    0.34129E-05   -0.16557E-07  1679   0.758E-04    0.234E-04
RMM:  15    -0.413177997348E+03    0.28854E-05   -0.10743E-07  1355   0.666E-04    0.220E-04
RMM:  16    -0.413177995131E+03    0.22171E-05   -0.67041E-08  1097   0.600E-04    0.159E-04
RMM:  17    -0.413177991031E+03    0.40996E-05   -0.85856E-08  1269   0.634E-04    0.126E-04
RMM:  18    -0.413177989540E+03    0.14905E-05   -0.38580E-08   891   0.551E-04    0.707E-05
RMM:  19    -0.413177988623E+03    0.91725E-06   -0.22940E-08   779   0.530E-04
   26 T=    63. E= -.41286673E+03 F= -.41317799E+03 E0= -.41315624E+03  EK= 0.31126E+00 SP= 0.00E+00 SK= 0.00E+00
       N       E                     dE             d eps       ncg     rms          rms(c)
RMM:   1    -0.413174162118E+03    0.38274E-02   -0.10451E+01  4291   0.791E-01    0.897E-01
RMM:   2    -0.413182251025E+03   -0.80889E-02   -0.12904E-01  4272   0.103E-01    0.650E-01
RMM:   3    -0.413180085884E+03    0.21651E-02   -0.99371E-03  4759   0.467E-02    0.134E-01
RMM:   4    -0.413205264012E+03   -0.25178E-01   -0.25841E-02  5149   0.134E-01    0.662E-01
RMM:   5    -0.413179703859E+03    0.25560E-01   -0.12797E-02  4809   0.110E-01    0.426E-02
RMM:   6    -0.413179828691E+03   -0.12483E-03   -0.20599E-03  5821   0.434E-02    0.267E-02
RMM:   7    -0.413179828618E+03    0.72447E-07   -0.27265E-04  5731   0.157E-02    0.152E-02
RMM:   8    -0.413179823690E+03    0.49287E-05   -0.59563E-05  4998   0.782E-03    0.918E-03
RMM:   9    -0.413179817890E+03    0.58002E-05   -0.12359E-05  4016   0.408E-03    0.662E-03
RMM:  10    -0.413179815435E+03    0.24547E-05   -0.16213E-06  2555   0.207E-03    0.422E-03
RMM:  11    -0.413179812599E+03    0.28361E-05   -0.13810E-06  2511   0.190E-03    0.210E-03
RMM:  12    -0.413179808870E+03    0.37288E-05   -0.11844E-06  2488   0.173E-03    0.748E-04
RMM:  13    -0.413179807999E+03    0.87135E-06   -0.38814E-07  2189   0.110E-03
   27 T=    64. E= -.41286697E+03 F= -.41317981E+03 E0= -.41315811E+03  EK= 0.31284E+00 SP= 0.00E+00 SK= 0.00E+00
       N       E                     dE             d eps       ncg     rms          rms(c)
RMM:   1    -0.413178966832E+03    0.84204E-03   -0.10599E+01  4291   0.841E-01    0.906E-01
RMM:   2    -0.413183587550E+03   -0.46207E-02   -0.13644E-01  4269   0.111E-01    0.661E-01
RMM:   3    -0.413181052374E+03    0.25352E-02   -0.99762E-03  4515   0.448E-02    0.125E-01
RMM:   4    -0.413190873063E+03   -0.98207E-02   -0.10265E-02  5149   0.852E-02    0.418E-01
RMM:   5    -0.413180944490E+03    0.99286E-02   -0.50235E-03  4823   0.684E-02    0.361E-02
RMM:   6    -0.413180972961E+03   -0.28471E-04   -0.85657E-04  5839   0.271E-02    0.216E-02
RMM:   7    -0.413180976729E+03   -0.37678E-05   -0.19138E-04  5480   0.136E-02    0.148E-02
RMM:   8    -0.413180961393E+03    0.15336E-04   -0.26368E-05  4533   0.611E-03    0.620E-03
RMM:   9    -0.413180959862E+03    0.15303E-05   -0.55068E-06  3087   0.289E-03    0.473E-03
RMM:  10    -0.413180957612E+03    0.22498E-05   -0.12557E-06  2496   0.193E-03    0.271E-03
RMM:  11    -0.413180954972E+03    0.26401E-05   -0.84116E-07  2469   0.155E-03    0.135E-03
RMM:  12    -0.413180952219E+03    0.27537E-05   -0.50186E-07  2293   0.117E-03    0.572E-04
RMM:  13    -0.413180951164E+03    0.10550E-05   -0.21941E-07  1798   0.824E-04    0.282E-04
RMM:  14    -0.413180949874E+03    0.12900E-05   -0.12296E-07  1295   0.690E-04    0.198E-04
RMM:  15    -0.413180946714E+03    0.31597E-05   -0.12837E-07  1360   0.700E-04    0.113E-04
RMM:  16    -0.413180946239E+03    0.47530E-06   -0.46770E-08   890   0.593E-04
   28 T=    64. E= -.41286663E+03 F= -.41318095E+03 E0= -.41315930E+03  EK= 0.31431E+00 SP= 0.00E+00 SK= 0.00E+00
       N       E                     dE             d eps       ncg     rms          rms(c)
RMM:   1    -0.413177665960E+03    0.32808E-02   -0.10596E+01  4293   0.792E-01    0.928E-01
RMM:   2    -0.413185152240E+03   -0.74863E-02   -0.12996E-01  4271   0.106E-01    0.654E-01
RMM:   3    -0.413183113733E+03    0.20385E-02   -0.10461E-02  4658   0.483E-02    0.136E-01
RMM:   4    -0.413201572531E+03   -0.18459E-01   -0.18782E-02  5148   0.114E-01    0.569E-01
RMM:   5    -0.413182881386E+03    0.18691E-01   -0.94431E-03  4814   0.943E-02    0.412E-02
RMM:   6    -0.413182956214E+03   -0.74828E-04   -0.15354E-03  5834   0.372E-02    0.250E-02
RMM:   7    -0.413182951183E+03    0.50308E-05   -0.18980E-04  5571   0.136E-02    0.117E-02
RMM:   8    -0.413182941774E+03    0.94089E-05   -0.29439E-05  4644   0.564E-03    0.738E-03
RMM:   9    -0.413182939132E+03    0.26414E-05   -0.85105E-06  3557   0.327E-03    0.624E-03
RMM:  10    -0.413182934139E+03    0.49932E-05   -0.13549E-06  2540   0.201E-03    0.384E-03
RMM:  11    -0.413182928199E+03    0.59401E-05   -0.13367E-06  2519   0.185E-03    0.198E-03
RMM:  12    -0.413182920776E+03    0.74234E-05   -0.10611E-06  2477   0.168E-03    0.862E-04
RMM:  13    -0.413182919039E+03    0.17367E-05   -0.33880E-07  2178   0.105E-03    0.492E-04
RMM:  14    -0.413182918298E+03    0.74087E-06   -0.15303E-07  1515   0.733E-04
   29 T=    64. E= -.41286677E+03 F= -.41318292E+03 E0= -.41316132E+03  EK= 0.31615E+00 SP= 0.00E+00 SK= 0.00E+00
       N       E                     dE             d eps       ncg     rms          rms(c)
RMM:   1    -0.413179084524E+03    0.38345E-02   -0.10545E+01  4290   0.800E-01    0.907E-01
RMM:   2    -0.413187576703E+03   -0.84922E-02   -0.13111E-01  4266   0.112E-01    0.653E-01
RMM:   3    -0.413184866774E+03    0.27099E-02   -0.10172E-02  4389   0.469E-02    0.122E-01
RMM:   4    -0.413189234556E+03   -0.43678E-02   -0.49535E-03  5143   0.595E-02    0.280E-01
RMM:   5    -0.413184847090E+03    0.43875E-02   -0.22404E-03  4818   0.461E-02    0.353E-02
RMM:   6    -0.413184854705E+03   -0.76151E-05   -0.50122E-04  5732   0.214E-02    0.234E-02
RMM:   7    -0.413184839491E+03    0.15215E-04   -0.18883E-04  5223   0.137E-02    0.142E-02
RMM:   8    -0.413184829326E+03    0.10165E-04   -0.13830E-05  3992   0.501E-03    0.597E-03
RMM:   9    -0.413184827090E+03    0.22357E-05   -0.22627E-06  2605   0.212E-03    0.384E-03
RMM:  10    -0.413184822127E+03    0.49635E-05   -0.11799E-06  2478   0.174E-03    0.191E-03
RMM:  11    -0.413184818508E+03    0.36189E-05   -0.62424E-07  2384   0.130E-03    0.956E-04
RMM:  12    -0.413184814872E+03    0.36361E-05   -0.35210E-07  2121   0.101E-03    0.420E-04
RMM:  13    -0.413184812571E+03    0.23011E-05   -0.17865E-07  1557   0.764E-04    0.225E-04
RMM:  14    -0.413184810158E+03    0.24123E-05   -0.10831E-07  1231   0.678E-04    0.155E-04
RMM:  15    -0.413184806029E+03    0.41294E-05   -0.10581E-07  1359   0.682E-04    0.867E-05
RMM:  16    -0.413184804879E+03    0.11493E-05   -0.46580E-08   932   0.574E-04    0.698E-05
RMM:  17    -0.413184801469E+03    0.34103E-05   -0.64282E-08  1151   0.608E-04    0.370E-05
RMM:  18    -0.413184800323E+03    0.11463E-05   -0.29631E-08   835   0.537E-04    0.209E-05
RMM:  19    -0.413184799886E+03    0.43649E-06   -0.13920E-08   687   0.514E-04
   30 T=    65. E= -.41286680E+03 F= -.41318480E+03 E0= -.41316325E+03  EK= 0.31800E+00 SP= 0.00E+00 SK= 0.00E+00
       N       E                     dE             d eps       ncg     rms          rms(c)
RMM:   1    -0.413186834669E+03   -0.20343E-02   -0.10723E+01  4293   0.867E-01    0.907E-01
RMM:   2    -0.413189966783E+03   -0.31321E-02   -0.14697E-01  4273   0.123E-01    0.668E-01
RMM:   3    -0.413186482431E+03    0.34844E-02   -0.10026E-02  4407   0.512E-02    0.134E-01
RMM:   4    -0.413193207376E+03   -0.67249E-02   -0.73266E-03  5156   0.725E-02    0.345E-01
RMM:   5    -0.413186493515E+03    0.67139E-02   -0.33786E-03  4820   0.566E-02    0.356E-02
RMM:   6    -0.413186512846E+03   -0.19332E-04   -0.62930E-04  5820   0.239E-02    0.227E-02
RMM:   7    -0.413186511234E+03    0.16123E-05   -0.19782E-04  5333   0.139E-02    0.144E-02
RMM:   8    -0.413186498713E+03    0.12521E-04   -0.18743E-05  4320   0.559E-03    0.612E-03
RMM:   9    -0.413186497527E+03    0.11860E-05   -0.32105E-06  2757   0.242E-03    0.410E-03
RMM:  10    -0.413186495513E+03    0.20145E-05   -0.12794E-06  2484   0.181E-03    0.221E-03
RMM:  11    -0.413186493399E+03    0.21142E-05   -0.77193E-07  2445   0.145E-03    0.105E-03
RMM:  12    -0.413186491595E+03    0.18038E-05   -0.40068E-07  2177   0.106E-03    0.510E-04
RMM:  13    -0.413186490568E+03    0.10272E-05   -0.19118E-07  1600   0.772E-04    0.244E-04
RMM:  14    -0.413186489181E+03    0.13862E-05   -0.11554E-07  1212   0.681E-04    0.146E-04
RMM:  15    -0.413186487136E+03    0.20452E-05   -0.93575E-08  1160   0.661E-04    0.763E-05
RMM:  16    -0.413186486237E+03    0.89889E-06   -0.49969E-08   939   0.602E-04
   31 T=    65. E= -.41286659E+03 F= -.41318649E+03 E0= -.41316499E+03  EK= 0.31990E+00 SP= 0.00E+00 SK= 0.00E+00
       N       E                     dE             d eps       ncg     rms          rms(c)
RMM:   1    -0.413184122483E+03    0.23647E-02   -0.10721E+01  4293   0.830E-01    0.934E-01
RMM:   2    -0.413191890436E+03   -0.77680E-02   -0.13390E-01  4281   0.125E-01    0.662E-01
RMM:   3    -0.413189193275E+03    0.26972E-02   -0.10733E-02  4392   0.540E-02    0.129E-01
RMM:   4    -0.413194755228E+03   -0.55620E-02   -0.60908E-03  5158   0.666E-02    0.314E-01
RMM:   5    -0.413189204618E+03    0.55506E-02   -0.28145E-03  4826   0.517E-02    0.371E-02
RMM:   6    -0.413189220528E+03   -0.15909E-04   -0.59076E-04  5765   0.236E-02    0.256E-02
RMM:   7    -0.413189201825E+03    0.18703E-04   -0.21091E-04  5242   0.145E-02    0.143E-02
RMM:   8    -0.413189190476E+03    0.11348E-04   -0.16734E-05  4217   0.532E-03    0.619E-03
RMM:   9    -0.413189187582E+03    0.28941E-05   -0.25163E-06  2665   0.220E-03    0.398E-03
RMM:  10    -0.413189181420E+03    0.61627E-05   -0.11016E-06  2480   0.171E-03    0.207E-03
RMM:  11    -0.413189175902E+03    0.55177E-05   -0.65658E-07  2419   0.133E-03    0.979E-04
RMM:  12    -0.413189171288E+03    0.46136E-05   -0.35194E-07  2091   0.101E-03    0.433E-04
RMM:  13    -0.413189168584E+03    0.27045E-05   -0.18163E-07  1549   0.768E-04    0.224E-04
RMM:  14    -0.413189165495E+03    0.30888E-05   -0.10238E-07  1181   0.672E-04    0.143E-04
RMM:  15    -0.413189160857E+03    0.46383E-05   -0.91307E-08  1237   0.666E-04    0.791E-05
RMM:  16    -0.413189159046E+03    0.18113E-05   -0.50760E-08  1015   0.595E-04    0.710E-05
RMM:  17    -0.413189155635E+03    0.34105E-05   -0.55501E-08  1107   0.602E-04    0.332E-05
RMM:  18    -0.413189153599E+03    0.20365E-05   -0.35730E-08   950   0.561E-04    0.207E-05
RMM:  19    -0.413189153275E+03    0.32375E-06   -0.13488E-08   672   0.516E-04
   32 T=    66. E= -.41286697E+03 F= -.41318915E+03 E0= -.41316770E+03  EK= 0.32218E+00 SP= 0.00E+00 SK= 0.00E+00
       N       E                     dE             d eps       ncg     rms          rms(c)
RMM:   1    -0.413185819139E+03    0.33345E-02   -0.10683E+01  4291   0.843E-01    0.921E-01
RMM:   2    -0.413193817346E+03   -0.79982E-02   -0.13480E-01  4276   0.126E-01    0.658E-01
RMM:   3    -0.413191012338E+03    0.28050E-02   -0.10427E-02  4204   0.487E-02    0.127E-01
RMM:   4    -0.413191144346E+03   -0.13201E-03   -0.10076E-03  4633   0.218E-02    0.362E-02
RMM:   5    -0.413191259178E+03   -0.11483E-03   -0.19553E-04  5086   0.132E-02    0.579E-02
RMM:   6    -0.413191140929E+03    0.11825E-03   -0.21522E-04  5197   0.143E-02    0.274E-02
RMM:   7    -0.413191099875E+03    0.41053E-04   -0.16334E-04  4927   0.128E-02    0.111E-02
RMM:   8    -0.413191097297E+03    0.25788E-05   -0.13507E-05  3866   0.442E-03    0.418E-03
RMM:   9    -0.413191095834E+03    0.14625E-05   -0.19659E-06  2398   0.194E-03    0.180E-03
RMM:  10    -0.413191089201E+03    0.66333E-05   -0.67101E-07  2303   0.132E-03    0.901E-04
RMM:  11    -0.413191084718E+03    0.44831E-05   -0.22000E-07  1601   0.789E-04    0.446E-04
RMM:  12    -0.413191081192E+03    0.35252E-05   -0.10674E-07  1100   0.654E-04    0.238E-04
RMM:  13    -0.413191077826E+03    0.33667E-05   -0.83579E-08  1079   0.633E-04    0.133E-04
RMM:  14    -0.413191073081E+03    0.47448E-05   -0.85191E-08  1167   0.644E-04    0.123E-04
RMM:  15    -0.413191071845E+03    0.12357E-05   -0.24001E-08   611   0.537E-04    0.722E-05
RMM:  16    -0.413191067653E+03    0.41924E-05   -0.49886E-08   941   0.589E-04    0.392E-05
RMM:  17    -0.413191066403E+03    0.12502E-05   -0.22119E-08   683   0.521E-04    0.359E-05
RMM:  18    -0.413191065905E+03    0.49791E-06   -0.97011E-09   495   0.492E-04
   33 T=    66. E= -.41286680E+03 F= -.41319107E+03 E0= -.41316966E+03  EK= 0.32426E+00 SP= 0.00E+00 SK= 0.00E+00
       N       E                     dE             d eps       ncg     rms          rms(c)
RMM:   1    -0.413194537191E+03   -0.34708E-02   -0.10846E+01  4299   0.930E-01    0.913E-01
RMM:   2    -0.413196395498E+03   -0.18583E-02   -0.14943E-01  4278   0.138E-01    0.672E-01
RMM:   3    -0.413193504494E+03    0.28910E-02   -0.10348E-02  4227   0.569E-02    0.131E-01
RMM:   4    -0.413193804331E+03   -0.29984E-03   -0.12972E-03  4954   0.272E-02    0.728E-02
RMM:   5    -0.413193571358E+03    0.23297E-03   -0.18248E-04  4729   0.136E-02    0.364E-02
RMM:   6    -0.413193568040E+03    0.33180E-05   -0.21545E-04  5314   0.146E-02    0.246E-02
RMM:   7    -0.413193545412E+03    0.22628E-04   -0.16330E-04  4810   0.120E-02    0.151E-02
RMM:   8    -0.413193541082E+03    0.43300E-05   -0.13996E-05  3605   0.424E-03    0.507E-03
RMM:   9    -0.413193540606E+03    0.47555E-06   -0.23979E-06  2352   0.196E-03
   34 T=    67. E= -.41286686E+03 F= -.41319354E+03 E0= -.41317219E+03  EK= 0.32669E+00 SP= 0.00E+00 SK= 0.00E+00
       N       E                     dE             d eps       ncg     rms          rms(c)
RMM:   1    -0.413192046945E+03    0.14941E-02   -0.10874E+01  4302   0.887E-01    0.938E-01
RMM:   2    -0.413199010819E+03   -0.69639E-02   -0.13971E-01  4272   0.129E-01    0.672E-01
RMM:   3    -0.413196267549E+03    0.27433E-02   -0.10806E-02  4320   0.552E-02    0.128E-01
RMM:   4    -0.413196864007E+03   -0.59646E-03   -0.15352E-03  5102   0.303E-02    0.102E-01
RMM:   5    -0.413196343997E+03    0.52001E-03   -0.33107E-04  4808   0.186E-02    0.389E-02
RMM:   6    -0.413196328097E+03    0.15900E-04   -0.22937E-04  5344   0.155E-02    0.281E-02
RMM:   7    -0.413196302111E+03    0.25986E-04   -0.18680E-04  4778   0.120E-02    0.163E-02
RMM:   8    -0.413196296329E+03    0.57814E-05   -0.14570E-05  3848   0.445E-03    0.608E-03
RMM:   9    -0.413196294962E+03    0.13672E-05   -0.32500E-06  2436   0.194E-03    0.235E-03
RMM:  10    -0.413196284478E+03    0.10484E-04   -0.11091E-06  2339   0.150E-03    0.723E-04
RMM:  11    -0.413196280056E+03    0.44213E-05   -0.32855E-07  1871   0.931E-04    0.308E-04
RMM:  12    -0.413196276640E+03    0.34164E-05   -0.16922E-07  1473   0.751E-04    0.230E-04
RMM:  13    -0.413196271780E+03    0.48606E-05   -0.10148E-07  1049   0.655E-04    0.117E-04
RMM:  14    -0.413196265057E+03    0.67223E-05   -0.10425E-07  1188   0.669E-04    0.141E-04
RMM:  15    -0.413196260466E+03    0.45915E-05   -0.68583E-08  1050   0.606E-04    0.960E-05
RMM:  16    -0.413196257605E+03    0.28610E-05   -0.43091E-08   836   0.555E-04    0.445E-05
RMM:  17    -0.413196256416E+03    0.11887E-05   -0.19295E-08   592   0.506E-04    0.305E-05
RMM:  18    -0.413196255571E+03    0.84535E-06   -0.14927E-08   556   0.503E-04
   35 T=    67. E= -.41286699E+03 F= -.41319626E+03 E0= -.41317495E+03  EK= 0.32927E+00 SP= 0.00E+00 SK= 0.00E+00
       N       E                     dE             d eps       ncg     rms          rms(c)
RMM:   1    -0.413193708672E+03    0.25477E-02   -0.10863E+01  4297   0.907E-01    0.938E-01
RMM:   2    -0.413200789008E+03   -0.70803E-02   -0.13954E-01  4249   0.130E-01    0.666E-01
RMM:   3    -0.413198455706E+03    0.23333E-02   -0.10980E-02  4576   0.579E-02    0.143E-01
RMM:   4    -0.413215938218E+03   -0.17483E-01   -0.17686E-02  5162   0.112E-01    0.555E-01
RMM:   5    -0.413198344069E+03    0.17594E-01   -0.89108E-03  4810   0.921E-02    0.428E-02
RMM:   6    -0.413198350734E+03   -0.66645E-05   -0.15405E-03  5840   0.373E-02    0.278E-02
RMM:   7    -0.413198354713E+03   -0.39793E-05   -0.28470E-04  5548   0.162E-02    0.171E-02
RMM:   8    -0.413198337356E+03    0.17357E-04   -0.45670E-05  4911   0.758E-03    0.802E-03
RMM:   9    -0.413198334258E+03    0.30971E-05   -0.90337E-06  3587   0.369E-03    0.577E-03
RMM:  10    -0.413198328273E+03    0.59856E-05   -0.13695E-06  2526   0.208E-03    0.330E-03
RMM:  11    -0.413198322817E+03    0.54561E-05   -0.93698E-07  2492   0.160E-03    0.179E-03
RMM:  12    -0.413198314881E+03    0.79360E-05   -0.90873E-07  2472   0.153E-03    0.853E-04
RMM:  13    -0.413198311646E+03    0.32345E-05   -0.34309E-07  2150   0.103E-03    0.464E-04
RMM:  14    -0.413198310477E+03    0.11694E-05   -0.15608E-07  1486   0.734E-04    0.329E-04
RMM:  15    -0.413198306383E+03    0.40935E-05   -0.10273E-07  1263   0.683E-04    0.132E-04
RMM:  16    -0.413198303736E+03    0.26473E-05   -0.65074E-08  1074   0.631E-04    0.843E-05
RMM:  17    -0.413198300857E+03    0.28792E-05   -0.50927E-08  1043   0.610E-04    0.103E-04
RMM:  18    -0.413198296965E+03    0.38923E-05   -0.52152E-08  1147   0.608E-04    0.709E-05
RMM:  19    -0.413198295635E+03    0.13298E-05   -0.23598E-08   791   0.542E-04    0.377E-05
RMM:  20    -0.413198295376E+03    0.25847E-06   -0.14095E-08   685   0.525E-04
   36 T=    68. E= -.41286665E+03 F= -.41319830E+03 E0= -.41317703E+03  EK= 0.33165E+00 SP= 0.00E+00 SK= 0.00E+00
       N       E                     dE             d eps       ncg     rms          rms(c)
RMM:   1    -0.413217338036E+03   -0.19042E-01   -0.11131E+01  4301   0.109E+00    0.921E-01
RMM:   2    -0.413204720872E+03    0.12617E-01   -0.16250E-01  4250   0.143E-01    0.678E-01
RMM:   3    -0.413201648670E+03    0.30722E-02   -0.10293E-02  4700   0.581E-02    0.166E-01
RMM:   4    -0.413231888808E+03   -0.30240E-01   -0.30766E-02  5159   0.147E-01    0.725E-01
RMM:   5    -0.413201326435E+03    0.30562E-01   -0.15470E-02  4800   0.121E-01    0.470E-02
RMM:   6    -0.413201369671E+03   -0.43236E-04   -0.25030E-03  5862   0.473E-02    0.293E-02
RMM:   7    -0.413201377497E+03   -0.78260E-05   -0.29693E-04  5659   0.161E-02    0.145E-02
RMM:   8    -0.413201371503E+03    0.59943E-05   -0.45183E-05  4853   0.693E-03    0.841E-03
RMM:   9    -0.413201371709E+03   -0.20668E-06   -0.17446E-05  4337   0.439E-03    0.715E-03
RMM:  10    -0.413201367027E+03    0.46825E-05   -0.27200E-06  2675   0.252E-03    0.411E-03
RMM:  11    -0.413201364570E+03    0.24565E-05   -0.15055E-06  2520   0.192E-03    0.249E-03
RMM:  12    -0.413201358946E+03    0.56249E-05   -0.17844E-06  2543   0.214E-03    0.114E-03
RMM:  13    -0.413201356891E+03    0.20548E-05   -0.53781E-07  2359   0.134E-03    0.685E-04
RMM:  14    -0.413201356798E+03    0.93161E-07   -0.22313E-07  1874   0.848E-04
   37 T=    68. E= -.41286697E+03 F= -.41320136E+03 E0= -.41318014E+03  EK= 0.33438E+00 SP= 0.00E+00 SK= 0.00E+00
       N       E                     dE             d eps       ncg     rms          rms(c)
RMM:   1    -0.413212671520E+03   -0.11315E-01   -0.11165E+01  4305   0.107E+00    0.941E-01
RMM:   2    -0.413207293072E+03    0.53784E-02   -0.15757E-01  4251   0.133E-01    0.683E-01
RMM:   3    -0.413204079220E+03    0.32139E-02   -0.10832E-02  4780   0.547E-02    0.167E-01
RMM:   4    -0.413238624124E+03   -0.34545E-01   -0.35393E-02  5150   0.157E-01    0.774E-01
RMM:   5    -0.413203652074E+03    0.34972E-01   -0.17746E-02  4803   0.129E-01    0.493E-02
RMM:   6    -0.413203709817E+03   -0.57743E-04   -0.28056E-03  5843   0.503E-02    0.307E-02
RMM:   7    -0.413203719175E+03   -0.93584E-05   -0.35151E-04  5721   0.172E-02    0.160E-02
RMM:   8    -0.413203710695E+03    0.84797E-05   -0.58708E-05  5010   0.782E-03    0.951E-03
RMM:   9    -0.413203708679E+03    0.20169E-05   -0.20633E-05  4520   0.487E-03    0.701E-03
RMM:  10    -0.413203702688E+03    0.59907E-05   -0.26790E-06  2642   0.256E-03    0.410E-03
RMM:  11    -0.413203699008E+03    0.36799E-05   -0.13299E-06  2495   0.187E-03    0.247E-03
RMM:  12    -0.413203690588E+03    0.84203E-05   -0.16236E-06  2525   0.209E-03    0.113E-03
RMM:  13    -0.413203687104E+03    0.34839E-05   -0.57859E-07  2370   0.136E-03    0.763E-04
RMM:  14    -0.413203686985E+03    0.11906E-06   -0.23540E-07  1926   0.874E-04
   38 T=    69. E= -.41286676E+03 F= -.41320369E+03 E0= -.41318251E+03  EK= 0.33693E+00 SP= 0.00E+00 SK= 0.00E+00
       N       E                     dE             d eps       ncg     rms          rms(c)
RMM:   1    -0.413203699095E+03   -0.11992E-04   -0.11069E+01  4303   0.101E+00    0.955E-01
RMM:   2    -0.413209483537E+03   -0.57844E-02   -0.14550E-01  4250   0.123E-01    0.676E-01
RMM:   3    -0.413207064785E+03    0.24188E-02   -0.11643E-02  4972   0.559E-02    0.183E-01
RMM:   4    -0.413252750746E+03   -0.45686E-01   -0.49010E-02  5134   0.184E-01    0.887E-01
RMM:   5    -0.413206204837E+03    0.46546E-01   -0.23085E-02  4787   0.149E-01    0.553E-02
RMM:   6    -0.413206315687E+03   -0.11085E-03   -0.37611E-03  5829   0.578E-02    0.333E-02
RMM:   7    -0.413206325383E+03   -0.96953E-05   -0.43303E-04  5716   0.189E-02    0.176E-02
RMM:   8    -0.413206317875E+03    0.75075E-05   -0.61310E-05  4960   0.763E-03    0.968E-03
RMM:   9    -0.413206310464E+03    0.74111E-05   -0.20224E-05  4434   0.465E-03    0.709E-03
RMM:  10    -0.413206305178E+03    0.52863E-05   -0.48589E-06  2974   0.292E-03    0.428E-03
RMM:  11    -0.413206299222E+03    0.59562E-05   -0.16287E-06  2509   0.211E-03    0.256E-03
RMM:  12    -0.413206287030E+03    0.12192E-04   -0.15741E-06  2506   0.211E-03    0.932E-04
RMM:  13    -0.413206282634E+03    0.43961E-05   -0.55128E-07  2397   0.136E-03    0.754E-04
RMM:  14    -0.413206282587E+03    0.46890E-07   -0.24085E-07  1997   0.888E-04
   39 T=    69. E= -.41286670E+03 F= -.41320628E+03 E0= -.41318514E+03  EK= 0.33959E+00 SP= 0.00E+00 SK= 0.00E+00
       N       E                     dE             d eps       ncg     rms          rms(c)
RMM:   1    -0.413223489609E+03   -0.17207E-01   -0.11243E+01  4309   0.117E+00    0.932E-01
RMM:   2    -0.413213096133E+03    0.10393E-01   -0.16306E-01  4258   0.132E-01    0.683E-01
RMM:   3    -0.413210369464E+03    0.27267E-02   -0.11066E-02  5005   0.572E-02    0.206E-01
RMM:   4    -0.413262991987E+03   -0.52623E-01   -0.57647E-02  5130   0.200E-01    0.951E-01
RMM:   5    -0.413209148185E+03    0.53844E-01   -0.26533E-02  4787   0.160E-01    0.581E-02
RMM:   6    -0.413209294218E+03   -0.14603E-03   -0.42871E-03  5821   0.617E-02    0.338E-02
RMM:   7    -0.413209309058E+03   -0.14840E-04   -0.50407E-04  5813   0.199E-02    0.197E-02
RMM:   8    -0.413209309609E+03   -0.55115E-06   -0.10780E-04  5242   0.100E-02    0.129E-02
RMM:   9    -0.413209297099E+03    0.12510E-04   -0.28109E-05  4724   0.590E-03    0.686E-03
RMM:  10    -0.413209292485E+03    0.46144E-05   -0.46621E-06  2833   0.293E-03    0.425E-03
RMM:  11    -0.413209288616E+03    0.38688E-05   -0.16145E-06  2503   0.208E-03    0.252E-03
RMM:  12    -0.413209281172E+03    0.74435E-05   -0.14001E-06  2502   0.198E-03    0.862E-04
RMM:  13    -0.413209277403E+03    0.37698E-05   -0.59730E-07  2396   0.136E-03    0.609E-04
RMM:  14    -0.413209276550E+03    0.85248E-06   -0.26490E-07  1985   0.911E-04
   40 T=    70. E= -.41286691E+03 F= -.41320928E+03 E0= -.41318817E+03  EK= 0.34237E+00 SP= 0.00E+00 SK= 0.00E+00
       N       E                     dE             d eps       ncg     rms          rms(c)
RMM:   1    -0.413230838369E+03   -0.21561E-01   -0.11423E+01  4308   0.122E+00    0.944E-01
RMM:   2    -0.413215327017E+03    0.15511E-01   -0.17968E-01  4266   0.143E-01    0.695E-01
RMM:   3    -0.413213154082E+03    0.21729E-02   -0.11290E-02  5044   0.619E-02    0.248E-01
RMM:   4    -0.413270664326E+03   -0.57510E-01   -0.66066E-02  5126   0.214E-01    0.997E-01
RMM:   5    -0.413211238063E+03    0.59426E-01   -0.28812E-02  4776   0.168E-01    0.623E-02
RMM:   6    -0.413211398913E+03   -0.16085E-03   -0.47351E-03  5801   0.648E-02    0.349E-02
RMM:   7    -0.413211416818E+03   -0.17904E-04   -0.58097E-04  5858   0.211E-02    0.226E-02
RMM:   8    -0.413211416628E+03    0.18940E-06   -0.13113E-04  5275   0.112E-02    0.140E-02
RMM:   9    -0.413211402673E+03    0.13955E-04   -0.27390E-05  4667   0.612E-03    0.626E-03
RMM:  10    -0.413211398571E+03    0.41023E-05   -0.60374E-06  3031   0.304E-03    0.395E-03
RMM:  11    -0.413211395071E+03    0.34997E-05   -0.15298E-06  2506   0.204E-03    0.231E-03
RMM:  12    -0.413211388865E+03    0.62066E-05   -0.11313E-06  2487   0.180E-03    0.756E-04
RMM:  13    -0.413211385376E+03    0.34889E-05   -0.53694E-07  2380   0.127E-03    0.468E-04
RMM:  14    -0.413211384179E+03    0.11964E-05   -0.25541E-07  1959   0.891E-04    0.323E-04
RMM:  15    -0.413211381574E+03    0.26058E-05   -0.14237E-07  1430   0.723E-04    0.144E-04
RMM:  16    -0.413211378150E+03    0.34233E-05   -0.10199E-07  1216   0.676E-04    0.123E-04
RMM:  17    -0.413211376144E+03    0.20063E-05   -0.63897E-08  1057   0.630E-04    0.764E-05
RMM:  18    -0.413211373334E+03    0.28099E-05   -0.60013E-08  1175   0.634E-04    0.570E-05
RMM:  19    -0.413211371346E+03    0.19880E-05   -0.39655E-08  1026   0.594E-04    0.364E-05
RMM:  20    -0.413211370601E+03    0.74483E-06   -0.24458E-08   870   0.558E-04
   41 T=    70. E= -.41286662E+03 F= -.41321137E+03 E0= -.41319030E+03  EK= 0.34475E+00 SP= 0.00E+00 SK= 0.00E+00
       N       E                     dE             d eps       ncg     rms          rms(c)
RMM:   1    -0.413222399756E+03   -0.11028E-01   -0.11337E+01  4309   0.121E+00    0.969E-01
RMM:   2    -0.413217218947E+03    0.51808E-02   -0.15079E-01  4284   0.134E-01    0.686E-01
RMM:   3    -0.413217559625E+03   -0.34068E-03   -0.14446E-02  5076   0.754E-02    0.291E-01
RMM:   4    -0.413254775093E+03   -0.37215E-01   -0.52864E-02  5092   0.193E-01    0.833E-01
RMM:   5    -0.413213957914E+03    0.40817E-01   -0.18167E-02  4742   0.139E-01    0.590E-02
RMM:   6    -0.413214021398E+03   -0.63484E-04   -0.32012E-03  5759   0.537E-02    0.341E-02
RMM:   7    -0.413214026516E+03   -0.51178E-05   -0.45078E-04  5750   0.193E-02    0.219E-02
RMM:   8    -0.413214021744E+03    0.47720E-05   -0.11912E-04  5201   0.111E-02    0.124E-02
RMM:   9    -0.413214007576E+03    0.14168E-04   -0.20208E-05  4444   0.558E-03    0.518E-03
RMM:  10    -0.413214002250E+03    0.53255E-05   -0.43284E-06  2855   0.266E-03    0.328E-03
RMM:  11    -0.413213996937E+03    0.53128E-05   -0.12005E-06  2494   0.186E-03    0.178E-03
RMM:  12    -0.413213988823E+03    0.81148E-05   -0.79471E-07  2460   0.154E-03    0.663E-04
RMM:  13    -0.413213984323E+03    0.44991E-05   -0.38437E-07  2195   0.109E-03    0.336E-04
RMM:  14    -0.413213982257E+03    0.20661E-05   -0.20148E-07  1725   0.807E-04    0.228E-04
RMM:  15    -0.413213977322E+03    0.49353E-05   -0.12657E-07  1336   0.712E-04    0.125E-04
RMM:  16    -0.413213974323E+03    0.29989E-05   -0.82521E-08  1162   0.655E-04    0.103E-04
RMM:  17    -0.413213971175E+03    0.31483E-05   -0.67402E-08  1191   0.643E-04    0.737E-05
RMM:  18    -0.413213968414E+03    0.27613E-05   -0.49409E-08  1080   0.608E-04    0.462E-05
RMM:  19    -0.413213965822E+03    0.25917E-05   -0.41706E-08  1083   0.594E-04    0.351E-05
RMM:  20    -0.413213965507E+03    0.31442E-06   -0.18253E-08   753   0.538E-04
   42 T=    71. E= -.41286686E+03 F= -.41321397E+03 E0= -.41319293E+03  EK= 0.34711E+00 SP= 0.00E+00 SK= 0.00E+00
       N       E                     dE             d eps       ncg     rms          rms(c)
RMM:   1    -0.413240082783E+03   -0.26117E-01   -0.11438E+01  4309   0.136E+00    0.946E-01
RMM:   2    -0.413219510399E+03    0.20572E-01   -0.16598E-01  4289   0.148E-01    0.687E-01
RMM:   3    -0.413220621031E+03   -0.11106E-02   -0.14505E-02  5083   0.811E-02    0.326E-01
RMM:   4    -0.413255872698E+03   -0.35252E-01   -0.54029E-02  5088   0.196E-01    0.823E-01
RMM:   5    -0.413216065334E+03    0.39807E-01   -0.17408E-02  4726   0.137E-01    0.597E-02
RMM:   6    -0.413216120906E+03   -0.55573E-04   -0.30698E-03  5751   0.528E-02    0.336E-02
RMM:   7    -0.413216125293E+03   -0.43870E-05   -0.43873E-04  5776   0.190E-02    0.222E-02
RMM:   8    -0.413216120697E+03    0.45965E-05   -0.11636E-04  5194   0.110E-02    0.118E-02
RMM:   9    -0.413216108419E+03    0.12278E-04   -0.20245E-05  4446   0.558E-03    0.466E-03
RMM:  10    -0.413216104842E+03    0.35771E-05   -0.40645E-06  2806   0.258E-03    0.296E-03
RMM:  11    -0.413216100638E+03    0.42035E-05   -0.12485E-06  2492   0.185E-03    0.159E-03
RMM:  12    -0.413216095124E+03    0.55147E-05   -0.72773E-07  2442   0.146E-03    0.588E-04
RMM:  13    -0.413216091946E+03    0.31778E-05   -0.35981E-07  2071   0.102E-03    0.285E-04
RMM:  14    -0.413216089864E+03    0.20817E-05   -0.19718E-07  1582   0.791E-04    0.184E-04
RMM:  15    -0.413216085675E+03    0.41899E-05   -0.14230E-07  1319   0.723E-04    0.113E-04
RMM:  16    -0.413216083703E+03    0.19713E-05   -0.89518E-08  1161   0.663E-04    0.800E-05
RMM:  17    -0.413216081052E+03    0.26512E-05   -0.77540E-08  1253   0.654E-04    0.534E-05
RMM:  18    -0.413216078831E+03    0.22211E-05   -0.54609E-08  1092   0.609E-04    0.351E-05
RMM:  19    -0.413216077166E+03    0.16653E-05   -0.37066E-08   949   0.574E-04    0.222E-05
RMM:  20    -0.413216076784E+03    0.38162E-06   -0.19327E-08   741   0.541E-04
   43 T=    71. E= -.41286699E+03 F= -.41321608E+03 E0= -.41319506E+03  EK= 0.34909E+00 SP= 0.00E+00 SK= 0.00E+00
       N       E                     dE             d eps       ncg     rms          rms(c)
RMM:   1    -0.413235614051E+03   -0.19537E-01   -0.11485E+01  4311   0.138E+00    0.948E-01
RMM:   2    -0.413221215456E+03    0.14399E-01   -0.17272E-01  4292   0.163E-01    0.701E-01
RMM:   3    -0.413223151436E+03   -0.19360E-02   -0.15740E-02  5075   0.897E-02    0.359E-01
RMM:   4    -0.413256160117E+03   -0.33009E-01   -0.55208E-02  5067   0.200E-01    0.812E-01
RMM:   5    -0.413217437826E+03    0.38722E-01   -0.16460E-02  4716   0.135E-01    0.602E-02
RMM:   6    -0.413217475404E+03   -0.37579E-04   -0.29216E-03  5727   0.516E-02    0.332E-02
RMM:   7    -0.413217475982E+03   -0.57761E-06   -0.40911E-04  5791   0.187E-02    0.222E-02
RMM:   8    -0.413217472087E+03    0.38945E-05   -0.10872E-04  5167   0.108E-02    0.112E-02
RMM:   9    -0.413217461597E+03    0.10491E-04   -0.20040E-05  4425   0.555E-03    0.436E-03
RMM:  10    -0.413217459226E+03    0.23708E-05   -0.37370E-06  2771   0.250E-03    0.270E-03
RMM:  11    -0.413217456014E+03    0.32118E-05   -0.13587E-06  2512   0.185E-03    0.148E-03
RMM:  12    -0.413217452245E+03    0.37693E-05   -0.69629E-07  2432   0.140E-03    0.573E-04
RMM:  13    -0.413217449937E+03    0.23080E-05   -0.34810E-07  1965   0.975E-04    0.270E-04
RMM:  14    -0.413217448052E+03    0.18852E-05   -0.20100E-07  1500   0.779E-04    0.165E-04
RMM:  15    -0.413217444814E+03    0.32372E-05   -0.15677E-07  1309   0.725E-04    0.991E-05
RMM:  16    -0.413217443157E+03    0.16571E-05   -0.95682E-08  1134   0.663E-04    0.718E-05
RMM:  17    -0.413217440811E+03    0.23459E-05   -0.83955E-08  1239   0.658E-04    0.471E-05
RMM:  18    -0.413217439102E+03    0.17094E-05   -0.58125E-08  1099   0.611E-04    0.399E-05
RMM:  19    -0.413217438003E+03    0.10991E-05   -0.36586E-08   923   0.566E-04    0.189E-05
RMM:  20    -0.413217437519E+03    0.48417E-06   -0.21088E-08   759   0.540E-04
   44 T=    71. E= -.41286678E+03 F= -.41321744E+03 E0= -.41319645E+03  EK= 0.35066E+00 SP= 0.00E+00 SK= 0.00E+00
       N       E                     dE             d eps       ncg     rms          rms(c)
RMM:   1    -0.413244973096E+03   -0.27535E-01   -0.11556E+01  4308   0.150E+00    0.975E-01
RMM:   2    -0.413222222199E+03    0.22751E-01   -0.16864E-01  4322   0.169E-01    0.696E-01
RMM:   3    -0.413229177389E+03   -0.69552E-02   -0.20008E-02  5124   0.108E-01    0.456E-01
RMM:   4    -0.413242216440E+03   -0.13039E-01   -0.44200E-02  5039   0.182E-01    0.636E-01
RMM:   5    -0.413219211370E+03    0.23005E-01   -0.86580E-03  4640   0.107E-01    0.562E-02
RMM:   6    -0.413219186352E+03    0.25018E-04   -0.17604E-03  5566   0.406E-02    0.321E-02
RMM:   7    -0.413219180433E+03    0.59190E-05   -0.29791E-04  5611   0.167E-02    0.213E-02
RMM:   8    -0.413219170683E+03    0.97501E-05   -0.10884E-04  5071   0.109E-02    0.995E-03
RMM:   9    -0.413219157367E+03    0.13317E-04   -0.15177E-05  4238   0.530E-03    0.408E-03
RMM:  10    -0.413219153387E+03    0.39801E-05   -0.25853E-06  2681   0.224E-03    0.236E-03
RMM:  11    -0.413219146994E+03    0.63926E-05   -0.11228E-06  2477   0.174E-03    0.128E-03
RMM:  12    -0.413219140727E+03    0.62672E-05   -0.57099E-07  2409   0.131E-03    0.585E-04
RMM:  13    -0.413219137204E+03    0.35225E-05   -0.26629E-07  1823   0.891E-04    0.287E-04
RMM:  14    -0.413219133853E+03    0.33516E-05   -0.15140E-07  1353   0.718E-04    0.156E-04
RMM:  15    -0.413219128575E+03    0.52781E-05   -0.12493E-07  1297   0.696E-04    0.124E-04
RMM:  16    -0.413219126145E+03    0.24298E-05   -0.74626E-08  1060   0.631E-04    0.933E-05
RMM:  17    -0.413219121562E+03    0.45828E-05   -0.81390E-08  1335   0.657E-04    0.675E-05
RMM:  18    -0.413219119473E+03    0.20890E-05   -0.47422E-08  1050   0.578E-04    0.415E-05
RMM:  19    -0.413219118452E+03    0.10205E-05   -0.26581E-08   799   0.529E-04    0.253E-05
RMM:  20    -0.413219117957E+03    0.49512E-06   -0.18764E-08   732   0.519E-04
   45 T=    72. E= -.41286709E+03 F= -.41321912E+03 E0= -.41319815E+03  EK= 0.35203E+00 SP= 0.00E+00 SK= 0.00E+00
       N       E                     dE             d eps       ncg     rms          rms(c)
RMM:   1    -0.413256199100E+03   -0.37081E-01   -0.11556E+01  4310   0.162E+00    0.957E-01
RMM:   2    -0.413222517493E+03    0.33682E-01   -0.17920E-01  4347   0.184E-01    0.692E-01
RMM:   3    -0.413231985564E+03   -0.94681E-02   -0.21422E-02  5124   0.117E-01    0.510E-01
RMM:   4    -0.413238745544E+03   -0.67600E-02   -0.42777E-02  5021   0.180E-01    0.588E-01
RMM:   5    -0.413219456360E+03    0.19289E-01   -0.71830E-03  4601   0.101E-01    0.557E-02
RMM:   6    -0.413219410949E+03    0.45411E-04   -0.14164E-03  5437   0.371E-02    0.310E-02
RMM:   7    -0.413219404607E+03    0.63423E-05   -0.24585E-04  5582   0.154E-02    0.208E-02
RMM:   8    -0.413219395804E+03    0.88023E-05   -0.11759E-04  5089   0.112E-02    0.995E-03
RMM:   9    -0.413219382254E+03    0.13551E-04   -0.15868E-05  4291   0.548E-03    0.406E-03
RMM:  10    -0.413219379115E+03    0.31386E-05   -0.26668E-06  2688   0.221E-03    0.232E-03
RMM:  11    -0.413219373130E+03    0.59848E-05   -0.12435E-06  2489   0.179E-03    0.126E-03
RMM:  12    -0.413219368375E+03    0.47553E-05   -0.55973E-07  2411   0.131E-03    0.654E-04
RMM:  13    -0.413219364967E+03    0.34080E-05   -0.26225E-07  1771   0.886E-04    0.320E-04
RMM:  14    -0.413219361626E+03    0.33405E-05   -0.14769E-07  1317   0.710E-04    0.168E-04
RMM:  15    -0.413219357493E+03    0.41338E-05   -0.11480E-07  1235   0.676E-04    0.120E-04
RMM:  16    -0.413219355084E+03    0.24085E-05   -0.73746E-08  1083   0.625E-04    0.102E-04
RMM:  17    -0.413219351615E+03    0.34695E-05   -0.69883E-08  1212   0.629E-04    0.602E-05
RMM:  18    -0.413219349093E+03    0.25220E-05   -0.49170E-08  1065   0.582E-04    0.470E-05
RMM:  19    -0.413219348371E+03    0.72143E-06   -0.23187E-08   761   0.525E-04
   46 T=    72. E= -.41286688E+03 F= -.41321935E+03 E0= -.41319840E+03  EK= 0.35247E+00 SP= 0.00E+00 SK= 0.00E+00
       N       E                     dE             d eps       ncg     rms          rms(c)
RMM:   1    -0.413242443683E+03   -0.23095E-01   -0.11441E+01  4310   0.164E+00    0.945E-01
RMM:   2    -0.413222648870E+03    0.19795E-01   -0.18793E-01  4340   0.197E-01    0.706E-01
RMM:   3    -0.413232669599E+03   -0.10021E-01   -0.22039E-02  5117   0.124E-01    0.532E-01
RMM:   4    -0.413239752272E+03   -0.70827E-02   -0.45813E-02  5019   0.187E-01    0.607E-01
RMM:   5    -0.413219027227E+03    0.20725E-01   -0.77531E-03  4591   0.105E-01    0.576E-02
RMM:   6    -0.413218972817E+03    0.54410E-04   -0.14898E-03  5427   0.382E-02    0.312E-02
RMM:   7    -0.413218966691E+03    0.61259E-05   -0.25375E-04  5641   0.156E-02    0.217E-02
RMM:   8    -0.413218957682E+03    0.90089E-05   -0.12003E-04  5111   0.113E-02    0.101E-02
RMM:   9    -0.413218945349E+03    0.12333E-04   -0.17497E-05  4347   0.568E-03    0.408E-03
RMM:  10    -0.413218943230E+03    0.21184E-05   -0.29188E-06  2715   0.225E-03    0.234E-03
RMM:  11    -0.413218939263E+03    0.39672E-05   -0.14119E-06  2509   0.186E-03    0.133E-03
RMM:  12    -0.413218936296E+03    0.29671E-05   -0.59419E-07  2430   0.134E-03    0.700E-04
RMM:  13    -0.413218933712E+03    0.25840E-05   -0.30017E-07  1810   0.922E-04    0.337E-04
RMM:  14    -0.413218931253E+03    0.24589E-05   -0.17352E-07  1369   0.739E-04    0.175E-04
RMM:  15    -0.413218928555E+03    0.26977E-05   -0.13407E-07  1266   0.692E-04    0.113E-04
RMM:  16    -0.413218926656E+03    0.18998E-05   -0.86973E-08  1126   0.639E-04    0.979E-05
RMM:  17    -0.413218924104E+03    0.25518E-05   -0.87057E-08  1315   0.648E-04    0.592E-05
RMM:  18    -0.413218922377E+03    0.17267E-05   -0.47406E-08   957   0.570E-04    0.394E-05
RMM:  19    -0.413218921796E+03    0.58120E-06   -0.26001E-08   776   0.532E-04
   47 T=    72. E= -.41286684E+03 F= -.41321892E+03 E0= -.41319799E+03  EK= 0.35209E+00 SP= 0.00E+00 SK= 0.00E+00
       N       E                     dE             d eps       ncg     rms          rms(c)
RMM:   1    -0.413251025931E+03   -0.32104E-01   -0.11463E+01  4305   0.178E+00    0.969E-01
RMM:   2    -0.413221043256E+03    0.29983E-01   -0.18411E-01  4415   0.204E-01    0.701E-01
RMM:   3    -0.413238802227E+03   -0.17759E-01   -0.28972E-02  5141   0.145E-01    0.643E-01
RMM:   4    -0.413230173647E+03    0.86286E-02   -0.41604E-02  4982   0.182E-01    0.481E-01
RMM:   5    -0.413217847728E+03    0.12326E-01   -0.47370E-03  4523   0.907E-02    0.568E-02
RMM:   6    -0.413217743564E+03    0.10416E-03   -0.68325E-04  4904   0.296E-02    0.300E-02
RMM:   7    -0.413217727648E+03    0.15916E-04   -0.16578E-04  5878   0.126E-02    0.123E-02
RMM:   8    -0.413217718250E+03    0.93981E-05   -0.42219E-05  5151   0.783E-03    0.748E-03
RMM:   9    -0.413217713839E+03    0.44107E-05   -0.73898E-06  3288   0.348E-03    0.322E-03
RMM:  10    -0.413217709919E+03    0.39198E-05   -0.22562E-06  2592   0.229E-03    0.220E-03
RMM:  11    -0.413217705297E+03    0.46218E-05   -0.14206E-06  2463   0.198E-03    0.150E-03
RMM:  12    -0.413217701461E+03    0.38365E-05   -0.50647E-07  2377   0.135E-03    0.848E-04
RMM:  13    -0.413217697903E+03    0.35576E-05   -0.24175E-07  1847   0.873E-04    0.459E-04
RMM:  14    -0.413217692178E+03    0.57251E-05   -0.22514E-07  1785   0.826E-04    0.472E-04
RMM:  15    -0.413217689005E+03    0.31733E-05   -0.98761E-08  1033   0.606E-04    0.183E-04
RMM:  16    -0.413217686303E+03    0.27021E-05   -0.71440E-08   978   0.598E-04    0.102E-04
RMM:  17    -0.413217683016E+03    0.32869E-05   -0.68354E-08  1085   0.606E-04    0.125E-04
RMM:  18    -0.413217682290E+03    0.72555E-06   -0.28514E-08   749   0.536E-04
   48 T=    71. E= -.41286709E+03 F= -.41321768E+03 E0= -.41319676E+03  EK= 0.35059E+00 SP= 0.00E+00 SK= 0.00E+00
       N       E                     dE             d eps       ncg     rms          rms(c)
RMM:   1    -0.413253193137E+03   -0.35510E-01   -0.11314E+01  4303   0.191E+00    0.960E-01
RMM:   2    -0.413217532978E+03    0.35660E-01   -0.18426E-01  4464   0.216E-01    0.691E-01
RMM:   3    -0.413241892905E+03   -0.24360E-01   -0.34408E-02  5157   0.161E-01    0.728E-01
RMM:   4    -0.413222930808E+03    0.18962E-01   -0.40588E-02  4958   0.183E-01    0.412E-01
RMM:   5    -0.413214501030E+03    0.84298E-02   -0.43068E-03  4586   0.881E-02    0.627E-02
RMM:   6    -0.413214333218E+03    0.16781E-03   -0.47021E-04  4695   0.286E-02    0.327E-02
RMM:   7    -0.413214338650E+03   -0.54312E-05   -0.27953E-04  5755   0.173E-02    0.235E-02
RMM:   8    -0.413214304461E+03    0.34189E-04   -0.99810E-05  5020   0.113E-02    0.893E-03
RMM:   9    -0.413214297086E+03    0.73750E-05   -0.17243E-05  4570   0.534E-03    0.466E-03
RMM:  10    -0.413214292676E+03    0.44099E-05   -0.22054E-06  2614   0.235E-03    0.255E-03
RMM:  11    -0.413214286332E+03    0.63437E-05   -0.12684E-06  2498   0.184E-03    0.171E-03
RMM:  12    -0.413214282588E+03    0.37442E-05   -0.40951E-07  2376   0.118E-03    0.882E-04
RMM:  13    -0.413214277558E+03    0.50300E-05   -0.28690E-07  1964   0.896E-04    0.435E-04
RMM:  14    -0.413214272350E+03    0.52079E-05   -0.21300E-07  1717   0.783E-04    0.373E-04
RMM:  15    -0.413214267787E+03    0.45628E-05   -0.12722E-07  1178   0.651E-04    0.147E-04
RMM:  16    -0.413214265259E+03    0.25286E-05   -0.77052E-08  1100   0.605E-04    0.959E-05
RMM:  17    -0.413214262011E+03    0.32472E-05   -0.69883E-08  1151   0.607E-04    0.784E-05
RMM:  18    -0.413214260822E+03    0.11892E-05   -0.37224E-08   916   0.550E-04    0.654E-05
RMM:  19    -0.413214258874E+03    0.19484E-05   -0.38447E-08  1012   0.558E-04    0.335E-05
RMM:  20    -0.413214258207E+03    0.66682E-06   -0.20916E-08   799   0.512E-04
   49 T=    71. E= -.41286679E+03 F= -.41321426E+03 E0= -.41319334E+03  EK= 0.34747E+00 SP= 0.00E+00 SK= 0.00E+00
       N       E                     dE             d eps       ncg     rms          rms(c)
RMM:   1    -0.413237181969E+03   -0.22923E-01   -0.11045E+01  4302   0.195E+00    0.932E-01
RMM:   2    -0.413213933057E+03    0.23249E-01   -0.18453E-01  4482   0.224E-01    0.696E-01
RMM:   3    -0.413238287321E+03   -0.24354E-01   -0.34468E-02  5156   0.164E-01    0.737E-01
RMM:   4    -0.413219157159E+03    0.19130E-01   -0.41960E-02  4958   0.187E-01    0.419E-01
RMM:   5    -0.413210264109E+03    0.88930E-02   -0.47328E-03  4625   0.920E-02    0.655E-02
RMM:   6    -0.413210065883E+03    0.19823E-03   -0.48407E-04  4684   0.300E-02    0.331E-02
[...]
RMM:  26    -0.409105164503E+03   -0.17914E-04   -0.89374E-06  2757   0.507E-03    0.257E-02
RMM:  27    -0.409105172323E+03   -0.78202E-05   -0.17788E-06  2176   0.181E-03    0.126E-02
RMM:  28    -0.409105179495E+03   -0.71718E-05   -0.14863E-06  2258   0.194E-03    0.468E-03
RMM:  29    -0.409105185016E+03   -0.55217E-05   -0.54466E-07  1586   0.979E-04    0.228E-03
RMM:  30    -0.409105191425E+03   -0.64087E-05   -0.42729E-07  1867   0.866E-04    0.401E-03
RMM:  31    -0.409105194511E+03   -0.30863E-05   -0.24838E-07  1503   0.717E-04    0.265E-04
RMM:  32    -0.409105196042E+03   -0.15308E-05   -0.13063E-07  1011   0.536E-04    0.160E-03
RMM:  33    -0.409105197086E+03   -0.10441E-05   -0.55158E-08   927   0.513E-04    0.675E-04
RMM:  34    -0.409105197456E+03   -0.36965E-06   -0.44016E-08   904   0.512E-04
  144 T=  1235. E= -.40303788E+03 F= -.40910520E+03 E0= -.40906636E+03  EK= 0.60673E+01 SP= 0.00E+00 SK= 0.00E+00
       N       E                     dE             d eps       ncg     rms          rms(c)
RMM:   1    -0.408198102999E+03    0.90709E+00   -0.23996E+01  4351   0.714E+00    0.530E+00
RMM:   2    -0.414200277873E+03   -0.60022E+01   -0.15046E+01  4908   0.306E+00    0.778E+00
RMM:   3    -0.414507897677E+03   -0.30762E+00   -0.64715E+00  5210   0.244E+00    0.887E+00
RMM:   4    -0.410590741989E+03    0.39172E+01   -0.14101E+00  4746   0.141E+00    0.534E+00
RMM:   5    -0.410038728625E+03    0.55201E+00   -0.38380E-01  5757   0.569E-01    0.475E+00
RMM:   6    -0.409181671004E+03    0.85706E+00   -0.19449E-01  5492   0.306E-01    0.150E+00
RMM:   7    -0.409205969899E+03   -0.24299E-01   -0.25550E-02  6198   0.148E-01    0.214E+00
RMM:   8    -0.409324050784E+03   -0.11808E+00   -0.16547E-02  5243   0.147E-01    0.530E+00
RMM:   9    -0.409331705089E+03   -0.76543E-02   -0.11205E-02  4478   0.160E-01    0.523E+00
RMM:  10    -0.409487923793E+03   -0.15622E+00   -0.20973E-02  4505   0.188E-01    0.524E+00
RMM:  11    -0.409463909792E+03    0.24014E-01   -0.11274E-02  5974   0.104E-01    0.525E+00
RMM:  12    -0.409305347928E+03    0.15856E+00   -0.12467E-03  5421   0.387E-02    0.522E+00
RMM:  13    -0.409194349214E+03    0.11100E+00   -0.94456E-03  4689   0.489E-02    0.363E+00
RMM:  14    -0.409195887196E+03   -0.15380E-02   -0.69162E-03  4532   0.105E-01    0.227E+00
RMM:  15    -0.409184753250E+03    0.11134E-01   -0.53355E-04  5138   0.253E-02    0.729E-01
RMM:  16    -0.409192080335E+03   -0.73271E-02   -0.11286E-03  4399   0.470E-02    0.479E-01
RMM:  17    -0.409204967047E+03   -0.12887E-01   -0.29429E-04  4381   0.237E-02    0.272E+00
RMM:  18    -0.409180667425E+03    0.24300E-01   -0.92573E-04  4296   0.505E-02    0.890E-01
RMM:  19    -0.409192583126E+03   -0.11916E-01   -0.79076E-04  4275   0.484E-02    0.721E-01
RMM:  20    -0.409191449057E+03    0.11341E-02   -0.34610E-04  4042   0.298E-02    0.364E-01
RMM:  21    -0.409192143460E+03   -0.69440E-03   -0.28932E-04  3859   0.255E-02    0.395E-01
RMM:  22    -0.409191964597E+03    0.17886E-03   -0.17321E-04  3643   0.202E-02    0.145E-01
RMM:  23    -0.409192073312E+03   -0.10871E-03   -0.11071E-04  3434   0.158E-02    0.194E-01
RMM:  24    -0.409191977224E+03    0.96088E-04   -0.56210E-05  3133   0.107E-02    0.107E-02
RMM:  25    -0.409192076967E+03   -0.99743E-04   -0.21359E-05  2877   0.629E-03    0.817E-02
RMM:  26    -0.409192077466E+03   -0.49931E-06   -0.67869E-06  2737   0.326E-03
  145 T=  1252. E= -.40304421E+03 F= -.40919208E+03 E0= -.40915525E+03  EK= 0.61479E+01 SP= 0.00E+00 SK= 0.00E+00
       N       E                     dE             d eps       ncg     rms          rms(c)
RMM:   1    -0.408396391015E+03    0.79569E+00   -0.26227E+01  4397   0.764E+00    0.535E+00
RMM:   2    -0.414474489662E+03   -0.60781E+01   -0.16210E+01  4943   0.324E+00    0.777E+00
RMM:   3    -0.414793193028E+03   -0.31870E+00   -0.65657E+00  5244   0.247E+00    0.891E+00
RMM:   4    -0.410917614262E+03    0.38756E+01   -0.14635E+00  4796   0.143E+00    0.544E+00
RMM:   5    -0.410413265126E+03    0.50435E+00   -0.36400E-01  5797   0.577E-01    0.488E+00
RMM:   6    -0.409555312405E+03    0.85795E+00   -0.14200E-01  5249   0.346E-01    0.526E+00
RMM:   7    -0.409539936749E+03    0.15376E-01   -0.28091E-02  6238   0.158E-01    0.504E+00
RMM:   8    -0.409483440773E+03    0.56496E-01   -0.49525E-02  5177   0.240E-01    0.255E+00
RMM:   9    -0.409791080150E+03   -0.30764E+00   -0.24026E-02  5100   0.203E-01    0.536E+00
RMM:  10    -0.409646018241E+03    0.14506E+00   -0.38280E-02  4615   0.256E-01    0.525E+00
RMM:  11    -0.409480467466E+03    0.16555E+00   -0.16168E-02  5516   0.139E-01    0.330E+00
RMM:  12    -0.409566484563E+03   -0.86017E-01   -0.15656E-02  5245   0.977E-02    0.391E+00
RMM:  13    -0.409481922353E+03    0.84562E-01   -0.82936E-03  5390   0.122E-01    0.174E+00
RMM:  14    -0.409479591215E+03    0.23311E-02   -0.47048E-03  6012   0.649E-02    0.172E+00
RMM:  15    -0.409515738386E+03   -0.36147E-01   -0.45498E-03  5567   0.780E-02    0.355E+00
RMM:  16    -0.409482425210E+03    0.33313E-01   -0.46105E-03  5382   0.786E-02    0.287E+00
RMM:  17    -0.409486888364E+03   -0.44632E-02   -0.41007E-03  5401   0.791E-02    0.281E+00
RMM:  18    -0.409473595340E+03    0.13293E-01   -0.31455E-03  5443   0.716E-02    0.146E+00
RMM:  19    -0.409477667231E+03   -0.40719E-02   -0.18223E-03  5131   0.603E-02    0.120E+00
RMM:  20    -0.409475211977E+03    0.24553E-02   -0.14168E-03  5293   0.509E-02    0.745E-01
RMM:  21    -0.409475662072E+03   -0.45009E-03   -0.74992E-04  4998   0.423E-02    0.559E-02
RMM:  22    -0.409476122809E+03   -0.46074E-03   -0.51596E-04  5383   0.324E-02    0.519E-02
RMM:  23    -0.409476226454E+03   -0.10365E-03   -0.34666E-04  5873   0.120E-02    0.922E-02
RMM:  24    -0.409476282855E+03   -0.56401E-04   -0.82173E-05  5284   0.870E-03    0.222E-02
RMM:  25    -0.409476347365E+03   -0.64509E-04   -0.37330E-05  3742   0.861E-03    0.584E-03
RMM:  26    -0.409476372195E+03   -0.24830E-04   -0.19226E-05  3311   0.339E-03    0.123E-02
RMM:  27    -0.409476407189E+03   -0.34995E-04   -0.65010E-06  2762   0.316E-03    0.388E-02
RMM:  28    -0.409476428580E+03   -0.21390E-04   -0.75238E-06  2770   0.385E-03    0.229E-02
RMM:  29    -0.409476437139E+03   -0.85596E-05   -0.52967E-06  2663   0.371E-03    0.181E-02
RMM:  30    -0.409476441050E+03   -0.39107E-05   -0.18710E-06  2258   0.127E-03    0.412E-03
RMM:  31    -0.409476446998E+03   -0.59479E-05   -0.14621E-06  2488   0.186E-03    0.707E-03
RMM:  32    -0.409476453384E+03   -0.63856E-05   -0.11186E-06  2350   0.131E-03    0.225E-03
RMM:  33    -0.409476456483E+03   -0.30993E-05   -0.56953E-07  1634   0.868E-04    0.424E-03
RMM:  34    -0.409476457860E+03   -0.13774E-05   -0.36183E-07  1152   0.665E-04    0.308E-03
RMM:  35    -0.409476459956E+03   -0.20961E-05   -0.86613E-08  1059   0.623E-04    0.738E-04
RMM:  36    -0.409476460868E+03   -0.91186E-06   -0.65861E-08  1163   0.628E-04
  146 T=  1306. E= -.40305939E+03 F= -.40947646E+03 E0= -.40944135E+03  EK= 0.64171E+01 SP= 0.00E+00 SK= 0.00E+00
       N       E                     dE             d eps       ncg     rms          rms(c)
RMM:   1    -0.408681933127E+03    0.79453E+00   -0.29711E+01  4581   0.830E+00    0.540E+00
RMM:   2    -0.414542000608E+03   -0.58601E+01   -0.17071E+01  4909   0.353E+00    0.768E+00
RMM:   3    -0.414755715459E+03   -0.21371E+00   -0.57181E+00  5234   0.238E+00    0.879E+00
RMM:   4    -0.411289141577E+03    0.34666E+01   -0.13878E+00  4890   0.138E+00    0.569E+00
RMM:   5    -0.410834929127E+03    0.45421E+00   -0.33623E-01  5734   0.599E-01    0.515E+00
RMM:   6    -0.410256661434E+03    0.57827E+00   -0.22805E-01  4766   0.512E-01    0.568E+00
RMM:   7    -0.410259757499E+03   -0.30961E-02   -0.41594E-02  6120   0.204E-01    0.568E+00
RMM:   8    -0.409997515529E+03    0.26224E+00   -0.70718E-02  5391   0.296E-01    0.552E+00
RMM:   9    -0.410130598967E+03   -0.13308E+00   -0.44138E-01  4344   0.690E-01    0.414E+00
RMM:  10    -0.410032421194E+03    0.98178E-01   -0.10266E-01  5759   0.342E-01    0.406E+00
RMM:  11    -0.409925057876E+03    0.10736E+00   -0.18283E-02  5807   0.144E-01    0.395E+00
RMM:  12    -0.409724480921E+03    0.20058E+00   -0.34697E-02  4555   0.199E-01    0.404E-01
RMM:  13    -0.409836047606E+03   -0.11157E+00   -0.23929E-02  5962   0.157E-01    0.385E+00
RMM:  14    -0.409729048675E+03    0.10700E+00   -0.87845E-03  5565   0.934E-02    0.852E-01
RMM:  15    -0.409765090295E+03   -0.36042E-01   -0.53159E-03  5681   0.821E-02    0.295E+00
RMM:  16    -0.409739314931E+03    0.25775E-01   -0.19497E-03  4631   0.512E-02    0.152E+00
RMM:  17    -0.409742387269E+03   -0.30723E-02   -0.15737E-03  4331   0.626E-02    0.212E-01
RMM:  18    -0.409743803638E+03   -0.14164E-02   -0.50136E-04  4358   0.309E-02    0.379E-01
RMM:  19    -0.409743559999E+03    0.24364E-03   -0.24019E-04  4346   0.215E-02    0.609E-02
RMM:  20    -0.409743855524E+03   -0.29552E-03   -0.12960E-04  4020   0.116E-02    0.259E-01
RMM:  21    -0.409743743527E+03    0.11200E-03   -0.18503E-04  3720   0.207E-02    0.393E-02
RMM:  22    -0.409743860772E+03   -0.11725E-03   -0.44814E-05  3216   0.677E-03    0.362E-02
RMM:  23    -0.409743933269E+03   -0.72496E-04   -0.30345E-05  3060   0.755E-03    0.424E-02
RMM:  24    -0.409743981007E+03   -0.47738E-04   -0.17668E-05  2967   0.529E-03    0.762E-02
RMM:  25    -0.409743995261E+03   -0.14254E-04   -0.12044E-05  2886   0.393E-03    0.381E-02
RMM:  26    -0.409744026889E+03   -0.31628E-04   -0.88161E-06  2888   0.280E-03    0.239E-03
RMM:  27    -0.409744044243E+03   -0.17354E-04   -0.58568E-06  2684   0.317E-03    0.132E-02
RMM:  28    -0.409744052179E+03   -0.79356E-05   -0.29954E-06  2461   0.217E-03    0.118E-02
RMM:  29    -0.409744060543E+03   -0.83645E-05   -0.24070E-06  2151   0.132E-03    0.783E-03
RMM:  30    -0.409744064333E+03   -0.37902E-05   -0.14669E-06  1747   0.859E-04    0.653E-03
RMM:  31    -0.409744065628E+03   -0.12946E-05   -0.38864E-07  1266   0.650E-04    0.395E-04
RMM:  32    -0.409744066852E+03   -0.12237E-05   -0.25296E-07  1584   0.881E-04    0.997E-04
RMM:  33    -0.409744067555E+03   -0.70302E-06   -0.88621E-08  1038   0.546E-04
  147 T=  1352. E= -.40310441E+03 F= -.40974407E+03 E0= -.40970974E+03  EK= 0.66397E+01 SP= 0.00E+00 SK= 0.00E+00
       N       E                     dE             d eps       ncg     rms          rms(c)
RMM:   1    -0.408284679269E+03    0.14594E+01   -0.33207E+01  4776   0.919E+00    0.560E+00
RMM:   2    -0.414680628831E+03   -0.63959E+01   -0.17457E+01  4978   0.379E+00    0.830E+00
RMM:   3    -0.414644303036E+03    0.36326E-01   -0.61276E+00  5291   0.249E+00    0.910E+00
RMM:   4    -0.411126314540E+03    0.35180E+01   -0.13949E+00  4862   0.140E+00    0.608E+00
RMM:   5    -0.410563950950E+03    0.56236E+00   -0.40664E-01  5653   0.664E-01    0.538E+00
RMM:   6    -0.411610618214E+03   -0.10467E+01   -0.57750E-01  4607   0.844E-01    0.628E+00
RMM:   7    -0.411627682470E+03   -0.17064E-01   -0.12567E-01  6079   0.336E-01    0.624E+00
RMM:   8    -0.410623295056E+03    0.10044E+01   -0.43068E-01  4919   0.730E-01    0.590E+00
RMM:   9    -0.409646753298E+03    0.97654E+00   -0.32061E-01  5075   0.469E-01    0.332E+00
RMM:  10    -0.409847959015E+03   -0.20121E+00   -0.43260E-02  4717   0.275E-01    0.545E+00
RMM:  11    -0.409610432100E+03    0.23753E+00   -0.39565E-02  5663   0.168E-01    0.353E+00
RMM:  12    -0.409640041757E+03   -0.29610E-01   -0.24747E-02  5197   0.178E-01    0.504E+00
RMM:  13    -0.409618562048E+03    0.21480E-01   -0.16804E-02  5698   0.122E-01    0.369E+00
RMM:  14    -0.409560925245E+03    0.57637E-01   -0.91941E-03  5396   0.120E-01    0.874E-01
RMM:  15    -0.409594661118E+03   -0.33736E-01   -0.42307E-03  4900   0.689E-02    0.311E+00
RMM:  16    -0.409560913675E+03    0.33747E-01   -0.32529E-03  5130   0.672E-02    0.125E+00
RMM:  17    -0.409572816522E+03   -0.11903E-01   -0.25419E-03  4344   0.648E-02    0.182E+00
RMM:  18    -0.409564781686E+03    0.80348E-02   -0.12150E-03  4614   0.481E-02    0.124E+00
RMM:  19    -0.409565915741E+03   -0.11341E-02   -0.95242E-04  4313   0.491E-02    0.638E-01
RMM:  20    -0.409566669871E+03   -0.75413E-03   -0.86531E-04  4285   0.464E-02    0.348E-01
RMM:  21    -0.409566679624E+03   -0.97535E-05   -0.32166E-04  4180   0.251E-02    0.165E-02
RMM:  22    -0.409566789254E+03   -0.10963E-03   -0.13330E-04  4087   0.120E-02    0.248E-02
RMM:  23    -0.409566862900E+03   -0.73646E-04   -0.65935E-05  3673   0.706E-03    0.322E-02
RMM:  24    -0.409566902001E+03   -0.39101E-04   -0.26820E-05  3220   0.442E-03    0.281E-02
RMM:  25    -0.409566934729E+03   -0.32728E-04   -0.10193E-05  2865   0.297E-03    0.488E-02
RMM:  26    -0.409566951445E+03   -0.16715E-04   -0.98393E-06  2769   0.434E-03    0.226E-03
RMM:  27    -0.409566962227E+03   -0.10782E-04   -0.43963E-06  2658   0.253E-03    0.125E-02
RMM:  28    -0.409566975026E+03   -0.12799E-04   -0.32397E-06  2627   0.176E-03    0.158E-03
RMM:  29    -0.409566983291E+03   -0.82650E-05   -0.18370E-06  2278   0.143E-03    0.125E-02
RMM:  30    -0.409566986219E+03   -0.29283E-05   -0.91636E-07  1893   0.110E-03    0.523E-04
RMM:  31    -0.409566988824E+03   -0.26051E-05   -0.47371E-07  1443   0.904E-04    0.425E-04
RMM:  32    -0.409566992035E+03   -0.32111E-05   -0.34161E-07  1331   0.682E-04    0.933E-04
RMM:  33    -0.409566994075E+03   -0.20397E-05   -0.10024E-07  1121   0.604E-04    0.195E-03
RMM:  34    -0.409566994925E+03   -0.84980E-06   -0.83170E-08  1042   0.597E-04
  148 T=  1331. E= -.40303018E+03 F= -.40956699E+03 E0= -.40953308E+03  EK= 0.65368E+01 SP= 0.00E+00 SK= 0.00E+00
       N       E                     dE             d eps       ncg     rms          rms(c)
RMM:   1    -0.408786302494E+03    0.78069E+00   -0.34096E+01  4632   0.934E+00    0.570E+00
RMM:   2    -0.415061212598E+03   -0.62749E+01   -0.16486E+01  5028   0.362E+00    0.826E+00
RMM:   3    -0.414914581828E+03    0.14663E+00   -0.68965E+00  5284   0.261E+00    0.896E+00
RMM:   4    -0.411101614852E+03    0.38130E+01   -0.14939E+00  4772   0.147E+00    0.559E+00
RMM:   5    -0.410437954248E+03    0.66366E+00   -0.46119E-01  5663   0.659E-01    0.482E+00
RMM:   6    -0.411202509356E+03   -0.76456E+00   -0.34060E-01  4918   0.605E-01    0.607E+00
RMM:   7    -0.411043379893E+03    0.15913E+00   -0.67969E-02  5966   0.275E-01    0.596E+00
RMM:   8    -0.409781120349E+03    0.12623E+01   -0.41415E-01  4490   0.577E-01    0.345E+00
RMM:   9    -0.409724568807E+03    0.56552E-01   -0.93597E-02  5509   0.350E-01    0.241E+00
RMM:  10    -0.409818416828E+03   -0.93848E-01   -0.21615E-02  5095   0.182E-01    0.519E+00
RMM:  11    -0.409806069667E+03    0.12347E-01   -0.27642E-02  5409   0.139E-01    0.369E+00
RMM:  12    -0.409759593258E+03    0.46476E-01   -0.50679E-03  4634   0.118E-01    0.353E+00
RMM:  13    -0.409691878859E+03    0.67714E-01   -0.39083E-03  5148   0.623E-02    0.159E+00
RMM:  14    -0.409725181705E+03   -0.33303E-01   -0.55832E-03  4365   0.852E-02    0.290E+00
RMM:  15    -0.409695503499E+03    0.29678E-01   -0.21108E-03  4315   0.629E-02    0.589E-01
RMM:  16    -0.409702083434E+03   -0.65799E-02   -0.19331E-03  4307   0.632E-02    0.305E-01
RMM:  17    -0.409701955265E+03    0.12817E-03   -0.21809E-04  4679   0.177E-02    0.310E-01
RMM:  18    -0.409701994781E+03   -0.39517E-04   -0.21377E-04  4223   0.229E-02    0.134E-01
RMM:  19    -0.409702077149E+03   -0.82367E-04   -0.10587E-04  4008   0.150E-02    0.940E-02
RMM:  20    -0.409702110509E+03   -0.33360E-04   -0.50835E-05  3461   0.890E-03    0.136E-02
RMM:  21    -0.409702170761E+03   -0.60252E-04   -0.28462E-05  3138   0.560E-03    0.546E-02
RMM:  22    -0.409702197762E+03   -0.27001E-04   -0.16541E-05  2912   0.411E-03    0.232E-02
RMM:  23    -0.409702222969E+03   -0.25207E-04   -0.11623E-05  2822   0.274E-03    0.446E-03
RMM:  24    -0.409702241245E+03   -0.18275E-04   -0.63956E-06  2712   0.249E-03    0.924E-03
RMM:  25    -0.409702256014E+03   -0.14770E-04   -0.50923E-06  2617   0.178E-03    0.111E-02
RMM:  26    -0.409702262697E+03   -0.66830E-05   -0.26066E-06  2198   0.148E-03    0.640E-03
RMM:  27    -0.409702268928E+03   -0.62304E-05   -0.14986E-06  1787   0.946E-04    0.519E-03
RMM:  28    -0.409702275279E+03   -0.63509E-05   -0.66297E-07  1878   0.872E-04    0.598E-03
RMM:  29    -0.409702277260E+03   -0.19807E-05   -0.37745E-07  1546   0.941E-04    0.674E-03
RMM:  30    -0.409702278370E+03   -0.11104E-05   -0.20609E-07  1228   0.653E-04    0.246E-03
RMM:  31    -0.409702279249E+03   -0.87922E-06   -0.19532E-07  1170   0.721E-04
  149 T=  1357. E= -.40303695E+03 F= -.40970228E+03 E0= -.40966914E+03  EK= 0.66653E+01 SP= 0.00E+00 SK= 0.00E+00
       N       E                     dE             d eps       ncg     rms          rms(c)
RMM:   1    -0.409282130189E+03    0.42015E+00   -0.32251E+01  4656   0.881E+00    0.639E+00
RMM:   2    -0.413903309262E+03   -0.46212E+01   -0.15896E+01  4797   0.352E+00    0.715E+00
RMM:   3    -0.414298869403E+03   -0.39556E+00   -0.44153E+00  5320   0.211E+00    0.832E+00
RMM:   4    -0.411419505595E+03    0.28794E+01   -0.13181E+00  4870   0.133E+00    0.547E+00
RMM:   5    -0.410696570576E+03    0.72294E+00   -0.72477E-01  5648   0.857E-01    0.457E+00
RMM:   6    -0.413048466885E+03   -0.23519E+01   -0.56942E-01  4601   0.813E-01    0.662E+00
RMM:   7    -0.411862946694E+03    0.11855E+01   -0.10737E-01  5658   0.410E-01    0.611E+00
RMM:   8    -0.410610868276E+03    0.12521E+01   -0.11738E+00  4439   0.626E-01    0.388E+00
RMM:   9    -0.410399712279E+03    0.21116E+00   -0.66256E-02  4841   0.300E-01    0.375E+00
RMM:  10    -0.410243374469E+03    0.15634E+00   -0.11602E-02  4956   0.123E-01    0.509E+00
RMM:  11    -0.410229736289E+03    0.13638E-01   -0.23020E-02  5030   0.144E-01    0.349E+00
RMM:  12    -0.410141007358E+03    0.88729E-01   -0.58013E-03  4323   0.110E-01    0.195E+00
RMM:  13    -0.410174562374E+03   -0.33555E-01   -0.72850E-03  4578   0.100E-01    0.308E+00
RMM:  14    -0.410133556941E+03    0.41005E-01   -0.32473E-03  4378   0.859E-02    0.974E-01
RMM:  15    -0.410139034840E+03   -0.54779E-02   -0.30515E-03  4318   0.807E-02    0.681E-01
RMM:  16    -0.410143249038E+03   -0.42142E-02   -0.82857E-04  4448   0.414E-02    0.166E+00
RMM:  17    -0.410135606804E+03    0.76422E-02   -0.10684E-03  4300   0.564E-02    0.599E-01
RMM:  18    -0.410138903534E+03   -0.32967E-02   -0.74441E-04  4284   0.493E-02    0.637E-01
RMM:  19    -0.410137662927E+03    0.12406E-02   -0.42337E-04  4131   0.333E-02    0.146E-01
RMM:  20    -0.410138287082E+03   -0.62416E-03   -0.21233E-04  3888   0.239E-02    0.894E-03
RMM:  21    -0.410138330617E+03   -0.43535E-04   -0.58765E-05  3416   0.450E-03    0.346E-02
RMM:  22    -0.410138397982E+03   -0.67365E-04   -0.20128E-05  2995   0.428E-03    0.117E-01
RMM:  23    -0.410138372727E+03    0.25255E-04   -0.16313E-05  2853   0.492E-03    0.554E-02
RMM:  24    -0.410138401181E+03   -0.28453E-04   -0.22074E-05  2916   0.706E-03    0.412E-02
RMM:  25    -0.410138408277E+03   -0.70962E-05   -0.73327E-06  2645   0.323E-03    0.128E-02
RMM:  26    -0.410138418085E+03   -0.98083E-05   -0.56596E-06  2484   0.168E-03    0.143E-02
RMM:  27    -0.410138431286E+03   -0.13200E-04   -0.47587E-06  2684   0.191E-03    0.988E-03
RMM:  28    -0.410138433464E+03   -0.21779E-05   -0.18632E-06  2016   0.155E-03    0.378E-03
RMM:  29    -0.410138435505E+03   -0.20409E-05   -0.17433E-06  1371   0.728E-04    0.307E-03
RMM:  30    -0.410138437897E+03   -0.23924E-05   -0.26578E-07  1251   0.743E-04    0.153E-03
RMM:  31    -0.410138440302E+03   -0.24050E-05   -0.18041E-07  1319   0.675E-04    0.396E-03
RMM:  32    -0.410138441299E+03   -0.99750E-06   -0.13658E-07  1335   0.683E-04
  150 T=  1432. E= -.40310324E+03 F= -.41013844E+03 E0= -.41010628E+03  EK= 0.70352E+01 SP= 0.00E+00 SK= 0.00E+00
