       N       E                     dE             d eps       ncg     rms          rms(c)
RMM:   1     0.220118853703E+04    0.22012E+04   -0.52444E+04  2132   0.654E+02
RMM:   2     0.705444081780E+03   -0.14957E+04   -0.16263E+04  2132   0.177E+02
RMM:   3     0.137669637480E+03   -0.56777E+03   -0.65754E+03  2132   0.117E+02
RMM:   4    -0.159196220688E+03   -0.29687E+03   -0.27804E+03  2132   0.936E+01
RMM:   5    -0.287518497024E+03   -0.12832E+03   -0.11444E+03  2132   0.595E+01
RMM:   6    -0.349820367642E+03   -0.62302E+02   -0.55121E+02  2132   0.423E+01
RMM:   7    -0.382758191575E+03   -0.32938E+02   -0.30438E+02  2132   0.293E+01
RMM:   8    -0.404219190869E+03   -0.21461E+02   -0.18423E+02  2132   0.233E+01
RMM:   9    -0.435972858141E+03   -0.31754E+02   -0.30665E+02  6104   0.173E+01
RMM:  10    -0.441256664587E+03   -0.52838E+01   -0.63058E+01  6399   0.539E+00
RMM:  11    -0.442498787512E+03   -0.12421E+01   -0.11176E+01  6235   0.173E+00
RMM:  12    -0.442875682973E+03   -0.37690E+00   -0.26642E+00  6371   0.600E-01    0.134E+02
RMM:  13    -0.425649954086E+03    0.17226E+02   -0.81089E+01  4679   0.119E+01    0.712E+01
RMM:  14    -0.500476645212E+03   -0.74827E+02   -0.54618E+02  5421   0.233E+01    0.309E+01
RMM:  15    -0.415582940164E+03    0.84894E+02   -0.20000E+02  5085   0.164E+01    0.683E+00
RMM:  16    -0.414018858992E+03    0.15641E+01   -0.39665E+01  6076   0.611E+00    0.425E+00
RMM:  17    -0.413213216316E+03    0.80564E+00   -0.24509E+00  5390   0.186E+00    0.243E+00
RMM:  18    -0.413172849750E+03    0.40367E-01   -0.79202E-01  5966   0.913E-01    0.164E+00
RMM:  19    -0.413168659252E+03    0.41905E-02   -0.28260E-01  5695   0.571E-01    0.848E-01
RMM:  20    -0.413184950596E+03   -0.16291E-01   -0.22887E-01  5528   0.507E-01    0.560E-01
RMM:  21    -0.413167947893E+03    0.17003E-01   -0.33288E-02  5016   0.230E-01    0.255E-01
RMM:  22    -0.413165827069E+03    0.21208E-02   -0.15983E-02  6034   0.113E-01    0.136E-01
RMM:  23    -0.413164575587E+03    0.12515E-02   -0.49930E-03  5951   0.638E-02    0.822E-02
RMM:  24    -0.413163140480E+03    0.14351E-02   -0.15152E-03  5328   0.400E-02    0.437E-02
RMM:  25    -0.413162722892E+03    0.41759E-03   -0.82099E-04  5503   0.266E-02    0.342E-02
RMM:  26    -0.413162867827E+03   -0.14493E-03   -0.83068E-04  5842   0.297E-02    0.344E-02
RMM:  27    -0.413163284328E+03   -0.41650E-03   -0.18721E-04  4544   0.202E-02    0.197E-02
RMM:  28    -0.413163708585E+03   -0.42426E-03   -0.18554E-04  5338   0.188E-02    0.847E-03
RMM:  29    -0.413164086291E+03   -0.37771E-03   -0.98076E-05  4358   0.151E-02    0.440E-03
RMM:  30    -0.413164300577E+03   -0.21429E-03   -0.72754E-05  4250   0.967E-03    0.390E-03
RMM:  31    -0.413164437353E+03   -0.13678E-03   -0.55437E-05  3169   0.714E-03    0.301E-03
RMM:  32    -0.413164457875E+03   -0.20522E-04   -0.19353E-05  2980   0.295E-03    0.156E-03
RMM:  33    -0.413164469232E+03   -0.11357E-04   -0.80528E-06  2783   0.228E-03    0.510E-04
RMM:  34    -0.413164470813E+03   -0.15806E-05   -0.44355E-06  2628   0.156E-03    0.650E-04
RMM:  35    -0.413164470553E+03    0.25957E-06   -0.41802E-06  2268   0.116E-03
    1 T=    61. E= -.41286666E+03 F= -.41316447E+03 E0= -.41314197E+03  EK= 0.29781E+00 SP= 0.00E+00 SK= 0.00E+00
       N       E                     dE             d eps       ncg     rms          rms(c)
RMM:   1    -0.413164310165E+03    0.16065E-03   -0.86673E+00  3987   0.601E-01    0.887E-01
RMM:   2    -0.413168787452E+03   -0.44773E-02   -0.10661E-01  3900   0.869E-02    0.653E-01
RMM:   3    -0.413164687287E+03    0.41002E-02   -0.19455E-02  4884   0.526E-02    0.111E-01
RMM:   4    -0.413190664240E+03   -0.25977E-01   -0.28379E-02  5192   0.140E-01    0.675E-01
RMM:   5    -0.413163955016E+03    0.26709E-01   -0.12844E-02  4834   0.113E-01    0.490E-02
RMM:   6    -0.413164149771E+03   -0.19475E-03   -0.23815E-03  5777   0.476E-02    0.344E-02
RMM:   7    -0.413164151362E+03   -0.15914E-05   -0.44431E-04  5695   0.194E-02    0.215E-02
RMM:   8    -0.413164149011E+03    0.23507E-05   -0.56022E-05  5148   0.829E-03    0.948E-03
RMM:   9    -0.413164151197E+03   -0.21862E-05   -0.12019E-05  3665   0.367E-03    0.704E-03
RMM:  10    -0.413164156139E+03   -0.49417E-05   -0.23084E-06  2594   0.226E-03    0.421E-03
RMM:  11    -0.413164160053E+03   -0.39134E-05   -0.12973E-06  2524   0.170E-03    0.238E-03
RMM:  12    -0.413164166720E+03   -0.66676E-05   -0.18245E-06  2577   0.190E-03    0.103E-03
RMM:  13    -0.413164169861E+03   -0.31412E-05   -0.73717E-07  2408   0.131E-03    0.801E-04
RMM:  14    -0.413164169643E+03    0.21826E-06   -0.35603E-07  1913   0.863E-04
    2 T=    61. E= -.41286639E+03 F= -.41316417E+03 E0= -.41314167E+03  EK= 0.29778E+00 SP= 0.00E+00 SK= 0.00E+00
       N       E                     dE             d eps       ncg     rms          rms(c)
RMM:   1    -0.413165266339E+03   -0.10965E-02   -0.86597E+00  4184   0.608E-01    0.905E-01
RMM:   2    -0.413169025779E+03   -0.37594E-02   -0.10577E-01  3933   0.860E-02    0.649E-01
RMM:   3    -0.413165193720E+03    0.38321E-02   -0.18186E-02  4888   0.485E-02    0.106E-01
RMM:   4    -0.413190467632E+03   -0.25274E-01   -0.26621E-02  5164   0.137E-01    0.666E-01
RMM:   5    -0.413164586099E+03    0.25882E-01   -0.12331E-02  4827   0.111E-01    0.487E-02
RMM:   6    -0.413164770433E+03   -0.18433E-03   -0.22720E-03  5774   0.465E-02    0.345E-02
RMM:   7    -0.413164759275E+03    0.11158E-04   -0.42117E-04  5607   0.197E-02    0.215E-02
RMM:   8    -0.413164749489E+03    0.97857E-05   -0.57744E-05  5081   0.865E-03    0.101E-02
RMM:   9    -0.413164747977E+03    0.15122E-05   -0.11685E-05  3696   0.379E-03    0.754E-03
RMM:  10    -0.413164748287E+03   -0.30936E-06   -0.21182E-06  2576   0.235E-03
    3 T=    61. E= -.41286676E+03 F= -.41316475E+03 E0= -.41314225E+03  EK= 0.29799E+00 SP= 0.00E+00 SK= 0.00E+00
       N       E                     dE             d eps       ncg     rms          rms(c)
RMM:   1    -0.413164889998E+03   -0.14202E-03   -0.85978E+00  4220   0.617E-01    0.890E-01
RMM:   2    -0.413168528388E+03   -0.36384E-02   -0.10546E-01  4193   0.854E-02    0.643E-01
RMM:   3    -0.413170815675E+03   -0.22873E-02   -0.22330E-02  5165   0.860E-02    0.340E-01
RMM:   4    -0.413187075977E+03   -0.16260E-01   -0.38071E-02  5100   0.168E-01    0.621E-01
RMM:   5    -0.413164490903E+03    0.22585E-01   -0.84050E-03  4687   0.101E-01    0.594E-02
RMM:   6    -0.413164498125E+03   -0.72216E-05   -0.16716E-03  5434   0.417E-02    0.321E-02
RMM:   7    -0.413164518826E+03   -0.20702E-04   -0.34032E-04  5961   0.170E-02    0.193E-02
RMM:   8    -0.413164514845E+03    0.39818E-05   -0.59896E-05  5141   0.902E-03    0.786E-03
RMM:   9    -0.413164513285E+03    0.15598E-05   -0.76065E-06  3356   0.356E-03    0.399E-03
RMM:  10    -0.413164514455E+03   -0.11704E-05   -0.16190E-06  2537   0.213E-03    0.254E-03
RMM:  11    -0.413164516103E+03   -0.16475E-05   -0.13243E-06  2538   0.178E-03    0.145E-03
RMM:  12    -0.413164516910E+03   -0.80751E-06   -0.76508E-07  2486   0.139E-03
    4 T=    61. E= -.41286659E+03 F= -.41316452E+03 E0= -.41314203E+03  EK= 0.29793E+00 SP= 0.00E+00 SK= 0.00E+00
       N       E                     dE             d eps       ncg     rms          rms(c)
RMM:   1    -0.413164658317E+03   -0.14221E-03   -0.86614E+00  4235   0.614E-01    0.885E-01
RMM:   2    -0.413168994004E+03   -0.43357E-02   -0.10681E-01  3959   0.846E-02    0.651E-01
RMM:   3    -0.413165448487E+03    0.35455E-02   -0.19533E-02  4976   0.521E-02    0.129E-01
RMM:   4    -0.413196493651E+03   -0.31045E-01   -0.33980E-02  5143   0.154E-01    0.739E-01
RMM:   5    -0.413164453393E+03    0.32040E-01   -0.15035E-02  4808   0.123E-01    0.508E-02
RMM:   6    -0.413164669193E+03   -0.21580E-03   -0.27157E-03  5751   0.510E-02    0.344E-02
RMM:   7    -0.413164670914E+03   -0.17214E-05   -0.46300E-04  5724   0.199E-02    0.220E-02
RMM:   8    -0.413164667441E+03    0.34726E-05   -0.65153E-05  5160   0.892E-03    0.102E-02
RMM:   9    -0.413164668357E+03   -0.91535E-06   -0.12689E-05  3863   0.400E-03    0.736E-03
RMM:  10    -0.413164672477E+03   -0.41200E-05   -0.21127E-06  2584   0.230E-03    0.447E-03
RMM:  11    -0.413164675824E+03   -0.33477E-05   -0.11834E-06  2525   0.174E-03    0.253E-03
RMM:  12    -0.413164681416E+03   -0.55918E-05   -0.19944E-06  2613   0.202E-03    0.112E-03
RMM:  13    -0.413164683425E+03   -0.20086E-05   -0.65323E-07  2412   0.135E-03    0.829E-04
RMM:  14    -0.413164683337E+03    0.87482E-07   -0.25626E-07  1936   0.878E-04
    5 T=    61. E= -.41286663E+03 F= -.41316468E+03 E0= -.41314221E+03  EK= 0.29806E+00 SP= 0.00E+00 SK= 0.00E+00
       N       E                     dE             d eps       ncg     rms          rms(c)
RMM:   1    -0.413165510370E+03   -0.82694E-03   -0.86700E+00  4246   0.618E-01    0.902E-01
RMM:   2    -0.413169185376E+03   -0.36750E-02   -0.10621E-01  3946   0.841E-02    0.651E-01
RMM:   3    -0.413165596869E+03    0.35885E-02   -0.18361E-02  4892   0.469E-02    0.104E-01
RMM:   4    -0.413190320393E+03   -0.24724E-01   -0.26028E-02  5138   0.135E-01    0.659E-01
RMM:   5    -0.413164987328E+03    0.25333E-01   -0.12071E-02  4811   0.109E-01    0.485E-02
RMM:   6    -0.413165172975E+03   -0.18565E-03   -0.22693E-03  5748   0.458E-02    0.340E-02
RMM:   7    -0.413165166561E+03    0.64141E-05   -0.41492E-04  5604   0.195E-02    0.215E-02
RMM:   8    -0.413165156621E+03    0.99399E-05   -0.56008E-05  5000   0.851E-03    0.101E-02
RMM:   9    -0.413165155188E+03    0.14327E-05   -0.11166E-05  3659   0.375E-03    0.759E-03
RMM:  10    -0.413165155561E+03   -0.37334E-06   -0.20324E-06  2565   0.233E-03
    6 T=    61. E= -.41286678E+03 F= -.41316516E+03 E0= -.41314269E+03  EK= 0.29837E+00 SP= 0.00E+00 SK= 0.00E+00
       N       E                     dE             d eps       ncg     rms          rms(c)
RMM:   1    -0.413165256914E+03   -0.10173E-03   -0.86245E+00  4259   0.624E-01    0.897E-01
RMM:   2    -0.413168922247E+03   -0.36653E-02   -0.10571E-01  4264   0.848E-02    0.645E-01
RMM:   3    -0.413171010873E+03   -0.20886E-02   -0.22146E-02  5142   0.844E-02    0.336E-01
RMM:   4    -0.413187725243E+03   -0.16714E-01   -0.38162E-02  5092   0.167E-01    0.624E-01
RMM:   5    -0.413164872422E+03    0.22853E-01   -0.85254E-03  4681   0.102E-01    0.595E-02
RMM:   6    -0.413164889558E+03   -0.17136E-04   -0.17305E-03  5431   0.420E-02    0.324E-02
RMM:   7    -0.413164907305E+03   -0.17747E-04   -0.34146E-04  5950   0.169E-02    0.193E-02
RMM:   8    -0.413164902104E+03    0.52011E-05   -0.59324E-05  5123   0.894E-03    0.788E-03
RMM:   9    -0.413164899029E+03    0.30752E-05   -0.71307E-06  3302   0.349E-03    0.405E-03
RMM:  10    -0.413164898931E+03    0.98047E-07   -0.16687E-06  2542   0.213E-03
    7 T=    61. E= -.41286642E+03 F= -.41316490E+03 E0= -.41314245E+03  EK= 0.29848E+00 SP= 0.00E+00 SK= 0.00E+00
       N       E                     dE             d eps       ncg     rms          rms(c)
RMM:   1    -0.413165499974E+03   -0.60095E-03   -0.86547E+00  4271   0.627E-01    0.883E-01
RMM:   2    -0.413169977668E+03   -0.44777E-02   -0.10649E-01  4063   0.865E-02    0.650E-01
RMM:   3    -0.413166332571E+03    0.36451E-02   -0.19289E-02  4956   0.538E-02    0.133E-01
RMM:   4    -0.413198471363E+03   -0.32139E-01   -0.35426E-02  5139   0.157E-01    0.751E-01
RMM:   5    -0.413165286622E+03    0.33185E-01   -0.15628E-02  4798   0.125E-01    0.516E-02
RMM:   6    -0.413165497254E+03   -0.21063E-03   -0.27400E-03  5735   0.517E-02    0.347E-02
RMM:   7    -0.413165496475E+03    0.77826E-06   -0.47191E-04  5736   0.200E-02    0.220E-02
RMM:   8    -0.413165492367E+03    0.41079E-05   -0.65178E-05  5185   0.889E-03    0.100E-02
RMM:   9    -0.413165491993E+03    0.37421E-06   -0.12730E-05  3853   0.398E-03    0.713E-03
RMM:  10    -0.413165494708E+03   -0.27146E-05   -0.21229E-06  2585   0.227E-03    0.433E-03
RMM:  11    -0.413165496938E+03   -0.22301E-05   -0.11440E-06  2519   0.171E-03    0.242E-03
RMM:  12    -0.413165500526E+03   -0.35885E-05   -0.18794E-06  2598   0.197E-03    0.107E-03
RMM:  13    -0.413165501863E+03   -0.13365E-05   -0.68167E-07  2418   0.134E-03    0.852E-04
RMM:  14    -0.413165501638E+03    0.22447E-06   -0.24957E-07  1916   0.866E-04
    8 T=    61. E= -.41286666E+03 F= -.41316550E+03 E0= -.41314307E+03  EK= 0.29884E+00 SP= 0.00E+00 SK= 0.00E+00
       N       E                     dE             d eps       ncg     rms          rms(c)
RMM:   1    -0.413165960434E+03   -0.45857E-03   -0.86912E+00  4284   0.632E-01    0.898E-01
RMM:   2    -0.413170123896E+03   -0.41635E-02   -0.10641E-01  4095   0.870E-02    0.653E-01
RMM:   3    -0.413166150499E+03    0.39734E-02   -0.18717E-02  4858   0.509E-02    0.108E-01
RMM:   4    -0.413192184830E+03   -0.26034E-01   -0.27515E-02  5132   0.138E-01    0.676E-01
RMM:   5    -0.413165482817E+03    0.26702E-01   -0.12792E-02  4804   0.112E-01    0.484E-02
RMM:   6    -0.413165665113E+03   -0.18230E-03   -0.23006E-03  5760   0.466E-02    0.335E-02
RMM:   7    -0.413165660359E+03    0.47538E-05   -0.40665E-04  5616   0.194E-02    0.212E-02
RMM:   8    -0.413165650940E+03    0.94191E-05   -0.58458E-05  5022   0.866E-03    0.101E-02
RMM:   9    -0.413165649334E+03    0.16064E-05   -0.11769E-05  3752   0.385E-03    0.750E-03
RMM:  10    -0.413165649873E+03   -0.53921E-06   -0.19838E-06  2558   0.229E-03
    9 T=    61. E= -.41286658E+03 F= -.41316565E+03 E0= -.41314324E+03  EK= 0.29907E+00 SP= 0.00E+00 SK= 0.00E+00
       N       E                     dE             d eps       ncg     rms          rms(c)
RMM:   1    -0.413166182182E+03   -0.53285E-03   -0.86623E+00  4294   0.640E-01    0.903E-01
RMM:   2    -0.413170014488E+03   -0.38323E-02   -0.10592E-01  4281   0.876E-02    0.646E-01
RMM:   3    -0.413171682093E+03   -0.16676E-02   -0.22041E-02  5135   0.843E-02    0.332E-01
RMM:   4    -0.413188845351E+03   -0.17163E-01   -0.38208E-02  5080   0.167E-01    0.628E-01
RMM:   5    -0.413165701288E+03    0.23144E-01   -0.87266E-03  4686   0.102E-01    0.591E-02
RMM:   6    -0.413165728075E+03   -0.26788E-04   -0.17674E-03  5437   0.421E-02    0.328E-02
RMM:   7    -0.413165739956E+03   -0.11880E-04   -0.34363E-04  5919   0.171E-02    0.195E-02
RMM:   8    -0.413165733032E+03    0.69243E-05   -0.59482E-05  5103   0.904E-03    0.794E-03
RMM:   9    -0.413165728943E+03    0.40884E-05   -0.74387E-06  3283   0.353E-03    0.411E-03
RMM:  10    -0.413165727766E+03    0.11767E-05   -0.17417E-06  2545   0.215E-03    0.259E-03
RMM:  11    -0.413165725907E+03    0.18590E-05   -0.12409E-06  2516   0.175E-03    0.141E-03
RMM:  12    -0.413165723981E+03    0.19269E-05   -0.76692E-07  2471   0.140E-03    0.582E-04
RMM:  13    -0.413165722822E+03    0.11588E-05   -0.38825E-07  2129   0.102E-03    0.334E-04
RMM:  14    -0.413165721700E+03    0.11221E-05   -0.23257E-07  1637   0.803E-04    0.223E-04
RMM:  15    -0.413165719725E+03    0.19742E-05   -0.25102E-07  1572   0.772E-04    0.176E-04
RMM:  16    -0.413165717816E+03    0.19092E-05   -0.18481E-07  1344   0.699E-04    0.147E-04
RMM:  17    -0.413165716020E+03    0.17961E-05   -0.15160E-07  1289   0.662E-04    0.754E-05
RMM:  18    -0.413165714649E+03    0.13707E-05   -0.93549E-08  1071   0.605E-04    0.440E-05
RMM:  19    -0.413165714108E+03    0.54098E-06   -0.47525E-08   873   0.552E-04
   10 T=    61. E= -.41286644E+03 F= -.41316571E+03 E0= -.41314333E+03  EK= 0.29927E+00 SP= 0.00E+00 SK= 0.00E+00
       N       E                     dE             d eps       ncg     rms          rms(c)
RMM:   1    -0.413166434848E+03   -0.72020E-03   -0.86487E+00  4289   0.640E-01    0.884E-01
RMM:   2    -0.413170745840E+03   -0.43110E-02   -0.10645E-01  4185   0.859E-02    0.647E-01
RMM:   3    -0.413167353100E+03    0.33927E-02   -0.18920E-02  4945   0.535E-02    0.133E-01
RMM:   4    -0.413199874467E+03   -0.32521E-01   -0.35912E-02  5131   0.158E-01    0.755E-01
RMM:   5    -0.413166304160E+03    0.33570E-01   -0.15875E-02  4792   0.125E-01    0.517E-02
RMM:   6    -0.413166517143E+03   -0.21298E-03   -0.27562E-03  5719   0.518E-02    0.351E-02
RMM:   7    -0.413166517576E+03   -0.43244E-06   -0.47205E-04  5646   0.201E-02    0.221E-02
RMM:   8    -0.413166510468E+03    0.71082E-05   -0.66401E-05  5190   0.904E-03    0.101E-02
RMM:   9    -0.413166508999E+03    0.14687E-05   -0.13141E-05  3899   0.407E-03    0.716E-03
RMM:  10    -0.413166510446E+03   -0.14466E-05   -0.20861E-06  2575   0.229E-03    0.436E-03
RMM:  11    -0.413166511629E+03   -0.11829E-05   -0.10806E-06  2503   0.166E-03    0.249E-03
RMM:  12    -0.413166513577E+03   -0.19486E-05   -0.16330E-06  2555   0.193E-03    0.109E-03
RMM:  13    -0.413166514245E+03   -0.66735E-06   -0.63275E-07  2389   0.134E-03
   11 T=    61. E= -.41286679E+03 F= -.41316651E+03 E0= -.41314415E+03  EK= 0.29972E+00 SP= 0.00E+00 SK= 0.00E+00
       N       E                     dE             d eps       ncg     rms          rms(c)
RMM:   1    -0.413166621152E+03   -0.10758E-03   -0.87157E+00  4291   0.645E-01    0.894E-01
RMM:   2    -0.413170707982E+03   -0.40868E-02   -0.10716E-01  4202   0.861E-02    0.654E-01
RMM:   3    -0.413167013049E+03    0.36949E-02   -0.19049E-02  4869   0.509E-02    0.111E-01
RMM:   4    -0.413194022469E+03   -0.27009E-01   -0.28801E-02  5120   0.141E-01    0.689E-01
RMM:   5    -0.413166275477E+03    0.27747E-01   -0.13194E-02  4794   0.114E-01    0.487E-02
RMM:   6    -0.413166467341E+03   -0.19186E-03   -0.24386E-03  5774   0.473E-02    0.329E-02
RMM:   7    -0.413166467884E+03   -0.54321E-06   -0.40403E-04  5652   0.192E-02    0.213E-02
RMM:   8    -0.413166459214E+03    0.86702E-05   -0.63407E-05  5000   0.881E-03    0.104E-02
RMM:   9    -0.413166457270E+03    0.19436E-05   -0.12483E-05  3873   0.401E-03    0.774E-03
RMM:  10    -0.413166457835E+03   -0.56453E-06   -0.19942E-06  2558   0.231E-03
   12 T=    61. E= -.41286646E+03 F= -.41316646E+03 E0= -.41314413E+03  EK= 0.29999E+00 SP= 0.00E+00 SK= 0.00E+00
       N       E                     dE             d eps       ncg     rms          rms(c)
RMM:   1    -0.413167545855E+03   -0.10886E-02   -0.87035E+00  4306   0.650E-01    0.908E-01
RMM:   2    -0.413170921602E+03   -0.33757E-02   -0.10666E-01  4303   0.853E-02    0.649E-01
RMM:   3    -0.413174081894E+03   -0.31603E-02   -0.22948E-02  5136   0.879E-02    0.360E-01
RMM:   4    -0.413188041883E+03   -0.13960E-01   -0.37750E-02  5068   0.167E-01    0.598E-01
RMM:   5    -0.413167043384E+03    0.20998E-01   -0.76125E-03  4652   0.972E-02    0.588E-02
RMM:   6    -0.413167047775E+03   -0.43917E-05   -0.15902E-03  5389   0.397E-02    0.327E-02
RMM:   7    -0.413167059331E+03   -0.11556E-04   -0.31811E-04  5897   0.167E-02    0.191E-02
RMM:   8    -0.413167051798E+03    0.75328E-05   -0.57205E-05  5113   0.884E-03    0.772E-03
RMM:   9    -0.413167046763E+03    0.50350E-05   -0.68341E-06  3233   0.344E-03    0.396E-03
RMM:  10    -0.413167044894E+03    0.18693E-05   -0.15505E-06  2520   0.209E-03    0.249E-03
RMM:  11    -0.413167041803E+03    0.30911E-05   -0.11943E-06  2510   0.173E-03    0.140E-03
RMM:  12    -0.413167039204E+03    0.25985E-05   -0.67361E-07  2454   0.135E-03    0.582E-04
RMM:  13    -0.413167037456E+03    0.17480E-05   -0.35547E-07  2091   0.988E-04    0.340E-04
RMM:  14    -0.413167035843E+03    0.16131E-05   -0.20893E-07  1596   0.781E-04    0.227E-04
RMM:  15    -0.413167032993E+03    0.28501E-05   -0.22520E-07  1503   0.759E-04    0.174E-04
RMM:  16    -0.413167030630E+03    0.23630E-05   -0.15580E-07  1288   0.680E-04    0.140E-04
RMM:  17    -0.413167028248E+03    0.23825E-05   -0.13471E-07  1306   0.661E-04    0.757E-05
RMM:  18    -0.413167027009E+03    0.12386E-05   -0.69896E-08   991   0.576E-04    0.450E-05
RMM:  19    -0.413167026012E+03    0.99710E-06   -0.43397E-08   852   0.550E-04
   13 T=    61. E= -.41286649E+03 F= -.41316703E+03 E0= -.41314472E+03  EK= 0.30054E+00 SP= 0.00E+00 SK= 0.00E+00
       N       E                     dE             d eps       ncg     rms          rms(c)
RMM:   1    -0.413167726888E+03   -0.69988E-03   -0.86608E+00  4293   0.653E-01    0.886E-01
RMM:   2    -0.413171799120E+03   -0.40722E-02   -0.10658E-01  4212   0.849E-02    0.646E-01
RMM:   3    -0.413168536675E+03    0.32624E-02   -0.18629E-02  4954   0.523E-02    0.136E-01
RMM:   4    -0.413201851246E+03   -0.33315E-01   -0.37052E-02  5119   0.160E-01    0.764E-01
RMM:   5    -0.413167453857E+03    0.34397E-01   -0.16162E-02  4786   0.127E-01    0.526E-02
RMM:   6    -0.413167671287E+03   -0.21743E-03   -0.29221E-03  5725   0.523E-02    0.356E-02
RMM:   7    -0.413167668421E+03    0.28663E-05   -0.48517E-04  5639   0.203E-02    0.227E-02
RMM:   8    -0.413167661036E+03    0.73850E-05   -0.69103E-05  5194   0.914E-03    0.105E-02
RMM:   9    -0.413167658101E+03    0.29348E-05   -0.13441E-05  3953   0.412E-03    0.746E-03
RMM:  10    -0.413167657820E+03    0.28055E-06   -0.21237E-06  2568   0.229E-03
   14 T=    61. E= -.41286656E+03 F= -.41316766E+03 E0= -.41314539E+03  EK= 0.30110E+00 SP= 0.00E+00 SK= 0.00E+00
       N       E                     dE             d eps       ncg     rms          rms(c)
RMM:   1    -0.413167812836E+03   -0.15474E-03   -0.87504E+00  4300   0.657E-01    0.893E-01
RMM:   2    -0.413172245159E+03   -0.44323E-02   -0.10774E-01  4312   0.875E-02    0.656E-01
RMM:   3    -0.413175887395E+03   -0.36422E-02   -0.25033E-02  5131   0.944E-02    0.385E-01
RMM:   4    -0.413188915647E+03   -0.13028E-01   -0.39767E-02  5058   0.171E-01    0.601E-01
RMM:   5    -0.413167687545E+03    0.21228E-01   -0.75800E-03  4634   0.983E-02    0.578E-02
RMM:   6    -0.413167692983E+03   -0.54373E-05   -0.15822E-03  5374   0.393E-02    0.312E-02
RMM:   7    -0.413167710527E+03   -0.17544E-04   -0.31124E-04  5912   0.164E-02    0.186E-02
RMM:   8    -0.413167708741E+03    0.17863E-05   -0.57357E-05  5102   0.879E-03    0.747E-03
RMM:   9    -0.413167707082E+03    0.16588E-05   -0.67327E-06  3201   0.346E-03    0.383E-03
RMM:  10    -0.413167708053E+03   -0.97068E-06   -0.14485E-06  2511   0.204E-03
   15 T=    61. E= -.41286623E+03 F= -.41316771E+03 E0= -.41314547E+03  EK= 0.30148E+00 SP= 0.00E+00 SK= 0.00E+00
       N       E                     dE             d eps       ncg     rms          rms(c)
RMM:   1    -0.413169331473E+03   -0.16244E-02   -0.87479E+00  4301   0.667E-01    0.910E-01
RMM:   2    -0.413173048266E+03   -0.37168E-02   -0.10714E-01  4229   0.883E-02    0.652E-01
RMM:   3    -0.413169620926E+03    0.34273E-02   -0.18337E-02  4949   0.535E-02    0.137E-01
RMM:   4    -0.413203700341E+03   -0.34079E-01   -0.37714E-02  5118   0.162E-01    0.772E-01
RMM:   5    -0.413168569868E+03    0.35130E-01   -0.16622E-02  4790   0.128E-01    0.531E-02
RMM:   6    -0.413168780605E+03   -0.21074E-03   -0.29301E-03  5738   0.533E-02    0.366E-02
RMM:   7    -0.413168766398E+03    0.14207E-04   -0.49844E-04  5693   0.209E-02    0.232E-02
RMM:   8    -0.413168754870E+03    0.11529E-04   -0.72046E-05  5196   0.944E-03    0.109E-02
RMM:   9    -0.413168749162E+03    0.57072E-05   -0.13648E-05  3939   0.419E-03    0.762E-03
RMM:  10    -0.413168745282E+03    0.38800E-05   -0.22831E-06  2587   0.239E-03    0.458E-03
RMM:  11    -0.413168742578E+03    0.27048E-05   -0.11516E-06  2505   0.174E-03    0.266E-03
RMM:  12    -0.413168737165E+03    0.54124E-05   -0.19360E-06  2592   0.207E-03    0.117E-03
RMM:  13    -0.413168734028E+03    0.31378E-05   -0.69492E-07  2429   0.141E-03    0.925E-04
RMM:  14    -0.413168734038E+03   -0.10798E-07   -0.26645E-07  1992   0.909E-04
   16 T=    62. E= -.41286656E+03 F= -.41316873E+03 E0= -.41314654E+03  EK= 0.30217E+00 SP= 0.00E+00 SK= 0.00E+00
       N       E                     dE             d eps       ncg     rms          rms(c)
RMM:   1    -0.413169396181E+03   -0.66215E-03   -0.86909E+00  4297   0.672E-01    0.892E-01
RMM:   2    -0.413173566515E+03   -0.41703E-02   -0.10692E-01  4245   0.900E-02    0.647E-01
RMM:   3    -0.413169840250E+03    0.37263E-02   -0.18175E-02  4893   0.520E-02    0.119E-01
RMM:   4    -0.413199662384E+03   -0.29822E-01   -0.32130E-02  5121   0.149E-01    0.722E-01
RMM:   5    -0.413169034286E+03    0.30628E-01   -0.14624E-02  4792   0.120E-01    0.504E-02
RMM:   6    -0.413169232726E+03   -0.19844E-03   -0.26832E-03  5769   0.497E-02    0.348E-02
RMM:   7    -0.413169222387E+03    0.10339E-04   -0.43430E-04  5626   0.200E-02    0.220E-02
RMM:   8    -0.413169209402E+03    0.12985E-04   -0.67650E-05  5070   0.915E-03    0.108E-02
RMM:   9    -0.413169204686E+03    0.47153E-05   -0.13265E-05  3940   0.414E-03    0.789E-03
RMM:  10    -0.413169201965E+03    0.27217E-05   -0.21501E-06  2579   0.235E-03    0.475E-03
RMM:  11    -0.413169200007E+03    0.19575E-05   -0.12140E-06  2506   0.180E-03    0.270E-03
RMM:  12    -0.413169196400E+03    0.36074E-05   -0.18706E-06  2573   0.208E-03    0.116E-03
RMM:  13    -0.413169194439E+03    0.19608E-05   -0.61161E-07  2392   0.137E-03    0.849E-04
RMM:  14    -0.413169194417E+03    0.22337E-07   -0.25716E-07  1971   0.887E-04
   17 T=    62. E= -.41286652E+03 F= -.41316919E+03 E0= -.41314704E+03  EK= 0.30267E+00 SP= 0.00E+00 SK= 0.00E+00
       N       E                     dE             d eps       ncg     rms          rms(c)
RMM:   1    -0.413169721519E+03   -0.52708E-03   -0.87799E+00  4296   0.669E-01    0.891E-01
RMM:   2    -0.413174132269E+03   -0.44108E-02   -0.10856E-01  4243   0.888E-02    0.657E-01
RMM:   3    -0.413170407899E+03    0.37244E-02   -0.19512E-02  4899   0.528E-02    0.121E-01
RMM:   4    -0.413200130365E+03   -0.29722E-01   -0.32241E-02  5118   0.149E-01    0.722E-01
RMM:   5    -0.413169535969E+03    0.30594E-01   -0.14657E-02  4787   0.120E-01    0.498E-02
RMM:   6    -0.413169732321E+03   -0.19635E-03   -0.26205E-03  5753   0.495E-02    0.336E-02
RMM:   7    -0.413169730444E+03    0.18771E-05   -0.43113E-04  5631   0.197E-02    0.216E-02
RMM:   8    -0.413169721251E+03    0.91928E-05   -0.67055E-05  5075   0.913E-03    0.104E-02
RMM:   9    -0.413169718397E+03    0.28546E-05   -0.13300E-05  3931   0.415E-03    0.762E-03
RMM:  10    -0.413169718438E+03   -0.41644E-07   -0.20478E-06  2567   0.230E-03
   18 T=    62. E= -.41286647E+03 F= -.41316972E+03 E0= -.41314760E+03  EK= 0.30324E+00 SP= 0.00E+00 SK= 0.00E+00
       N       E                     dE             d eps       ncg     rms          rms(c)
RMM:   1    -0.413171850806E+03   -0.21324E-02   -0.87953E+00  4301   0.690E-01    0.910E-01
RMM:   2    -0.413175006318E+03   -0.31555E-02   -0.10879E-01  4328   0.894E-02    0.655E-01
RMM:   3    -0.413178074674E+03   -0.30684E-02   -0.23293E-02  5131   0.898E-02    0.362E-01
RMM:   4    -0.413192701416E+03   -0.14627E-01   -0.38881E-02  5060   0.169E-01    0.609E-01
RMM:   5    -0.413170879643E+03    0.21822E-01   -0.78861E-03  4653   0.989E-02    0.583E-02
RMM:   6    -0.413170890932E+03   -0.11289E-04   -0.16525E-03  5406   0.404E-02    0.326E-02
RMM:   7    -0.413170897532E+03   -0.66004E-05   -0.32404E-04  5893   0.169E-02    0.193E-02
RMM:   8    -0.413170889986E+03    0.75459E-05   -0.58161E-05  5105   0.898E-03    0.778E-03
RMM:   9    -0.413170884358E+03    0.56281E-05   -0.71438E-06  3247   0.352E-03    0.400E-03
RMM:  10    -0.413170881952E+03    0.24066E-05   -0.15693E-06  2525   0.210E-03    0.252E-03
RMM:  11    -0.413170878146E+03    0.38053E-05   -0.11136E-06  2493   0.171E-03    0.139E-03
RMM:  12    -0.413170874734E+03    0.34125E-05   -0.65889E-07  2448   0.134E-03    0.558E-04
RMM:  13    -0.413170872534E+03    0.22000E-05   -0.34094E-07  2082   0.982E-04    0.330E-04
RMM:  14    -0.413170870640E+03    0.18940E-05   -0.19093E-07  1561   0.769E-04    0.223E-04
RMM:  15    -0.413170866873E+03    0.37670E-05   -0.19536E-07  1520   0.751E-04    0.183E-04
RMM:  16    -0.413170863982E+03    0.28909E-05   -0.12684E-07  1243   0.659E-04    0.144E-04
RMM:  17    -0.413170860956E+03    0.30260E-05   -0.11323E-07  1235   0.647E-04    0.732E-05
RMM:  18    -0.413170859072E+03    0.18841E-05   -0.66785E-08  1007   0.586E-04    0.521E-05
RMM:  19    -0.413170858100E+03    0.97157E-06   -0.35204E-08   823   0.550E-04
   19 T=    62. E= -.41286671E+03 F= -.41317086E+03 E0= -.41314878E+03  EK= 0.30415E+00 SP= 0.00E+00 SK= 0.00E+00
       N       E                     dE             d eps       ncg     rms          rms(c)
RMM:   1    -0.413171799515E+03   -0.94044E-03   -0.87496E+00  4293   0.691E-01    0.900E-01
RMM:   2    -0.413175204691E+03   -0.34052E-02   -0.10809E-01  4239   0.882E-02    0.649E-01
RMM:   3    -0.413172233481E+03    0.29712E-02   -0.18270E-02  4965   0.531E-02    0.142E-01
RMM:   4    -0.413207134902E+03   -0.34901E-01   -0.39184E-02  5123   0.165E-01    0.781E-01
RMM:   5    -0.413171104844E+03    0.36030E-01   -0.17131E-02  4790   0.130E-01    0.535E-02
RMM:   6    -0.413171312082E+03   -0.20724E-03   -0.29675E-03  5730   0.537E-02    0.366E-02
RMM:   7    -0.413171301478E+03    0.10604E-04   -0.49998E-04  5638   0.209E-02    0.231E-02
RMM:   8    -0.413171289120E+03    0.12358E-04   -0.74150E-05  5219   0.960E-03    0.108E-02
RMM:   9    -0.413171283088E+03    0.60323E-05   -0.14450E-05  4033   0.429E-03    0.750E-03
RMM:  10    -0.413171279577E+03    0.35111E-05   -0.22168E-06  2575   0.235E-03    0.460E-03
RMM:  11    -0.413171277378E+03    0.21984E-05   -0.10743E-06  2503   0.168E-03    0.271E-03
RMM:  12    -0.413171272928E+03    0.44503E-05   -0.16682E-06  2547   0.200E-03    0.116E-03
RMM:  13    -0.413171270357E+03    0.25713E-05   -0.69472E-07  2413   0.141E-03    0.938E-04
RMM:  14    -0.413171270284E+03    0.72578E-07   -0.27622E-07  2016   0.925E-04
   20 T=    62. E= -.41286636E+03 F= -.41317127E+03 E0= -.41314924E+03  EK= 0.30491E+00 SP= 0.00E+00 SK= 0.00E+00
       N       E                     dE             d eps       ncg     rms          rms(c)
RMM:   1    -0.413172355680E+03   -0.10853E-02   -0.88157E+00  4291   0.682E-01    0.891E-01
RMM:   2    -0.413176759437E+03   -0.44038E-02   -0.10927E-01  4246   0.889E-02    0.657E-01
RMM:   3    -0.413172966338E+03    0.37931E-02   -0.19382E-02  4889   0.513E-02    0.115E-01
RMM:   4    -0.413201129543E+03   -0.28163E-01   -0.30296E-02  5115   0.145E-01    0.702E-01
RMM:   5    -0.413172192843E+03    0.28937E-01   -0.13903E-02  4789   0.116E-01    0.491E-02
RMM:   6    -0.413172372812E+03   -0.17997E-03   -0.25072E-03  5783   0.480E-02    0.324E-02
RMM:   7    -0.413172374907E+03   -0.20955E-05   -0.39167E-04  5623   0.191E-02    0.206E-02
RMM:   8    -0.413172365976E+03    0.89316E-05   -0.69335E-05  5036   0.901E-03    0.106E-02
RMM:   9    -0.413172362404E+03    0.35718E-05   -0.13148E-05  3969   0.416E-03    0.781E-03
RMM:  10    -0.413172361729E+03    0.67489E-06   -0.19772E-06  2558   0.229E-03
   21 T=    62. E= -.41286644E+03 F= -.41317236E+03 E0= -.41315037E+03  EK= 0.30592E+00 SP= 0.00E+00 SK= 0.00E+00
       N       E                     dE             d eps       ncg     rms          rms(c)
RMM:   1    -0.413173950877E+03   -0.15885E-02   -0.88532E+00  4300   0.693E-01    0.909E-01
RMM:   2    -0.413177907881E+03   -0.39570E-02   -0.10918E-01  4334   0.891E-02    0.659E-01
RMM:   3    -0.413180204490E+03   -0.22966E-02   -0.23274E-02  5123   0.883E-02    0.350E-01
RMM:   4    -0.413197244283E+03   -0.17040E-01   -0.40551E-02  5073   0.172E-01    0.635E-01
RMM:   5    -0.413173469405E+03    0.23775E-01   -0.88062E-03  4659   0.103E-01    0.579E-02
RMM:   6    -0.413173501135E+03   -0.31730E-04   -0.18155E-03  5439   0.420E-02    0.325E-02
RMM:   7    -0.413173506033E+03   -0.48979E-05   -0.34345E-04  5873   0.171E-02    0.197E-02
RMM:   8    -0.413173498582E+03    0.74513E-05   -0.60232E-05  5115   0.898E-03    0.800E-03
RMM:   9    -0.413173493166E+03    0.54153E-05   -0.75370E-06  3292   0.354E-03    0.416E-03
RMM:  10    -0.413173490802E+03    0.23648E-05   -0.16693E-06  2533   0.211E-03    0.263E-03
RMM:  11    -0.413173487303E+03    0.34987E-05   -0.10779E-06  2489   0.169E-03    0.140E-03
RMM:  12    -0.413173483701E+03    0.36016E-05   -0.67938E-07  2449   0.135E-03    0.523E-04
RMM:  13    -0.413173481570E+03    0.21309E-05   -0.33547E-07  2075   0.978E-04    0.305E-04
RMM:  14    -0.413173479510E+03    0.20598E-05   -0.19129E-07  1595   0.769E-04    0.193E-04
RMM:  15    -0.413173476131E+03    0.33791E-05   -0.15908E-07  1380   0.716E-04    0.158E-04
RMM:  16    -0.413173473502E+03    0.26291E-05   -0.10679E-07  1175   0.651E-04    0.143E-04
RMM:  17    -0.413173470856E+03    0.26459E-05   -0.85673E-08  1129   0.630E-04    0.732E-05
RMM:  18    -0.413173468618E+03    0.22382E-05   -0.65174E-08  1058   0.603E-04    0.410E-05
RMM:  19    -0.413173467445E+03    0.11727E-05   -0.31939E-08   826   0.559E-04    0.290E-05
RMM:  20    -0.413173467061E+03    0.38419E-06   -0.16441E-08   714   0.542E-04
   22 T=    62. E= -.41286653E+03 F= -.41317347E+03 E0= -.41315152E+03  EK= 0.30694E+00 SP= 0.00E+00 SK= 0.00E+00
       N       E                     dE             d eps       ncg     rms          rms(c)
RMM:   1    -0.413174611506E+03   -0.11441E-02   -0.88294E+00  4291   0.696E-01    0.909E-01
RMM:   2    -0.413178540087E+03   -0.39286E-02   -0.10884E-01  4267   0.893E-02    0.653E-01
RMM:   3    -0.413174970929E+03    0.35692E-02   -0.18259E-02  4924   0.538E-02    0.135E-01
RMM:   4    -0.413209078062E+03   -0.34107E-01   -0.37614E-02  5119   0.161E-01    0.771E-01
RMM:   5    -0.413173976621E+03    0.35101E-01   -0.16803E-02  4788   0.128E-01    0.530E-02
RMM:   6    -0.413174174766E+03   -0.19814E-03   -0.29695E-03  5753   0.529E-02    0.368E-02
RMM:   7    -0.413174163838E+03    0.10928E-04   -0.48898E-04  5625   0.210E-02    0.231E-02
RMM:   8    -0.413174151295E+03    0.12543E-04   -0.76173E-05  5179   0.972E-03    0.112E-02
RMM:   9    -0.413174144715E+03    0.65799E-05   -0.14728E-05  4067   0.436E-03    0.785E-03
RMM:  10    -0.413174140150E+03    0.45650E-05   -0.23009E-06  2591   0.240E-03    0.478E-03
RMM:  11    -0.413174137158E+03    0.29923E-05   -0.11200E-06  2501   0.172E-03    0.285E-03
RMM:  12    -0.413174131075E+03    0.60829E-05   -0.18586E-06  2570   0.210E-03    0.123E-03
RMM:  13    -0.413174127333E+03    0.37423E-05   -0.71620E-07  2410   0.144E-03    0.101E-03
RMM:  14    -0.413174127586E+03   -0.25357E-06   -0.28152E-07  2038   0.934E-04
   23 T=    63. E= -.41286632E+03 F= -.41317413E+03 E0= -.41315223E+03  EK= 0.30780E+00 SP= 0.00E+00 SK= 0.00E+00
       N       E                     dE             d eps       ncg     rms          rms(c)
RMM:   1    -0.413178609032E+03   -0.44817E-02   -0.88849E+00  4294   0.726E-01    0.894E-01
RMM:   2    -0.413180505672E+03   -0.18966E-02   -0.10973E-01  4270   0.916E-02    0.657E-01
RMM:   3    -0.413176189512E+03    0.43162E-02   -0.19136E-02  4817   0.526E-02    0.104E-01
RMM:   4    -0.413200650186E+03   -0.24461E-01   -0.25679E-02  5121   0.134E-01    0.656E-01
RMM:   5    -0.413175581986E+03    0.25068E-01   -0.12205E-02  4801   0.108E-01    0.474E-02
RMM:   6    -0.413175725842E+03   -0.14386E-03   -0.21703E-03  5810   0.441E-02    0.304E-02
RMM:   7    -0.413175726940E+03   -0.10979E-05   -0.29697E-04  5654   0.172E-02    0.175E-02
RMM:   8    -0.413175719945E+03    0.69955E-05   -0.61078E-05  4998   0.829E-03    0.105E-02
RMM:   9    -0.413175715009E+03    0.49360E-05   -0.11940E-05  3925   0.402E-03    0.766E-03
RMM:  10    -0.413175713278E+03    0.17311E-05   -0.18393E-06  2544   0.227E-03    0.456E-03
RMM:  11    -0.413175711738E+03    0.15395E-05   -0.14787E-06  2526   0.193E-03    0.240E-03
RMM:  12    -0.413175709309E+03    0.24287E-05   -0.14834E-06  2522   0.189E-03    0.100E-03
RMM:  13    -0.413175708175E+03    0.11344E-05   -0.48294E-07  2304   0.123E-03    0.634E-04
RMM:  14    -0.413175707876E+03    0.29954E-06   -0.22453E-07  1817   0.833E-04
   24 T=    63. E= -.41286673E+03 F= -.41317571E+03 E0= -.41315386E+03  EK= 0.30898E+00 SP= 0.00E+00 SK= 0.00E+00
       N       E                     dE             d eps       ncg     rms          rms(c)
RMM:   1    -0.413177785601E+03   -0.20774E-02   -0.89333E+00  4293   0.720E-01    0.908E-01
RMM:   2    -0.413181337898E+03   -0.35523E-02   -0.11056E-01  4273   0.920E-02    0.663E-01
RMM:   3    -0.413177297051E+03    0.40408E-02   -0.19127E-02  4881   0.530E-02    0.113E-01
RMM:   4    -0.413205687920E+03   -0.28391E-01   -0.30283E-02  5126   0.145E-01    0.704E-01
RMM:   5    -0.413176574876E+03    0.29113E-01   -0.14024E-02  4796   0.117E-01    0.498E-02
RMM:   6    -0.413176747490E+03   -0.17261E-03   -0.25422E-03  5804   0.482E-02    0.341E-02
RMM:   7    -0.413176742543E+03    0.49463E-05   -0.41526E-04  5606   0.197E-02    0.214E-02
RMM:   8    -0.413176730429E+03    0.12114E-04   -0.67528E-05  5058   0.920E-03    0.107E-02
RMM:   9    -0.413176725117E+03    0.53118E-05   -0.13210E-05  3938   0.416E-03    0.778E-03
RMM:  10    -0.413176722171E+03    0.29461E-05   -0.20492E-06  2565   0.232E-03    0.466E-03
RMM:  11    -0.413176719950E+03    0.22213E-05   -0.12219E-06  2505   0.180E-03    0.260E-03
RMM:  12    -0.413176716103E+03    0.38472E-05   -0.16939E-06  2541   0.201E-03    0.112E-03
RMM:  13    -0.413176713748E+03    0.23551E-05   -0.56419E-07  2366   0.133E-03    0.812E-04
RMM:  14    -0.413176713767E+03   -0.19463E-07   -0.24973E-07  1937   0.872E-04
   25 T=    63. E= -.41286663E+03 F= -.41317671E+03 E0= -.41315492E+03  EK= 0.31008E+00 SP= 0.00E+00 SK= 0.00E+00
       N       E                     dE             d eps       ncg     rms          rms(c)
RMM:   1    -0.413178645121E+03   -0.19314E-02   -0.89238E+00  4296   0.717E-01    0.918E-01
RMM:   2    -0.413182233338E+03   -0.35882E-02   -0.11050E-01  4272   0.937E-02    0.658E-01
RMM:   3    -0.413178447811E+03    0.37855E-02   -0.18127E-02  4826   0.517E-02    0.106E-01
RMM:   4    -0.413204193800E+03   -0.25746E-01   -0.26906E-02  5134   0.137E-01    0.671E-01
RMM:   5    -0.413177899101E+03    0.26295E-01   -0.12903E-02  4799   0.111E-01    0.490E-02
RMM:   6    -0.413178033941E+03   -0.13484E-03   -0.22965E-03  5817   0.456E-02    0.325E-02
RMM:   7    -0.413178026703E+03    0.72386E-05   -0.33278E-04  5632   0.184E-02    0.190E-02
RMM:   8    -0.413178015535E+03    0.11167E-04   -0.65442E-05  4994   0.877E-03    0.109E-02
RMM:   9    -0.413178008249E+03    0.72861E-05   -0.12608E-05  4008   0.416E-03    0.800E-03
RMM:  10    -0.413178002727E+03    0.55223E-05   -0.20199E-06  2568   0.237E-03    0.474E-03
RMM:  11    -0.413177997921E+03    0.48055E-05   -0.14035E-06  2523   0.190E-03    0.261E-03
RMM:  12    -0.413177990386E+03    0.75351E-05   -0.16651E-06  2552   0.201E-03    0.109E-03
RMM:  13    -0.413177986543E+03    0.38432E-05   -0.53184E-07  2341   0.130E-03    0.707E-04
RMM:  14    -0.413177986393E+03    0.15037E-06   -0.24846E-07  1890   0.868E-04
   26 T=    63. E= -.41286655E+03 F= -.41317799E+03 E0= -.41315624E+03  EK= 0.31144E+00 SP= 0.00E+00 SK= 0.00E+00
       N       E                     dE             d eps       ncg     rms          rms(c)
RMM:   1    -0.413182436512E+03   -0.44500E-02   -0.89434E+00  4293   0.742E-01    0.898E-01
RMM:   2    -0.413184164105E+03   -0.17276E-02   -0.11316E-01  4270   0.972E-02    0.658E-01
RMM:   3    -0.413180222618E+03    0.39415E-02   -0.18548E-02  4784   0.524E-02    0.977E-02
RMM:   4    -0.413203070898E+03   -0.22848E-01   -0.23710E-02  5132   0.129E-01    0.633E-01
RMM:   5    -0.413179727119E+03    0.23344E-01   -0.11495E-02  4806   0.105E-01    0.471E-02
RMM:   6    -0.413179852207E+03   -0.12509E-03   -0.20389E-03  5831   0.428E-02    0.306E-02
RMM:   7    -0.413179851907E+03    0.30027E-06   -0.29137E-04  5618   0.173E-02    0.175E-02
RMM:   8    -0.413179844603E+03    0.73040E-05   -0.57969E-05  4965   0.824E-03    0.103E-02
RMM:   9    -0.413179839303E+03    0.53001E-05   -0.11357E-05  3844   0.395E-03    0.758E-03
RMM:  10    -0.413179836372E+03    0.29306E-05   -0.18216E-06  2542   0.230E-03    0.448E-03
RMM:  11    -0.413179833525E+03    0.28475E-05   -0.14352E-06  2520   0.193E-03    0.233E-03
RMM:  12    -0.413179829575E+03    0.39499E-05   -0.14095E-06  2513   0.186E-03    0.983E-04
RMM:  13    -0.413179827774E+03    0.18003E-05   -0.46945E-07  2299   0.121E-03    0.616E-04
RMM:  14    -0.413179827355E+03    0.41950E-06   -0.22070E-07  1797   0.826E-04
   27 T=    64. E= -.41286675E+03 F= -.41317983E+03 E0= -.41315813E+03  EK= 0.31308E+00 SP= 0.00E+00 SK= 0.00E+00
       N       E                     dE             d eps       ncg     rms          rms(c)
RMM:   1    -0.413181113370E+03   -0.12856E-02   -0.90268E+00  4291   0.724E-01    0.909E-01
RMM:   2    -0.413185374764E+03   -0.42614E-02   -0.11276E-01  4269   0.976E-02    0.668E-01
RMM:   3    -0.413181244055E+03    0.41307E-02   -0.19608E-02  4738   0.539E-02    0.948E-02
RMM:   4    -0.413202233302E+03   -0.20989E-01   -0.21685E-02  5131   0.123E-01    0.608E-01
RMM:   5    -0.413180766350E+03    0.21467E-01   -0.10588E-02  4806   0.100E-01    0.463E-02
RMM:   6    -0.413180883355E+03   -0.11701E-03   -0.19039E-03  5833   0.413E-02    0.302E-02
RMM:   7    -0.413180884289E+03   -0.93338E-06   -0.28317E-04  5607   0.171E-02    0.175E-02
RMM:   8    -0.413180877623E+03    0.66661E-05   -0.54054E-05  4947   0.804E-03    0.101E-02
RMM:   9    -0.413180873044E+03    0.45785E-05   -0.10306E-05  3709   0.380E-03    0.739E-03
RMM:  10    -0.413180870950E+03    0.20940E-05   -0.17691E-06  2532   0.226E-03    0.430E-03
RMM:  11    -0.413180868747E+03    0.22033E-05   -0.14709E-06  2532   0.193E-03    0.218E-03
RMM:  12    -0.413180865847E+03    0.28997E-05   -0.12546E-06  2502   0.176E-03    0.941E-04
RMM:  13    -0.413180864488E+03    0.13593E-05   -0.44594E-07  2259   0.117E-03    0.595E-04
RMM:  14    -0.413180863926E+03    0.56110E-06   -0.21072E-07  1776   0.815E-04
   28 T=    64. E= -.41286637E+03 F= -.41318086E+03 E0= -.41315922E+03  EK= 0.31449E+00 SP= 0.00E+00 SK= 0.00E+00
       N       E                     dE             d eps       ncg     rms          rms(c)
RMM:   1    -0.413183835042E+03   -0.29706E-02   -0.90438E+00  4293   0.748E-01    0.926E-01
RMM:   2    -0.413187345219E+03   -0.35102E-02   -0.11293E-01  4272   0.100E-01    0.664E-01
RMM:   3    -0.413183135731E+03    0.42095E-02   -0.18414E-02  4659   0.501E-02    0.857E-02
RMM:   4    -0.413197901361E+03   -0.14766E-01   -0.15022E-02  5139   0.102E-01    0.512E-01
RMM:   5    -0.413182887313E+03    0.15014E-01   -0.75546E-03  4818   0.843E-02    0.451E-02
RMM:   6    -0.413182955004E+03   -0.67691E-04   -0.13902E-03  5835   0.348E-02    0.278E-02
RMM:   7    -0.413182948212E+03    0.67923E-05   -0.16810E-04  5462   0.140E-02    0.130E-02
RMM:   8    -0.413182940612E+03    0.75999E-05   -0.21753E-05  4196   0.506E-03    0.802E-03
RMM:   9    -0.413182935615E+03    0.49970E-05   -0.46512E-06  2892   0.280E-03    0.482E-03
RMM:  10    -0.413182932812E+03    0.28028E-05   -0.10717E-06  2479   0.176E-03    0.340E-03
RMM:  11    -0.413182925442E+03    0.73702E-05   -0.17339E-06  2543   0.215E-03    0.192E-03
RMM:  12    -0.413182921270E+03    0.41719E-05   -0.82443E-07  2432   0.153E-03    0.115E-03
RMM:  13    -0.413182919449E+03    0.18211E-05   -0.31401E-07  2160   0.100E-03    0.535E-04
RMM:  14    -0.413182917588E+03    0.18606E-05   -0.15694E-07  1575   0.736E-04    0.346E-04
RMM:  15    -0.413182913210E+03    0.43787E-05   -0.18035E-07  1866   0.777E-04    0.353E-04
RMM:  16    -0.413182910644E+03    0.25651E-05   -0.72920E-08  1123   0.616E-04    0.225E-04
RMM:  17    -0.413182906354E+03    0.42909E-05   -0.63620E-08  1007   0.604E-04    0.162E-04
RMM:  18    -0.413182903790E+03    0.25638E-05   -0.41168E-08   885   0.569E-04    0.443E-05
RMM:  19    -0.413182901831E+03    0.19585E-05   -0.32004E-08   883   0.571E-04    0.749E-05
RMM:  20    -0.413182901615E+03    0.21645E-06   -0.10926E-08   675   0.539E-04
   29 T=    64. E= -.41286661E+03 F= -.41318290E+03 E0= -.41316130E+03  EK= 0.31629E+00 SP= 0.00E+00 SK= 0.00E+00
       N       E                     dE             d eps       ncg     rms          rms(c)
RMM:   1    -0.413186750078E+03   -0.38482E-02   -0.90326E+00  4289   0.780E-01    0.907E-01
RMM:   2    -0.413189565816E+03   -0.28157E-02   -0.11580E-01  4269   0.111E-01    0.662E-01
RMM:   3    -0.413184994214E+03    0.45716E-02   -0.18454E-02  4600   0.567E-02    0.828E-02
RMM:   4    -0.413199479129E+03   -0.14485E-01   -0.14649E-02  5137   0.101E-01    0.507E-01
RMM:   5    -0.413184741703E+03    0.14737E-01   -0.74132E-03  4814   0.836E-02    0.442E-02
RMM:   6    -0.413184808238E+03   -0.66534E-04   -0.13530E-03  5829   0.343E-02    0.271E-02
RMM:   7    -0.413184810813E+03   -0.25751E-05   -0.19264E-04  5514   0.145E-02    0.147E-02
RMM:   8    -0.413184800376E+03    0.10436E-04   -0.30269E-05  4683   0.606E-03    0.850E-03
RMM:   9    -0.413184799052E+03    0.13237E-05   -0.71072E-06  3316   0.320E-03    0.662E-03
RMM:  10    -0.413184795640E+03    0.34121E-05   -0.14610E-06  2510   0.212E-03    0.364E-03
RMM:  11    -0.413184792551E+03    0.30894E-05   -0.11682E-06  2502   0.174E-03    0.191E-03
RMM:  12    -0.413184788957E+03    0.35938E-05   -0.91907E-07  2463   0.153E-03    0.100E-03
RMM:  13    -0.413184787570E+03    0.13876E-05   -0.34788E-07  2171   0.104E-03    0.495E-04
RMM:  14    -0.413184786631E+03    0.93909E-06   -0.16398E-07  1565   0.747E-04
   30 T=    65. E= -.41286662E+03 F= -.41318479E+03 E0= -.41316324E+03  EK= 0.31816E+00 SP= 0.00E+00 SK= 0.00E+00
       N       E                     dE             d eps       ncg     rms          rms(c)
RMM:   1    -0.413186634586E+03   -0.18470E-02   -0.91421E+00  4295   0.751E-01    0.912E-01
RMM:   2    -0.413191672134E+03   -0.50375E-02   -0.11531E-01  4271   0.111E-01    0.673E-01
RMM:   3    -0.413186682688E+03    0.49894E-02   -0.20124E-02  4540   0.614E-02    0.775E-02
RMM:   4    -0.413198643417E+03   -0.11961E-01   -0.12033E-02  5138   0.927E-02    0.462E-01
RMM:   5    -0.413186425967E+03    0.12217E-01   -0.61244E-03  4818   0.760E-02    0.430E-02
RMM:   6    -0.413186486795E+03   -0.60828E-04   -0.11716E-03  5825   0.319E-02    0.269E-02
RMM:   7    -0.413186493177E+03   -0.63820E-05   -0.22899E-04  5440   0.156E-02    0.172E-02
RMM:   8    -0.413186478085E+03    0.15092E-04   -0.31776E-05  4701   0.665E-03    0.834E-03
RMM:   9    -0.413186476938E+03    0.11469E-05   -0.60354E-06  3088   0.304E-03    0.608E-03
RMM:  10    -0.413186474775E+03    0.21630E-05   -0.16412E-06  2508   0.214E-03    0.327E-03
RMM:  11    -0.413186472716E+03    0.20594E-05   -0.10986E-06  2499   0.171E-03    0.169E-03
RMM:  12    -0.413186470325E+03    0.23912E-05   -0.75080E-07  2444   0.141E-03    0.905E-04
RMM:  13    -0.413186469049E+03    0.12757E-05   -0.31802E-07  2090   0.976E-04    0.412E-04
RMM:  14    -0.413186467803E+03    0.12465E-05   -0.16438E-07  1513   0.740E-04    0.269E-04
RMM:  15    -0.413186465244E+03    0.25583E-05   -0.12537E-07  1406   0.697E-04    0.139E-04
RMM:  16    -0.413186463061E+03    0.21837E-05   -0.72711E-08  1055   0.631E-04    0.117E-04
RMM:  17    -0.413186461146E+03    0.19148E-05   -0.49094E-08   935   0.595E-04    0.764E-05
RMM:  18    -0.413186457919E+03    0.32268E-05   -0.57173E-08  1020   0.609E-04    0.295E-05
RMM:  19    -0.413186457187E+03    0.73186E-06   -0.21220E-08   772   0.557E-04
   31 T=    65. E= -.41286644E+03 F= -.41318646E+03 E0= -.41316496E+03  EK= 0.32002E+00 SP= 0.00E+00 SK= 0.00E+00
       N       E                     dE             d eps       ncg     rms          rms(c)
RMM:   1    -0.413201832627E+03   -0.15375E-01   -0.92953E+00  4292   0.854E-01    0.932E-01
RMM:   2    -0.413193905069E+03    0.79276E-02   -0.13069E-01  4271   0.121E-01    0.673E-01
RMM:   3    -0.413189074213E+03    0.48309E-02   -0.17495E-02  4389   0.604E-02    0.855E-02
RMM:   4    -0.413194572811E+03   -0.54986E-02   -0.58095E-03  5149   0.640E-02    0.314E-01
RMM:   5    -0.413189046731E+03    0.55261E-02   -0.28570E-03  4829   0.521E-02    0.424E-02
RMM:   6    -0.413189092072E+03   -0.45341E-04   -0.75046E-04  5704   0.261E-02    0.298E-02
RMM:   7    -0.413189072631E+03    0.19442E-04   -0.25475E-04  5192   0.167E-02    0.179E-02
RMM:   8    -0.413189059866E+03    0.12764E-04   -0.23425E-05  4519   0.603E-03    0.756E-03
RMM:   9    -0.413189057443E+03    0.24229E-05   -0.30543E-06  2691   0.235E-03    0.492E-03
RMM:  10    -0.413189052709E+03    0.47343E-05   -0.12821E-06  2490   0.185E-03    0.268E-03
RMM:  11    -0.413189048169E+03    0.45401E-05   -0.86577E-07  2444   0.150E-03    0.122E-03
RMM:  12    -0.413189044195E+03    0.39740E-05   -0.46705E-07  2243   0.113E-03    0.563E-04
RMM:  13    -0.413189041468E+03    0.27273E-05   -0.25591E-07  1833   0.853E-04    0.285E-04
RMM:  14    -0.413189038576E+03    0.28918E-05   -0.13022E-07  1259   0.690E-04    0.183E-04
RMM:  15    -0.413189034682E+03    0.38936E-05   -0.91535E-08  1123   0.650E-04    0.947E-05
RMM:  16    -0.413189031817E+03    0.28657E-05   -0.61926E-08  1001   0.617E-04    0.691E-05
RMM:  17    -0.413189028680E+03    0.31368E-05   -0.58582E-08  1098   0.613E-04    0.536E-05
RMM:  18    -0.413189026042E+03    0.26385E-05   -0.43060E-08   988   0.582E-04    0.336E-05
RMM:  19    -0.413189025280E+03    0.76149E-06   -0.19154E-08   743   0.535E-04
   32 T=    66. E= -.41286680E+03 F= -.41318903E+03 E0= -.41316758E+03  EK= 0.32223E+00 SP= 0.00E+00 SK= 0.00E+00
       N       E                     dE             d eps       ncg     rms          rms(c)
RMM:   1    -0.413201438394E+03   -0.12412E-01   -0.92527E+00  4298   0.859E-01    0.920E-01
RMM:   2    -0.413195575010E+03    0.58634E-02   -0.12863E-01  4273   0.122E-01    0.669E-01
RMM:   3    -0.413190999372E+03    0.45756E-02   -0.17693E-02  4380   0.631E-02    0.787E-02
RMM:   4    -0.413195053102E+03   -0.40537E-02   -0.43607E-03  5153   0.554E-02    0.271E-01
RMM:   5    -0.413190977672E+03    0.40754E-02   -0.21263E-03  4827   0.450E-02    0.420E-02
RMM:   6    -0.413191018978E+03   -0.41305E-04   -0.67084E-04  5659   0.245E-02    0.305E-02
RMM:   7    -0.413190988616E+03    0.30362E-04   -0.24506E-04  5136   0.162E-02    0.179E-02
RMM:   8    -0.413190978220E+03    0.10396E-04   -0.23631E-05  4496   0.581E-03    0.717E-03
RMM:   9    -0.413190976190E+03    0.20294E-05   -0.28450E-06  2650   0.227E-03    0.457E-03
RMM:  10    -0.413190971975E+03    0.42159E-05   -0.10986E-06  2482   0.173E-03    0.250E-03
RMM:  11    -0.413190967900E+03    0.40747E-05   -0.76496E-07  2413   0.138E-03    0.107E-03
RMM:  12    -0.413190964249E+03    0.36505E-05   -0.40660E-07  2169   0.105E-03    0.473E-04
RMM:  13    -0.413190961492E+03    0.27576E-05   -0.22311E-07  1717   0.811E-04    0.265E-04
RMM:  14    -0.413190958588E+03    0.29037E-05   -0.11165E-07  1168   0.672E-04    0.183E-04
RMM:  15    -0.413190954685E+03    0.39036E-05   -0.83562E-08  1075   0.641E-04    0.843E-05
RMM:  16    -0.413190951967E+03    0.27177E-05   -0.55301E-08   950   0.612E-04    0.702E-05
RMM:  17    -0.413190948778E+03    0.31889E-05   -0.56284E-08  1085   0.613E-04    0.550E-05
RMM:  18    -0.413190946650E+03    0.21282E-05   -0.35236E-08   922   0.570E-04    0.413E-05
RMM:  19    -0.413190945989E+03    0.66100E-06   -0.15554E-08   670   0.528E-04
   33 T=    66. E= -.41286658E+03 F= -.41319095E+03 E0= -.41316955E+03  EK= 0.32437E+00 SP= 0.00E+00 SK= 0.00E+00
       N       E                     dE             d eps       ncg     rms          rms(c)
RMM:   1    -0.413193815761E+03   -0.28691E-02   -0.92735E+00  4304   0.797E-01    0.917E-01
RMM:   2    -0.413198113268E+03   -0.42975E-02   -0.11934E-01  4269   0.123E-01    0.678E-01
RMM:   3    -0.413193407931E+03    0.47053E-02   -0.20349E-02  4363   0.710E-02    0.641E-02
RMM:   4    -0.413197749097E+03   -0.43412E-02   -0.44627E-03  5151   0.568E-02    0.282E-01
RMM:   5    -0.413193309381E+03    0.44397E-02   -0.23047E-03  4828   0.467E-02    0.411E-02
RMM:   6    -0.413193352440E+03   -0.43059E-04   -0.69273E-04  5670   0.245E-02    0.294E-02
RMM:   7    -0.413193333384E+03    0.19056E-04   -0.24163E-04  5162   0.161E-02    0.185E-02
RMM:   8    -0.413193322599E+03    0.10784E-04   -0.22121E-05  4306   0.568E-03    0.728E-03
RMM:   9    -0.413193321498E+03    0.11010E-05   -0.27888E-06  2630   0.228E-03    0.469E-03
RMM:  10    -0.413193319715E+03    0.17831E-05   -0.12729E-06  2480   0.182E-03    0.246E-03
RMM:  11    -0.413193318151E+03    0.15639E-05   -0.80600E-07  2424   0.142E-03    0.114E-03
RMM:  12    -0.413193316323E+03    0.18279E-05   -0.45399E-07  2191   0.110E-03    0.491E-04
RMM:  13    -0.413193314851E+03    0.14729E-05   -0.24048E-07  1774   0.832E-04    0.276E-04
RMM:  14    -0.413193312978E+03    0.18721E-05   -0.12489E-07  1208   0.683E-04    0.205E-04
RMM:  15    -0.413193310313E+03    0.26659E-05   -0.94015E-08  1098   0.649E-04    0.897E-05
RMM:  16    -0.413193308532E+03    0.17803E-05   -0.58641E-08   961   0.612E-04    0.679E-05
RMM:  17    -0.413193305858E+03    0.26743E-05   -0.55883E-08  1015   0.606E-04    0.458E-05
RMM:  18    -0.413193304333E+03    0.15246E-05   -0.30656E-08   835   0.567E-04    0.335E-05
RMM:  19    -0.413193303667E+03    0.66659E-06   -0.15503E-08   682   0.540E-04
   34 T=    67. E= -.41286661E+03 F= -.41319330E+03 E0= -.41317195E+03  EK= 0.32669E+00 SP= 0.00E+00 SK= 0.00E+00
       N       E                     dE             d eps       ncg     rms          rms(c)
RMM:   1    -0.413204870710E+03   -0.11566E-01   -0.94097E+00  4300   0.886E-01    0.936E-01
RMM:   2    -0.413200457678E+03    0.44130E-02   -0.13487E-01  4268   0.132E-01    0.682E-01
RMM:   3    -0.413195992200E+03    0.44655E-02   -0.17860E-02  4282   0.692E-02    0.791E-02
RMM:   4    -0.413197058002E+03   -0.10658E-02   -0.14994E-03  5174   0.317E-02    0.141E-01
RMM:   5    -0.413196027484E+03    0.10305E-02   -0.61181E-04  4813   0.246E-02    0.423E-02
RMM:   6    -0.413196060313E+03   -0.32829E-04   -0.48709E-04  5421   0.217E-02    0.320E-02
RMM:   7    -0.413196016370E+03    0.43943E-04   -0.21325E-04  4902   0.157E-02    0.185E-02
RMM:   8    -0.413196009990E+03    0.63804E-05   -0.29585E-05  4662   0.569E-03    0.659E-03
RMM:   9    -0.413196008673E+03    0.13172E-05   -0.35127E-06  2543   0.226E-03    0.307E-03
RMM:  10    -0.413196004182E+03    0.44909E-05   -0.91879E-07  2378   0.160E-03    0.164E-03
RMM:  11    -0.413196000301E+03    0.38810E-05   -0.45262E-07  2164   0.106E-03    0.670E-04
RMM:  12    -0.413195996332E+03    0.39686E-05   -0.25139E-07  1622   0.840E-04    0.249E-04
RMM:  13    -0.413195992598E+03    0.37338E-05   -0.14416E-07  1262   0.718E-04    0.226E-04
RMM:  14    -0.413195989607E+03    0.29916E-05   -0.76525E-08   872   0.633E-04    0.156E-04
RMM:  15    -0.413195984095E+03    0.55114E-05   -0.93233E-08  1062   0.653E-04    0.818E-05
RMM:  16    -0.413195980910E+03    0.31852E-05   -0.53767E-08   873   0.598E-04    0.932E-05
RMM:  17    -0.413195979003E+03    0.19074E-05   -0.25691E-08   652   0.555E-04    0.399E-05
RMM:  18    -0.413195978089E+03    0.91426E-06   -0.17378E-08   590   0.539E-04
   35 T=    67. E= -.41286678E+03 F= -.41319598E+03 E0= -.41317467E+03  EK= 0.32920E+00 SP= 0.00E+00 SK= 0.00E+00
       N       E                     dE             d eps       ncg     rms          rms(c)
RMM:   1    -0.413202375128E+03   -0.63961E-02   -0.93617E+00  4300   0.894E-01    0.936E-01
RMM:   2    -0.413202408325E+03   -0.33197E-04   -0.12366E-01  4257   0.133E-01    0.676E-01
RMM:   3    -0.413198205669E+03    0.42027E-02   -0.18836E-02  4378   0.713E-02    0.739E-02
RMM:   4    -0.413201934448E+03   -0.37288E-02   -0.39507E-03  5170   0.534E-02    0.262E-01
RMM:   5    -0.413198185678E+03    0.37488E-02   -0.19930E-03  4823   0.438E-02    0.430E-02
RMM:   6    -0.413198219287E+03   -0.33609E-04   -0.67083E-04  5594   0.256E-02    0.325E-02
RMM:   7    -0.413198189148E+03    0.30139E-04   -0.26764E-04  5086   0.171E-02    0.189E-02
RMM:   8    -0.413198178775E+03    0.10374E-04   -0.29263E-05  4787   0.618E-03    0.788E-03
RMM:   9    -0.413198176626E+03    0.21485E-05   -0.40074E-06  2717   0.243E-03    0.431E-03
RMM:  10    -0.413198171582E+03    0.50447E-05   -0.12016E-06  2492   0.183E-03    0.240E-03
RMM:  11    -0.413198166694E+03    0.48876E-05   -0.71872E-07  2412   0.134E-03    0.103E-03
RMM:  12    -0.413198162062E+03    0.46322E-05   -0.38761E-07  2142   0.103E-03    0.435E-04
RMM:  13    -0.413198158190E+03    0.38716E-05   -0.21051E-07  1680   0.809E-04    0.264E-04
RMM:  14    -0.413198154785E+03    0.34057E-05   -0.10405E-07  1174   0.670E-04    0.193E-04
RMM:  15    -0.413198149966E+03    0.48188E-05   -0.71989E-08  1026   0.637E-04    0.893E-05
RMM:  16    -0.413198146461E+03    0.35048E-05   -0.55977E-08  1032   0.619E-04    0.741E-05
RMM:  17    -0.413198143848E+03    0.26130E-05   -0.42354E-08  1009   0.592E-04    0.476E-05
RMM:  18    -0.413198140622E+03    0.32257E-05   -0.36996E-08   998   0.581E-04    0.354E-05
RMM:  19    -0.413198140140E+03    0.48194E-06   -0.11590E-08   631   0.518E-04
   36 T=    68. E= -.41286655E+03 F= -.41319814E+03 E0= -.41317688E+03  EK= 0.33159E+00 SP= 0.00E+00 SK= 0.00E+00
       N       E                     dE             d eps       ncg     rms          rms(c)
RMM:   1    -0.413206146278E+03   -0.80057E-02   -0.94534E+00  4307   0.898E-01    0.925E-01
RMM:   2    -0.413206012249E+03    0.13403E-03   -0.12429E-01  4252   0.131E-01    0.683E-01
RMM:   3    -0.413201204497E+03    0.48078E-02   -0.20142E-02  4474   0.694E-02    0.721E-02
RMM:   4    -0.413210096214E+03   -0.88917E-02   -0.90010E-03  5157   0.802E-02    0.401E-01
RMM:   5    -0.413201063486E+03    0.90327E-02   -0.46158E-03  4825   0.664E-02    0.438E-02
RMM:   6    -0.413201089273E+03   -0.25787E-04   -0.10323E-03  5732   0.308E-02    0.310E-02
RMM:   7    -0.413201087611E+03    0.16618E-05   -0.31195E-04  5287   0.178E-02    0.200E-02
RMM:   8    -0.413201072998E+03    0.14613E-04   -0.33369E-05  4831   0.692E-03    0.894E-03
RMM:   9    -0.413201071682E+03    0.13166E-05   -0.53236E-06  2911   0.285E-03    0.542E-03
RMM:  10    -0.413201069577E+03    0.21043E-05   -0.16460E-06  2529   0.214E-03    0.287E-03
RMM:  11    -0.413201067134E+03    0.24430E-05   -0.10491E-06  2476   0.168E-03    0.144E-03
RMM:  12    -0.413201064473E+03    0.26615E-05   -0.62941E-07  2380   0.130E-03    0.711E-04
RMM:  13    -0.413201062687E+03    0.17860E-05   -0.31764E-07  1973   0.942E-04    0.340E-04
RMM:  14    -0.413201060825E+03    0.18624E-05   -0.16480E-07  1476   0.736E-04    0.214E-04
RMM:  15    -0.413201057988E+03    0.28365E-05   -0.10026E-07  1146   0.661E-04    0.119E-04
RMM:  16    -0.413201055539E+03    0.24487E-05   -0.69449E-08  1003   0.628E-04    0.735E-05
RMM:  17    -0.413201053693E+03    0.18461E-05   -0.42635E-08   891   0.599E-04    0.461E-05
RMM:  18    -0.413201050446E+03    0.32476E-05   -0.55681E-08  1138   0.621E-04    0.321E-05
RMM:  19    -0.413201049613E+03    0.83276E-06   -0.21987E-08   772   0.551E-04
   37 T=    68. E= -.41286679E+03 F= -.41320105E+03 E0= -.41317983E+03  EK= 0.33426E+00 SP= 0.00E+00 SK= 0.00E+00
       N       E                     dE             d eps       ncg     rms          rms(c)
RMM:   1    -0.413210989614E+03   -0.99392E-02   -0.95675E+00  4308   0.943E-01    0.943E-01
RMM:   2    -0.413208834180E+03    0.21554E-02   -0.12979E-01  4249   0.128E-01    0.690E-01
RMM:   3    -0.413204081619E+03    0.47526E-02   -0.19549E-02  4711   0.655E-02    0.105E-01
RMM:   4    -0.413230648139E+03   -0.26567E-01   -0.27291E-02  5135   0.138E-01    0.683E-01
RMM:   5    -0.413203642095E+03    0.27006E-01   -0.13555E-02  4806   0.113E-01    0.502E-02
RMM:   6    -0.413203690166E+03   -0.48071E-04   -0.22870E-03  5831   0.454E-02    0.325E-02
RMM:   7    -0.413203703401E+03   -0.13235E-04   -0.34789E-04  5605   0.182E-02    0.190E-02
RMM:   8    -0.413203692002E+03    0.11398E-04   -0.61057E-05  5026   0.840E-03    0.104E-02
RMM:   9    -0.413203690709E+03    0.12936E-05   -0.15143E-05  4235   0.456E-03    0.735E-03
RMM:  10    -0.413203686514E+03    0.41951E-05   -0.22546E-06  2620   0.248E-03    0.409E-03
RMM:  11    -0.413203683996E+03    0.25180E-05   -0.11020E-06  2499   0.172E-03    0.250E-03
RMM:  12    -0.413203678070E+03    0.59262E-05   -0.16474E-06  2532   0.204E-03    0.131E-03
RMM:  13    -0.413203675083E+03    0.29863E-05   -0.59585E-07  2369   0.135E-03    0.783E-04
RMM:  14    -0.413203674489E+03    0.59405E-06   -0.24748E-07  1956   0.883E-04
   38 T=    69. E= -.41286677E+03 F= -.41320367E+03 E0= -.41318250E+03  EK= 0.33690E+00 SP= 0.00E+00 SK= 0.00E+00
       N       E                     dE             d eps       ncg     rms          rms(c)
RMM:   1    -0.413217661648E+03   -0.13987E-01   -0.96238E+00  4307   0.102E+00    0.954E-01
RMM:   2    -0.413211410976E+03    0.62507E-02   -0.13036E-01  4250   0.125E-01    0.685E-01
RMM:   3    -0.413206819616E+03    0.45914E-02   -0.19030E-02  4848   0.611E-02    0.127E-01
RMM:   4    -0.413240871282E+03   -0.34052E-01   -0.35794E-02  5130   0.158E-01    0.770E-01
RMM:   5    -0.413206172499E+03    0.34699E-01   -0.17242E-02  4798   0.128E-01    0.538E-02
RMM:   6    -0.413206252912E+03   -0.80412E-04   -0.29158E-03  5820   0.509E-02    0.351E-02
RMM:   7    -0.413206262296E+03   -0.93844E-05   -0.38778E-04  5646   0.190E-02    0.191E-02
RMM:   8    -0.413206250583E+03    0.11713E-04   -0.61751E-05  5029   0.826E-03    0.108E-02
RMM:   9    -0.413206248223E+03    0.23600E-05   -0.19989E-05  4495   0.486E-03    0.798E-03
RMM:  10    -0.413206240805E+03    0.74186E-05   -0.27691E-06  2667   0.269E-03    0.447E-03
RMM:  11    -0.413206236639E+03    0.41657E-05   -0.12893E-06  2498   0.187E-03    0.275E-03
RMM:  12    -0.413206226434E+03    0.10205E-04   -0.18609E-06  2544   0.219E-03    0.137E-03
RMM:  13    -0.413206221665E+03    0.47694E-05   -0.68708E-07  2414   0.147E-03    0.887E-04
RMM:  14    -0.413206220974E+03    0.69092E-06   -0.27283E-07  2087   0.942E-04
   39 T=    69. E= -.41286662E+03 F= -.41320622E+03 E0= -.41318508E+03  EK= 0.33960E+00 SP= 0.00E+00 SK= 0.00E+00
       N       E                     dE             d eps       ncg     rms          rms(c)
RMM:   1    -0.413219578155E+03   -0.13356E-01   -0.96514E+00  4310   0.103E+00    0.935E-01
RMM:   2    -0.413214938037E+03    0.46401E-02   -0.13534E-01  4251   0.127E-01    0.689E-01
RMM:   3    -0.413210289239E+03    0.46488E-02   -0.19446E-02  4921   0.654E-02    0.146E-01
RMM:   4    -0.413252061810E+03   -0.41773E-01   -0.45598E-02  5134   0.178E-01    0.851E-01
RMM:   5    -0.413209234828E+03    0.42827E-01   -0.20943E-02  4789   0.142E-01    0.562E-02
RMM:   6    -0.413209353150E+03   -0.11832E-03   -0.35299E-03  5824   0.557E-02    0.356E-02
RMM:   7    -0.413209366180E+03   -0.13030E-04   -0.42103E-04  5670   0.194E-02    0.187E-02
RMM:   8    -0.413209361511E+03    0.46696E-05   -0.53606E-05  4839   0.735E-03    0.982E-03
RMM:   9    -0.413209356986E+03    0.45240E-05   -0.14429E-05  3997   0.403E-03    0.656E-03
RMM:  10    -0.413209354782E+03    0.22041E-05   -0.40517E-06  2860   0.266E-03    0.440E-03
RMM:  11    -0.413209350951E+03    0.38314E-05   -0.14055E-06  2492   0.201E-03    0.261E-03
RMM:  12    -0.413209343140E+03    0.78112E-05   -0.17445E-06  2516   0.211E-03    0.109E-03
RMM:  13    -0.413209340180E+03    0.29600E-05   -0.58920E-07  2415   0.138E-03    0.820E-04
RMM:  14    -0.413209339923E+03    0.25660E-06   -0.25441E-07  2039   0.898E-04
   40 T=    70. E= -.41286689E+03 F= -.41320934E+03 E0= -.41318824E+03  EK= 0.34245E+00 SP= 0.00E+00 SK= 0.00E+00
       N       E                     dE             d eps       ncg     rms          rms(c)
RMM:   1    -0.413216560877E+03   -0.72207E-02   -0.97251E+00  4310   0.104E+00    0.949E-01
RMM:   2    -0.413217222071E+03   -0.66119E-03   -0.13338E-01  4258   0.133E-01    0.699E-01
RMM:   3    -0.413212913915E+03    0.43082E-02   -0.20902E-02  4964   0.695E-02    0.170E-01
RMM:   4    -0.413258210034E+03   -0.45296E-01   -0.51557E-02  5130   0.190E-01    0.887E-01
RMM:   5    -0.413211370428E+03    0.46840E-01   -0.22444E-02  4789   0.148E-01    0.582E-02
RMM:   6    -0.413211500628E+03   -0.13020E-03   -0.38095E-03  5819   0.579E-02    0.361E-02
RMM:   7    -0.413211516167E+03   -0.15538E-04   -0.45994E-04  5714   0.201E-02    0.198E-02
RMM:   8    -0.413211516884E+03   -0.71751E-06   -0.84733E-05  5172   0.915E-03    0.122E-02
RMM:   9    -0.413211508710E+03    0.81740E-05   -0.23938E-05  4582   0.531E-03    0.766E-03
RMM:  10    -0.413211505181E+03    0.35290E-05   -0.40462E-06  2794   0.296E-03    0.455E-03
RMM:  11    -0.413211502390E+03    0.27912E-05   -0.14966E-06  2497   0.205E-03    0.279E-03
RMM:  12    -0.413211495683E+03    0.67073E-05   -0.17365E-06  2532   0.212E-03    0.114E-03
RMM:  13    -0.413211491489E+03    0.41937E-05   -0.73044E-07  2444   0.147E-03    0.809E-04
RMM:  14    -0.413211490855E+03    0.63395E-06   -0.30035E-07  2121   0.969E-04
   41 T=    70. E= -.41286658E+03 F= -.41321149E+03 E0= -.41319042E+03  EK= 0.34491E+00 SP= 0.00E+00 SK= 0.00E+00
       N       E                     dE             d eps       ncg     rms          rms(c)
RMM:   1    -0.413232862616E+03   -0.21371E-01   -0.98723E+00  4311   0.119E+00    0.967E-01
RMM:   2    -0.413219388437E+03    0.13474E-01   -0.14589E-01  4284   0.136E-01    0.696E-01
RMM:   3    -0.413216592440E+03    0.27960E-02   -0.19787E-02  5047   0.736E-02    0.232E-01
RMM:   4    -0.413262051530E+03   -0.45459E-01   -0.57208E-02  5111   0.201E-01    0.898E-01
RMM:   5    -0.413214005212E+03    0.48046E-01   -0.22172E-02  4770   0.149E-01    0.622E-02
RMM:   6    -0.413214129692E+03   -0.12448E-03   -0.38678E-03  5796   0.586E-02    0.383E-02
RMM:   7    -0.413214136589E+03   -0.68971E-05   -0.51900E-04  5717   0.213E-02    0.233E-02
RMM:   8    -0.413214135615E+03    0.97399E-06   -0.13096E-04  5243   0.117E-02    0.144E-02
RMM:   9    -0.413214120863E+03    0.14752E-04   -0.24142E-05  4578   0.597E-03    0.677E-03
RMM:  10    -0.413214114993E+03    0.58699E-05   -0.52876E-06  3002   0.300E-03    0.418E-03
RMM:  11    -0.413214110436E+03    0.45573E-05   -0.13286E-06  2502   0.197E-03    0.245E-03
RMM:  12    -0.413214101125E+03    0.93111E-05   -0.12301E-06  2483   0.187E-03    0.984E-04
RMM:  13    -0.413214095082E+03    0.60427E-05   -0.58505E-07  2393   0.133E-03    0.592E-04
RMM:  14    -0.413214093858E+03    0.12245E-05   -0.27828E-07  2039   0.927E-04    0.407E-04
RMM:  15    -0.413214091448E+03    0.24098E-05   -0.14253E-07  1504   0.723E-04    0.252E-04
RMM:  16    -0.413214083693E+03    0.77548E-05   -0.13493E-07  1600   0.739E-04    0.303E-04
RMM:  17    -0.413214081826E+03    0.18670E-05   -0.54436E-08   961   0.590E-04    0.200E-04
RMM:  18    -0.413214075993E+03    0.58325E-05   -0.69841E-08  1313   0.637E-04    0.149E-04
RMM:  19    -0.413214074019E+03    0.19740E-05   -0.33968E-08   924   0.558E-04    0.609E-05
RMM:  20    -0.413214072349E+03    0.16702E-05   -0.31740E-08   970   0.569E-04    0.737E-05
RMM:  21    -0.413214072201E+03    0.14799E-06   -0.13541E-08   705   0.526E-04
   42 T=    71. E= -.41286674E+03 F= -.41321407E+03 E0= -.41319304E+03  EK= 0.34734E+00 SP= 0.00E+00 SK= 0.00E+00
       N       E                     dE             d eps       ncg     rms          rms(c)
RMM:   1    -0.413235216452E+03   -0.21144E-01   -0.98535E+00  4312   0.123E+00    0.945E-01
RMM:   2    -0.413221640736E+03    0.13576E-01   -0.15139E-01  4299   0.143E-01    0.696E-01
RMM:   3    -0.413220195807E+03    0.14449E-02   -0.20429E-02  5069   0.825E-02    0.283E-01
RMM:   4    -0.413260341429E+03   -0.40146E-01   -0.57373E-02  5095   0.202E-01    0.861E-01
RMM:   5    -0.413216176241E+03    0.44165E-01   -0.19358E-02  4751   0.143E-01    0.625E-02
RMM:   6    -0.413216269720E+03   -0.93479E-04   -0.35202E-03  5769   0.559E-02    0.375E-02
RMM:   7    -0.413216275962E+03   -0.62421E-05   -0.52136E-04  5723   0.211E-02    0.244E-02
RMM:   8    -0.413216273830E+03    0.21322E-05   -0.12924E-04  5204   0.119E-02    0.133E-02
RMM:   9    -0.413216262244E+03    0.11586E-04   -0.20233E-05  4423   0.571E-03    0.576E-03
RMM:  10    -0.413216258873E+03    0.33715E-05   -0.45841E-06  2900   0.278E-03    0.363E-03
RMM:  11    -0.413216255801E+03    0.30721E-05   -0.12828E-06  2497   0.190E-03    0.202E-03
RMM:  12    -0.413216250290E+03    0.55106E-05   -0.10105E-06  2480   0.166E-03    0.782E-04
RMM:  13    -0.413216246688E+03    0.36019E-05   -0.48239E-07  2311   0.119E-03    0.414E-04
RMM:  14    -0.413216245382E+03    0.13063E-05   -0.24468E-07  1893   0.867E-04    0.294E-04
RMM:  15    -0.413216242864E+03    0.25182E-05   -0.13670E-07  1431   0.713E-04    0.142E-04
RMM:  16    -0.413216238953E+03    0.39112E-05   -0.97207E-08  1190   0.669E-04    0.123E-04
RMM:  17    -0.413216236836E+03    0.21169E-05   -0.59753E-08  1037   0.623E-04    0.765E-05
RMM:  18    -0.413216233967E+03    0.28687E-05   -0.52661E-08  1102   0.622E-04    0.536E-05
RMM:  19    -0.413216231555E+03    0.24121E-05   -0.43023E-08  1087   0.599E-04    0.327E-05
RMM:  20    -0.413216230740E+03    0.81524E-06   -0.21034E-08   823   0.551E-04
   43 T=    71. E= -.41286682E+03 F= -.41321623E+03 E0= -.41319522E+03  EK= 0.34941E+00 SP= 0.00E+00 SK= 0.00E+00
       N       E                     dE             d eps       ncg     rms          rms(c)
RMM:   1    -0.413238124604E+03   -0.21893E-01   -0.99828E+00  4314   0.128E+00    0.947E-01
RMM:   2    -0.413223331106E+03    0.14793E-01   -0.16379E-01  4308   0.154E-01    0.709E-01
RMM:   3    -0.413222323917E+03    0.10072E-02   -0.20659E-02  5060   0.878E-02    0.313E-01
RMM:   4    -0.413262965675E+03   -0.40642E-01   -0.60839E-02  5101   0.209E-01    0.874E-01
RMM:   5    -0.413217452317E+03    0.45513E-01   -0.19659E-02  4733   0.145E-01    0.642E-02
RMM:   6    -0.413217536990E+03   -0.84673E-04   -0.35800E-03  5745   0.565E-02    0.367E-02
RMM:   7    -0.413217544967E+03   -0.79764E-05   -0.53959E-04  5768   0.211E-02    0.246E-02
RMM:   8    -0.413217542941E+03    0.20254E-05   -0.13359E-04  5201   0.121E-02    0.131E-02
RMM:   9    -0.413217533061E+03    0.98800E-05   -0.21391E-05  4474   0.588E-03    0.530E-03
RMM:  10    -0.413217530864E+03    0.21967E-05   -0.48953E-06  2908   0.277E-03    0.338E-03
RMM:  11    -0.413217528440E+03    0.24248E-05   -0.13601E-06  2502   0.191E-03    0.184E-03
RMM:  12    -0.413217524517E+03    0.39225E-05   -0.89074E-07  2467   0.156E-03    0.735E-04
RMM:  13    -0.413217521818E+03    0.26988E-05   -0.44766E-07  2232   0.112E-03    0.345E-04
RMM:  14    -0.413217520173E+03    0.16458E-05   -0.23276E-07  1767   0.838E-04    0.226E-04
RMM:  15    -0.413217517004E+03    0.31683E-05   -0.15587E-07  1412   0.733E-04    0.120E-04
RMM:  16    -0.413217514711E+03    0.22929E-05   -0.95157E-08  1181   0.664E-04    0.914E-05
RMM:  17    -0.413217512655E+03    0.20568E-05   -0.69910E-08  1135   0.636E-04    0.599E-05
RMM:  18    -0.413217510024E+03    0.26310E-05   -0.57105E-08  1148   0.623E-04    0.353E-05
RMM:  19    -0.413217508175E+03    0.18486E-05   -0.37253E-08   991   0.585E-04    0.301E-05
RMM:  20    -0.413217507504E+03    0.67068E-06   -0.22727E-08   849   0.555E-04
   44 T=    71. E= -.41286659E+03 F= -.41321751E+03 E0= -.41319653E+03  EK= 0.35092E+00 SP= 0.00E+00 SK= 0.00E+00
       N       E                     dE             d eps       ncg     rms          rms(c)
RMM:   1    -0.413248820393E+03   -0.31312E-01   -0.10050E+01  4312   0.140E+00    0.972E-01
RMM:   2    -0.413224296744E+03    0.24524E-01   -0.16161E-01  4314   0.163E-01    0.705E-01
RMM:   3    -0.413226066363E+03   -0.17696E-02   -0.22579E-02  5080   0.995E-02    0.377E-01
RMM:   4    -0.413252118947E+03   -0.26053E-01   -0.51782E-02  5069   0.195E-01    0.751E-01
RMM:   5    -0.413218966753E+03    0.33152E-01   -0.13259E-02  4701   0.124E-01    0.621E-02
RMM:   6    -0.413218982581E+03   -0.15828E-04   -0.25921E-03  5680   0.487E-02    0.367E-02
RMM:   7    -0.413218982034E+03    0.54707E-06   -0.43801E-04  5677   0.199E-02    0.241E-02
RMM:   8    -0.413218975601E+03    0.64337E-05   -0.12455E-04  5119   0.120E-02    0.120E-02
RMM:   9    -0.413218963184E+03    0.12417E-04   -0.17038E-05  4341   0.564E-03    0.486E-03
RMM:  10    -0.413218959167E+03    0.40165E-05   -0.38462E-06  2800   0.254E-03    0.297E-03
RMM:  11    -0.413218954213E+03    0.49540E-05   -0.12240E-06  2495   0.184E-03    0.159E-03
RMM:  12    -0.413218947727E+03    0.64867E-05   -0.73120E-07  2432   0.145E-03    0.670E-04
RMM:  13    -0.413218943918E+03    0.38084E-05   -0.35768E-07  2078   0.103E-03    0.312E-04
RMM:  14    -0.413218940980E+03    0.29388E-05   -0.19730E-07  1625   0.796E-04    0.195E-04
RMM:  15    -0.413218935525E+03    0.54546E-05   -0.13975E-07  1373   0.723E-04    0.134E-04
RMM:  16    -0.413218932908E+03    0.26165E-05   -0.84166E-08  1152   0.654E-04    0.887E-05
RMM:  17    -0.413218928905E+03    0.40040E-05   -0.75106E-08  1262   0.651E-04    0.524E-05
RMM:  18    -0.413218925977E+03    0.29276E-05   -0.52234E-08  1118   0.605E-04    0.406E-05
RMM:  19    -0.413218923858E+03    0.21191E-05   -0.37779E-08  1024   0.576E-04    0.256E-05
RMM:  20    -0.413218923467E+03    0.39076E-06   -0.17539E-08   740   0.532E-04
   45 T=    72. E= -.41286689E+03 F= -.41321892E+03 E0= -.41319797E+03  EK= 0.35203E+00 SP= 0.00E+00 SK= 0.00E+00
       N       E                     dE             d eps       ncg     rms          rms(c)
RMM:   1    -0.413244015098E+03   -0.25091E-01   -0.99106E+00  4312   0.146E+00    0.955E-01
RMM:   2    -0.413224159262E+03    0.19856E-01   -0.15514E-01  4333   0.172E-01    0.699E-01
RMM:   3    -0.413228366094E+03   -0.42068E-02   -0.24952E-02  5093   0.112E-01    0.429E-01
RMM:   4    -0.413245368024E+03   -0.17002E-01   -0.47985E-02  5057   0.190E-01    0.674E-01
RMM:   5    -0.413218789122E+03    0.26579E-01   -0.97453E-03  4657   0.112E-01    0.599E-02
RMM:   6    -0.413218770446E+03    0.18675E-04   -0.20887E-03  5608   0.436E-02    0.348E-02
RMM:   7    -0.413218764173E+03    0.62732E-05   -0.36812E-04  5595   0.187E-02    0.229E-02
RMM:   8    -0.413218754522E+03    0.96517E-05   -0.12290E-04  5096   0.119E-02    0.111E-02
RMM:   9    -0.413218743034E+03    0.11488E-04   -0.15375E-05  4245   0.544E-03    0.458E-03
RMM:  10    -0.413218739623E+03    0.34104E-05   -0.31527E-06  2734   0.238E-03    0.270E-03
RMM:  11    -0.413218734865E+03    0.47581E-05   -0.11560E-06  2483   0.177E-03    0.142E-03
RMM:  12    -0.413218729384E+03    0.54808E-05   -0.66531E-07  2415   0.137E-03    0.669E-04
RMM:  13    -0.413218725876E+03    0.35086E-05   -0.32313E-07  1973   0.973E-04    0.307E-04
RMM:  14    -0.413218722819E+03    0.30567E-05   -0.17918E-07  1496   0.759E-04    0.177E-04
RMM:  15    -0.413218717975E+03    0.48437E-05   -0.13233E-07  1317   0.708E-04    0.123E-04
RMM:  16    -0.413218715397E+03    0.25782E-05   -0.82418E-08  1125   0.650E-04    0.849E-05
RMM:  17    -0.413218710816E+03    0.45808E-05   -0.83834E-08  1350   0.663E-04    0.595E-05
RMM:  18    -0.413218708762E+03    0.20543E-05   -0.47562E-08  1055   0.583E-04    0.377E-05
RMM:  19    -0.413218706897E+03    0.18648E-05   -0.34488E-08   960   0.561E-04    0.209E-05
RMM:  20    -0.413218706553E+03    0.34376E-06   -0.18942E-08   745   0.522E-04
   46 T=    72. E= -.41286668E+03 F= -.41321871E+03 E0= -.41319777E+03  EK= 0.35203E+00 SP= 0.00E+00 SK= 0.00E+00
       N       E                     dE             d eps       ncg     rms          rms(c)
RMM:   1    -0.413232944570E+03   -0.14238E-01   -0.98399E+00  4312   0.147E+00    0.947E-01
RMM:   2    -0.413223473244E+03    0.94713E-02   -0.15233E-01  4351   0.178E-01    0.708E-01
RMM:   3    -0.413229640815E+03   -0.61676E-02   -0.28105E-02  5087   0.123E-01    0.468E-01
RMM:   4    -0.413242754285E+03   -0.13113E-01   -0.49017E-02  5037   0.193E-01    0.651E-01
RMM:   5    -0.413217803586E+03    0.24951E-01   -0.86780E-03  4631   0.108E-01    0.591E-02
RMM:   6    -0.413217765037E+03    0.38549E-04   -0.18634E-03  5547   0.415E-02    0.326E-02
RMM:   7    -0.413217764582E+03    0.45518E-06   -0.33269E-04  5610   0.179E-02    0.220E-02
RMM:   8    -0.413217756796E+03    0.77851E-05   -0.12556E-04  5090   0.119E-02    0.106E-02
RMM:   9    -0.413217746642E+03    0.10155E-04   -0.14670E-05  4185   0.540E-03    0.440E-03
RMM:  10    -0.413217744415E+03    0.22270E-05   -0.30128E-06  2710   0.235E-03    0.257E-03
RMM:  11    -0.413217741089E+03    0.33254E-05   -0.12261E-06  2495   0.179E-03    0.132E-03
RMM:  12    -0.413217737493E+03    0.35960E-05   -0.67551E-07  2403   0.136E-03    0.680E-04
RMM:  13    -0.413217734852E+03    0.26416E-05   -0.33247E-07  1918   0.966E-04    0.306E-04
RMM:  14    -0.413217732378E+03    0.24742E-05   -0.19187E-07  1457   0.762E-04    0.171E-04
RMM:  15    -0.413217729026E+03    0.33512E-05   -0.14732E-07  1336   0.717E-04    0.115E-04
RMM:  16    -0.413217726973E+03    0.20537E-05   -0.94086E-08  1164   0.655E-04    0.848E-05
RMM:  17    -0.413217723085E+03    0.38871E-05   -0.97590E-08  1385   0.670E-04    0.582E-05
RMM:  18    -0.413217721607E+03    0.14782E-05   -0.48606E-08   978   0.568E-04    0.346E-05
RMM:  19    -0.413217720290E+03    0.13168E-05   -0.34924E-08   908   0.547E-04    0.199E-05
RMM:  20    -0.413217719631E+03    0.65900E-06   -0.22973E-08   790   0.524E-04
   47 T=    71. E= -.41286676E+03 F= -.41321772E+03 E0= -.41319680E+03  EK= 0.35096E+00 SP= 0.00E+00 SK= 0.00E+00
       N       E                     dE             d eps       ncg     rms          rms(c)
RMM:   1    -0.413249009108E+03   -0.31289E-01   -0.99184E+00  4308   0.165E+00    0.961E-01
RMM:   2    -0.413221240171E+03    0.27769E-01   -0.17304E-01  4393   0.196E-01    0.707E-01
RMM:   3    -0.413232219764E+03   -0.10980E-01   -0.28891E-02  5117   0.135E-01    0.562E-01
RMM:   4    -0.413233586443E+03   -0.13667E-02   -0.45389E-02  5017   0.188E-01    0.559E-01
RMM:   5    -0.413215741368E+03    0.17845E-01   -0.60829E-03  4570   0.979E-02    0.598E-02
RMM:   6    -0.413215658465E+03    0.82904E-04   -0.12069E-03  5255   0.357E-02    0.322E-02
RMM:   7    -0.413215654083E+03    0.43820E-05   -0.25018E-04  5564   0.159E-02    0.211E-02
RMM:   8    -0.413215646018E+03    0.80642E-05   -0.14179E-04  5137   0.125E-02    0.115E-02
RMM:   9    -0.413215631158E+03    0.14860E-04   -0.16976E-05  4370   0.588E-03    0.444E-03
RMM:  10    -0.413215628094E+03    0.30645E-05   -0.32304E-06  2741   0.235E-03    0.249E-03
RMM:  11    -0.413215622279E+03    0.58144E-05   -0.13390E-06  2484   0.188E-03    0.132E-03
RMM:  12    -0.413215618199E+03    0.40805E-05   -0.60023E-07  2398   0.134E-03    0.753E-04
RMM:  13    -0.413215614183E+03    0.40155E-05   -0.29808E-07  1850   0.951E-04    0.365E-04
RMM:  14    -0.413215610045E+03    0.41380E-05   -0.16660E-07  1427   0.751E-04    0.198E-04
RMM:  15    -0.413215606187E+03    0.38580E-05   -0.11225E-07  1234   0.680E-04    0.122E-04
RMM:  16    -0.413215603276E+03    0.29112E-05   -0.80726E-08  1185   0.638E-04    0.104E-04
RMM:  17    -0.413215599386E+03    0.38905E-05   -0.73287E-08  1224   0.622E-04    0.581E-05
RMM:  18    -0.413215596942E+03    0.24440E-05   -0.44707E-08   990   0.564E-04    0.484E-05
RMM:  19    -0.413215596109E+03    0.83317E-06   -0.22026E-08   726   0.518E-04
   48 T=    71. E= -.41286700E+03 F= -.41321560E+03 E0= -.41319468E+03  EK= 0.34860E+00 SP= 0.00E+00 SK= 0.00E+00
       N       E                     dE             d eps       ncg     rms          rms(c)
RMM:   1    -0.413243924220E+03   -0.28327E-01   -0.97160E+00  4306   0.176E+00    0.951E-01
RMM:   2    -0.413216521448E+03    0.27403E-01   -0.16707E-01  4434   0.206E-01    0.695E-01
RMM:   3    -0.413234096679E+03   -0.17575E-01   -0.33995E-02  5136   0.152E-01    0.652E-01
RMM:   4    -0.413223338563E+03    0.10758E-01   -0.42760E-02  4974   0.186E-01    0.463E-01
[...]
RMM:  16    -0.413155816147E+03   -0.42118E-05   -0.25492E-07  1422   0.706E-04    0.117E-04
RMM:  17    -0.413155818824E+03   -0.26764E-05   -0.13866E-07  1244   0.627E-04    0.668E-05
RMM:  18    -0.413155821555E+03   -0.27314E-05   -0.10810E-07  1209   0.606E-04    0.490E-05
RMM:  19    -0.413155822108E+03   -0.55251E-06   -0.42117E-08   891   0.528E-04
  140 T=    54. E= -.41288993E+03 F= -.41315582E+03 E0= -.41313491E+03  EK= 0.26589E+00 SP= 0.00E+00 SK= 0.00E+00
       N       E                     dE             d eps       ncg     rms          rms(c)
RMM:   1    -0.413066992567E+03    0.88829E-01   -0.59270E+00  4301   0.114E+00    0.920E-01
RMM:   2    -0.413061884657E+03    0.51079E-02   -0.71888E-02  4487   0.127E-01    0.679E-01
RMM:   3    -0.413060666537E+03    0.12181E-02   -0.74188E-02  5167   0.144E-01    0.514E-01
RMM:   4    -0.413060518949E+03    0.14759E-03   -0.15542E-02  5008   0.118E-01    0.473E-01
RMM:   5    -0.413052687889E+03    0.78311E-02   -0.76377E-03  4940   0.865E-02    0.896E-02
RMM:   6    -0.413052700281E+03   -0.12392E-04   -0.90018E-04  5450   0.288E-02    0.352E-02
RMM:   7    -0.413052728232E+03   -0.27950E-04   -0.14496E-04  5291   0.125E-02    0.210E-02
RMM:   8    -0.413052805677E+03   -0.77446E-04   -0.85142E-05  5423   0.109E-02    0.159E-02
RMM:   9    -0.413052835675E+03   -0.29998E-04   -0.16735E-05  4132   0.536E-03    0.824E-03
RMM:  10    -0.413052867150E+03   -0.31475E-04   -0.15487E-05  4323   0.455E-03    0.280E-03
RMM:  11    -0.413052891801E+03   -0.24651E-04   -0.23852E-06  2626   0.230E-03    0.181E-03
RMM:  12    -0.413052913917E+03   -0.22116E-04   -0.15647E-06  2593   0.171E-03    0.107E-03
RMM:  13    -0.413052942912E+03   -0.28995E-04   -0.25324E-06  2638   0.172E-03    0.598E-04
RMM:  14    -0.413052955505E+03   -0.12593E-04   -0.11526E-06  1914   0.105E-03    0.399E-04
RMM:  15    -0.413052965933E+03   -0.10428E-04   -0.82427E-07  1876   0.975E-04    0.236E-04
RMM:  16    -0.413052972505E+03   -0.65722E-05   -0.50744E-07  1581   0.799E-04    0.125E-04
RMM:  17    -0.413052975645E+03   -0.31398E-05   -0.24005E-07  1274   0.646E-04    0.698E-05
RMM:  18    -0.413052977983E+03   -0.23380E-05   -0.13950E-07  1185   0.596E-04    0.543E-05
RMM:  19    -0.413052978774E+03   -0.79082E-06   -0.56724E-08   932   0.525E-04
  141 T=    51. E= -.41280173E+03 F= -.41305298E+03 E0= -.41303214E+03  EK= 0.25125E+00 SP= 0.00E+00 SK= 0.00E+00
       N       E                     dE             d eps       ncg     rms          rms(c)
RMM:   1    -0.413084075817E+03   -0.31098E-01   -0.11606E+01  4301   0.166E+00    0.158E+00
RMM:   2    -0.413022662536E+03    0.61413E-01   -0.14956E-01  4518   0.178E-01    0.875E-01
RMM:   3    -0.413016826431E+03    0.58361E-02   -0.60192E-02  5208   0.106E-01    0.244E-01
RMM:   4    -0.413038393379E+03   -0.21567E-01   -0.33352E-02  5121   0.160E-01    0.645E-01
RMM:   5    -0.413014422368E+03    0.23971E-01   -0.10611E-02  4770   0.113E-01    0.732E-02
RMM:   6    -0.413014417984E+03    0.43840E-05   -0.20868E-03  5643   0.460E-02    0.407E-02
RMM:   7    -0.413014475220E+03   -0.57236E-04   -0.55588E-04  5793   0.237E-02    0.309E-02
RMM:   8    -0.413014446315E+03    0.28905E-04   -0.22385E-04  5083   0.165E-02    0.140E-02
RMM:   9    -0.413014429055E+03    0.17259E-04   -0.39236E-05  5094   0.738E-03    0.771E-03
RMM:  10    -0.413014419343E+03    0.97118E-05   -0.77750E-06  3027   0.315E-03    0.441E-03
RMM:  11    -0.413014402845E+03    0.16498E-04   -0.57937E-06  2834   0.306E-03    0.258E-03
RMM:  12    -0.413014380978E+03    0.21867E-04   -0.60579E-06  2767   0.275E-03    0.188E-03
RMM:  13    -0.413014374122E+03    0.68565E-05   -0.17725E-06  2534   0.147E-03    0.984E-04
RMM:  14    -0.413014364688E+03    0.94341E-05   -0.12074E-06  2245   0.123E-03    0.703E-04
RMM:  15    -0.413014355318E+03    0.93702E-05   -0.13060E-06  2176   0.118E-03    0.396E-04
RMM:  16    -0.413014352264E+03    0.30537E-05   -0.42720E-07  1447   0.787E-04    0.193E-04
RMM:  17    -0.413014348939E+03    0.33246E-05   -0.34026E-07  1540   0.781E-04    0.119E-04
RMM:  18    -0.413014348461E+03    0.47839E-06   -0.11544E-07  1163   0.606E-04
  142 T=    54. E= -.41275045E+03 F= -.41301435E+03 E0= -.41299359E+03  EK= 0.26390E+00 SP= 0.00E+00 SK= 0.00E+00
       N       E                     dE             d eps       ncg     rms          rms(c)
RMM:   1    -0.413054650965E+03   -0.40302E-01   -0.28946E+00  4276   0.108E+00    0.516E-01
RMM:   2    -0.413052858306E+03    0.17927E-02   -0.36518E-02  4549   0.103E-01    0.390E-01
RMM:   3    -0.413052795580E+03    0.62726E-04   -0.25280E-02  5191   0.910E-02    0.252E-01
RMM:   4    -0.413058673301E+03   -0.58777E-02   -0.12503E-02  5085   0.101E-01    0.401E-01
RMM:   5    -0.413050075964E+03    0.85973E-02   -0.47870E-03  4907   0.751E-02    0.579E-02
RMM:   6    -0.413050000274E+03    0.75690E-04   -0.80959E-04  5554   0.279E-02    0.228E-02
RMM:   7    -0.413050010872E+03   -0.10597E-04   -0.15611E-04  5551   0.122E-02    0.142E-02
RMM:   8    -0.413050029404E+03   -0.18533E-04   -0.52578E-05  5350   0.813E-03    0.840E-03
RMM:   9    -0.413050033865E+03   -0.44605E-05   -0.98421E-06  3638   0.405E-03    0.421E-03
RMM:  10    -0.413050039373E+03   -0.55080E-05   -0.42978E-06  2995   0.285E-03    0.199E-03
RMM:  11    -0.413050044347E+03   -0.49740E-05   -0.12554E-06  2509   0.187E-03    0.144E-03
RMM:  12    -0.413050050139E+03   -0.57925E-05   -0.73468E-07  2412   0.134E-03    0.848E-04
RMM:  13    -0.413050055583E+03   -0.54432E-05   -0.53742E-07  2097   0.102E-03    0.351E-04
RMM:  14    -0.413050059759E+03   -0.41761E-05   -0.33878E-07  1602   0.807E-04    0.204E-04
RMM:  15    -0.413050063801E+03   -0.40419E-05   -0.31131E-07  1693   0.786E-04    0.148E-04
RMM:  16    -0.413050066451E+03   -0.26507E-05   -0.18521E-07  1384   0.664E-04    0.111E-04
RMM:  17    -0.413050068862E+03   -0.24105E-05   -0.13972E-07  1219   0.615E-04    0.557E-05
RMM:  18    -0.413050070406E+03   -0.15440E-05   -0.83645E-08  1041   0.569E-04    0.438E-05
RMM:  19    -0.413050071044E+03   -0.63824E-06   -0.40442E-08   883   0.528E-04
  143 T=    58. E= -.41276333E+03 F= -.41305007E+03 E0= -.41302938E+03  EK= 0.28674E+00 SP= 0.00E+00 SK= 0.00E+00
       N       E                     dE             d eps       ncg     rms          rms(c)
RMM:   1    -0.412968342351E+03    0.81728E-01   -0.12717E+01  4307   0.140E+00    0.137E+00
RMM:   2    -0.412960792143E+03    0.75502E-02   -0.22722E-01  4459   0.174E-01    0.108E+00
RMM:   3    -0.412956870023E+03    0.39221E-02   -0.23487E-01  5131   0.201E-01    0.956E-01
RMM:   4    -0.412972437663E+03   -0.15568E-01   -0.64701E-02  5063   0.226E-01    0.938E-01
RMM:   5    -0.412932958200E+03    0.39479E-01   -0.29708E-02  4709   0.156E-01    0.901E-02
RMM:   6    -0.412933263111E+03   -0.30491E-03   -0.31782E-03  5679   0.545E-02    0.401E-02
RMM:   7    -0.412933362185E+03   -0.99074E-04   -0.43703E-04  5717   0.204E-02    0.241E-02
RMM:   8    -0.412933493734E+03   -0.13155E-03   -0.89617E-05  5235   0.109E-02    0.151E-02
RMM:   9    -0.412933608179E+03   -0.11445E-03   -0.35818E-05  4754   0.756E-03    0.788E-03
RMM:  10    -0.412933689354E+03   -0.81175E-04   -0.11747E-05  3146   0.439E-03    0.398E-03
RMM:  11    -0.412933763331E+03   -0.73976E-04   -0.60579E-06  2813   0.340E-03    0.250E-03
RMM:  12    -0.412933854162E+03   -0.90831E-04   -0.98288E-06  2829   0.386E-03    0.176E-03
RMM:  13    -0.412933884799E+03   -0.30637E-04   -0.41790E-06  2750   0.194E-03    0.113E-03
RMM:  14    -0.412933903101E+03   -0.18303E-04   -0.14100E-06  2536   0.135E-03    0.765E-04
RMM:  15    -0.412933926416E+03   -0.23315E-04   -0.21551E-06  2209   0.136E-03    0.328E-04
RMM:  16    -0.412933934101E+03   -0.76853E-05   -0.72324E-07  1611   0.892E-04    0.194E-04
RMM:  17    -0.412933937520E+03   -0.34189E-05   -0.25851E-07  1411   0.729E-04    0.104E-04
RMM:  18    -0.412933941172E+03   -0.36517E-05   -0.21772E-07  1585   0.728E-04    0.116E-04
RMM:  19    -0.412933941916E+03   -0.74425E-06   -0.78658E-08  1073   0.550E-04
  144 T=    48. E= -.41269807E+03 F= -.41293394E+03 E0= -.41291331E+03  EK= 0.23587E+00 SP= 0.00E+00 SK= 0.00E+00
       N       E                     dE             d eps       ncg     rms          rms(c)
RMM:   1    -0.413036050046E+03   -0.10211E+00   -0.16043E+01  4299   0.168E+00    0.195E+00
RMM:   2    -0.412976056340E+03    0.59994E-01   -0.21920E-01  4438   0.198E-01    0.104E+00
RMM:   3    -0.412964608375E+03    0.11448E-01   -0.80829E-02  5252   0.109E-01    0.272E-01
RMM:   4    -0.412996371045E+03   -0.31763E-01   -0.46522E-02  5126   0.186E-01    0.769E-01
RMM:   5    -0.412962117402E+03    0.34254E-01   -0.15130E-02  4754   0.132E-01    0.788E-02
RMM:   6    -0.412962207921E+03   -0.90519E-04   -0.31230E-03  5740   0.545E-02    0.490E-02
RMM:   7    -0.412962256204E+03   -0.48284E-04   -0.74873E-04  5731   0.264E-02    0.331E-02
RMM:   8    -0.412962226354E+03    0.29850E-04   -0.28378E-04  5143   0.181E-02    0.181E-02
RMM:   9    -0.412962196940E+03    0.29415E-04   -0.39071E-05  4757   0.749E-03    0.884E-03
RMM:  10    -0.412962181025E+03    0.15915E-04   -0.92534E-06  3087   0.340E-03    0.529E-03
RMM:  11    -0.412962150586E+03    0.30439E-04   -0.82966E-06  2899   0.343E-03    0.290E-03
RMM:  12    -0.412962124666E+03    0.25920E-04   -0.52777E-06  2744   0.255E-03    0.150E-03
RMM:  13    -0.412962109091E+03    0.15574E-04   -0.23177E-06  2594   0.168E-03    0.969E-04
RMM:  14    -0.412962089792E+03    0.19299E-04   -0.19054E-06  2458   0.147E-03    0.688E-04
RMM:  15    -0.412962081849E+03    0.79426E-05   -0.74322E-07  1850   0.964E-04    0.435E-04
RMM:  16    -0.412962072194E+03    0.96555E-05   -0.62657E-07  1977   0.969E-04    0.200E-04
RMM:  17    -0.412962068455E+03    0.37387E-05   -0.24038E-07  1495   0.707E-04    0.119E-04
RMM:  18    -0.412962067515E+03    0.94056E-06   -0.92937E-08  1086   0.573E-04
  145 T=    60. E= -.41266724E+03 F= -.41296207E+03 E0= -.41294150E+03  EK= 0.29483E+00 SP= 0.00E+00 SK= 0.00E+00
       N       E                     dE             d eps       ncg     rms          rms(c)
RMM:   1    -0.412944707798E+03    0.17361E-01   -0.25970E+00  4268   0.954E-01    0.486E-01
RMM:   2    -0.412943884246E+03    0.82355E-03   -0.31745E-02  4491   0.950E-02    0.361E-01
RMM:   3    -0.412943316482E+03    0.56776E-03   -0.22023E-02  5116   0.798E-02    0.205E-01
RMM:   4    -0.412949374777E+03   -0.60583E-02   -0.10770E-02  5098   0.926E-02    0.380E-01
RMM:   5    -0.412941428735E+03    0.79460E-02   -0.41587E-03  4839   0.682E-02    0.444E-02
RMM:   6    -0.412941392558E+03    0.36177E-04   -0.70286E-04  5614   0.257E-02    0.195E-02
RMM:   7    -0.412941408671E+03   -0.16113E-04   -0.13695E-04  5623   0.113E-02    0.135E-02
RMM:   8    -0.412941424267E+03   -0.15596E-04   -0.37517E-05  4976   0.711E-03    0.651E-03
RMM:   9    -0.412941426723E+03   -0.24565E-05   -0.81767E-06  3364   0.377E-03    0.301E-03
RMM:  10    -0.412941429057E+03   -0.23343E-05   -0.22940E-06  2596   0.234E-03    0.165E-03
RMM:  11    -0.412941431078E+03   -0.20203E-05   -0.90126E-07  2471   0.158E-03    0.118E-03
RMM:  12    -0.412941433813E+03   -0.27357E-05   -0.64744E-07  2348   0.120E-03    0.669E-04
RMM:  13    -0.412941436013E+03   -0.22001E-05   -0.45259E-07  1842   0.918E-04    0.320E-04
RMM:  14    -0.412941437710E+03   -0.16964E-05   -0.30353E-07  1700   0.815E-04    0.226E-04
RMM:  15    -0.412941439373E+03   -0.16628E-05   -0.29943E-07  1724   0.775E-04    0.167E-04
RMM:  16    -0.412941440659E+03   -0.12860E-05   -0.18772E-07  1349   0.668E-04    0.107E-04
RMM:  17    -0.412941441758E+03   -0.10991E-05   -0.13668E-07  1263   0.630E-04    0.651E-05
RMM:  18    -0.412941442310E+03   -0.55231E-06   -0.66794E-08  1042   0.548E-04
  146 T=    57. E= -.41266227E+03 F= -.41294144E+03 E0= -.41292093E+03  EK= 0.27918E+00 SP= 0.00E+00 SK= 0.00E+00
       N       E                     dE             d eps       ncg     rms          rms(c)
RMM:   1    -0.413014171917E+03   -0.72730E-01   -0.15220E+01  4307   0.146E+00    0.143E+00
RMM:   2    -0.413012251789E+03    0.19201E-02   -0.31750E-01  4427   0.194E-01    0.117E+00
RMM:   3    -0.413002306179E+03    0.99456E-02   -0.25182E-01  5086   0.190E-01    0.934E-01
RMM:   4    -0.413055021444E+03   -0.52715E-01   -0.10876E-01  5099   0.286E-01    0.117E+00
RMM:   5    -0.412979052853E+03    0.75969E-01   -0.40873E-02  4722   0.202E-01    0.920E-02
RMM:   6    -0.412979395414E+03   -0.34256E-03   -0.61023E-03  5799   0.738E-02    0.412E-02
RMM:   7    -0.412979558923E+03   -0.16351E-03   -0.75126E-04  5953   0.250E-02    0.268E-02
RMM:   8    -0.412979683456E+03   -0.12453E-03   -0.13681E-04  5278   0.123E-02    0.159E-02
RMM:   9    -0.412979831314E+03   -0.14786E-03   -0.41511E-05  4677   0.824E-03    0.833E-03
RMM:  10    -0.412979916199E+03   -0.84885E-04   -0.13419E-05  3264   0.458E-03    0.511E-03
RMM:  11    -0.412980043207E+03   -0.12701E-03   -0.14525E-05  3336   0.529E-03    0.316E-03
RMM:  12    -0.412980101562E+03   -0.58355E-04   -0.64181E-06  2812   0.294E-03    0.192E-03
RMM:  13    -0.412980136683E+03   -0.35121E-04   -0.32247E-06  2708   0.201E-03    0.130E-03
RMM:  14    -0.412980169939E+03   -0.33256E-04   -0.23408E-06  2643   0.175E-03    0.748E-04
RMM:  15    -0.412980190885E+03   -0.20946E-04   -0.15565E-06  2348   0.130E-03    0.412E-04
RMM:  16    -0.412980201452E+03   -0.10567E-04   -0.75630E-07  1662   0.930E-04    0.220E-04
RMM:  17    -0.412980207378E+03   -0.59255E-05   -0.32333E-07  1606   0.803E-04    0.162E-04
RMM:  18    -0.412980210650E+03   -0.32725E-05   -0.16413E-07  1494   0.684E-04    0.904E-05
RMM:  19    -0.412980212205E+03   -0.15551E-05   -0.80449E-08  1165   0.577E-04    0.658E-05
RMM:  20    -0.412980213477E+03   -0.12716E-05   -0.50360E-08  1063   0.545E-04    0.537E-05
RMM:  21    -0.412980214478E+03   -0.10008E-05   -0.31839E-08   926   0.525E-04    0.420E-05
RMM:  22    -0.412980214734E+03   -0.25591E-06   -0.19418E-08   797   0.501E-04
  147 T=    48. E= -.41274399E+03 F= -.41298021E+03 E0= -.41295975E+03  EK= 0.23623E+00 SP= 0.00E+00 SK= 0.00E+00
       N       E                     dE             d eps       ncg     rms          rms(c)
RMM:   1    -0.413151631375E+03   -0.17142E+00   -0.75495E+00  4295   0.123E+00    0.132E+00
RMM:   2    -0.413123818864E+03    0.27813E-01   -0.91783E-02  4436   0.141E-01    0.750E-01
RMM:   3    -0.413115904708E+03    0.79142E-02   -0.48239E-02  4819   0.810E-02    0.785E-02
RMM:   4    -0.413124783000E+03   -0.88783E-02   -0.98173E-03  5198   0.861E-02    0.398E-01
RMM:   5    -0.413115902291E+03    0.88807E-02   -0.44199E-03  4850   0.672E-02    0.472E-02
RMM:   6    -0.413115904021E+03   -0.17295E-05   -0.86869E-04  5689   0.303E-02    0.292E-02
RMM:   7    -0.413115913874E+03   -0.98527E-05   -0.26536E-04  5570   0.162E-02    0.195E-02
RMM:   8    -0.413115891072E+03    0.22802E-04   -0.80270E-05  5061   0.983E-03    0.988E-03
RMM:   9    -0.413115876883E+03    0.14188E-04   -0.12381E-05  3665   0.416E-03    0.489E-03
RMM:  10    -0.413115864362E+03    0.12522E-04   -0.26484E-06  2570   0.227E-03    0.281E-03
RMM:  11    -0.413115838914E+03    0.25448E-04   -0.29271E-06  2629   0.211E-03    0.179E-03
RMM:  12    -0.413115820068E+03    0.18846E-04   -0.16084E-06  2530   0.155E-03    0.876E-04
RMM:  13    -0.413115810214E+03    0.98544E-05   -0.70492E-07  2159   0.107E-03    0.583E-04
RMM:  14    -0.413115798331E+03    0.11883E-04   -0.66531E-07  2201   0.104E-03    0.427E-04
RMM:  15    -0.413115790433E+03    0.78977E-05   -0.42340E-07  1735   0.859E-04    0.251E-04
RMM:  16    -0.413115785939E+03    0.44942E-05   -0.24403E-07  1705   0.781E-04    0.122E-04
RMM:  17    -0.413115784888E+03    0.10512E-05   -0.10303E-07  1266   0.600E-04    0.990E-05
RMM:  18    -0.413115784627E+03    0.26066E-06   -0.66276E-08  1096   0.551E-04
  148 T=    52. E= -.41286115E+03 F= -.41311578E+03 E0= -.41309537E+03  EK= 0.25463E+00 SP= 0.00E+00 SK= 0.00E+00
       N       E                     dE             d eps       ncg     rms          rms(c)
RMM:   1    -0.413056397000E+03    0.59388E-01   -0.31869E+00  4269   0.949E-01    0.619E-01
RMM:   2    -0.413053570185E+03    0.28268E-02   -0.38704E-02  4474   0.993E-02    0.424E-01
RMM:   3    -0.413051150472E+03    0.24197E-02   -0.19739E-02  4951   0.691E-02    0.121E-01
RMM:   4    -0.413060018674E+03   -0.88682E-02   -0.10580E-02  5150   0.899E-02    0.407E-01
RMM:   5    -0.413050501593E+03    0.95171E-02   -0.45993E-03  4841   0.692E-02    0.386E-02
RMM:   6    -0.413050497155E+03    0.44382E-05   -0.80593E-04  5720   0.280E-02    0.208E-02
RMM:   7    -0.413050515487E+03   -0.18332E-04   -0.17366E-04  5772   0.129E-02    0.161E-02
RMM:   8    -0.413050514693E+03    0.79359E-06   -0.44133E-05  4933   0.764E-03    0.638E-03
RMM:   9    -0.413050512428E+03    0.22647E-05   -0.94097E-06  3501   0.375E-03    0.326E-03
RMM:  10    -0.413050510572E+03    0.18564E-05   -0.14613E-06  2530   0.202E-03    0.193E-03
RMM:  11    -0.413050507975E+03    0.25970E-05   -0.87075E-07  2508   0.145E-03    0.115E-03
RMM:  12    -0.413050504552E+03    0.34232E-05   -0.78820E-07  2315   0.120E-03    0.760E-04
RMM:  13    -0.413050503345E+03    0.12062E-05   -0.27680E-07  1601   0.834E-04    0.407E-04
RMM:  14    -0.413050501473E+03    0.18727E-05   -0.32180E-07  1982   0.880E-04    0.281E-04
RMM:  15    -0.413050500206E+03    0.12665E-05   -0.20197E-07  1454   0.703E-04    0.209E-04
RMM:  16    -0.413050498843E+03    0.13632E-05   -0.23729E-07  1598   0.748E-04    0.113E-04
RMM:  17    -0.413050498367E+03    0.47570E-06   -0.11600E-07  1285   0.630E-04
  149 T=    44. E= -.41283350E+03 F= -.41305050E+03 E0= -.41303012E+03  EK= 0.21699E+00 SP= 0.00E+00 SK= 0.00E+00
       N       E                     dE             d eps       ncg     rms          rms(c)
RMM:   1    -0.413120462792E+03   -0.69964E-01   -0.69707E+00  4278   0.111E+00    0.958E-01
RMM:   2    -0.413115614346E+03    0.48484E-02   -0.90491E-02  4416   0.128E-01    0.713E-01
RMM:   3    -0.413111357317E+03    0.42570E-02   -0.85210E-02  4996   0.126E-01    0.499E-01
RMM:   4    -0.413116859627E+03   -0.55023E-02   -0.18180E-02  5066   0.121E-01    0.523E-01
RMM:   5    -0.413104709672E+03    0.12150E-01   -0.87919E-03  4702   0.861E-02    0.588E-02
RMM:   6    -0.413104763874E+03   -0.54202E-04   -0.10087E-03  5681   0.303E-02    0.321E-02
RMM:   7    -0.413104843441E+03   -0.79567E-04   -0.19553E-04  5603   0.137E-02    0.184E-02
RMM:   8    -0.413104934080E+03   -0.90639E-04   -0.49268E-05  4846   0.803E-03    0.844E-03
RMM:   9    -0.413104985613E+03   -0.51532E-04   -0.15449E-05  3788   0.456E-03    0.484E-03
RMM:  10    -0.413105021826E+03   -0.36213E-04   -0.33256E-06  2705   0.253E-03    0.310E-03
RMM:  11    -0.413105083320E+03   -0.61495E-04   -0.44804E-06  2724   0.286E-03    0.178E-03
RMM:  12    -0.413105118422E+03   -0.35102E-04   -0.30616E-06  2676   0.197E-03    0.127E-03
RMM:  13    -0.413105129592E+03   -0.11170E-04   -0.83555E-07  2114   0.108E-03    0.815E-04
RMM:  14    -0.413105148475E+03   -0.18883E-04   -0.10311E-06  2501   0.122E-03    0.473E-04
RMM:  15    -0.413105158343E+03   -0.98680E-05   -0.46752E-07  1423   0.797E-04    0.198E-04
RMM:  16    -0.413105164452E+03   -0.61087E-05   -0.24900E-07  1373   0.727E-04    0.106E-04
RMM:  17    -0.413105167247E+03   -0.27947E-05   -0.12054E-07  1299   0.658E-04    0.929E-05
RMM:  18    -0.413105168514E+03   -0.12673E-05   -0.66352E-08  1158   0.590E-04    0.856E-05
RMM:  19    -0.413105170308E+03   -0.17944E-05   -0.46697E-08  1146   0.567E-04    0.378E-05
RMM:  20    -0.413105171529E+03   -0.12208E-05   -0.32168E-08  1003   0.528E-04    0.382E-05
RMM:  21    -0.413105171610E+03   -0.80854E-07   -0.10637E-08   716   0.478E-04
  150 T=    47. E= -.41287515E+03 F= -.41310517E+03 E0= -.41308483E+03  EK= 0.23002E+00 SP= 0.00E+00 SK= 0.00E+00
