       N       E                     dE             d eps       ncg     rms          rms(c)
RMM:   1     0.220134612031E+04    0.22013E+04   -0.52443E+04  2132   0.654E+02
RMM:   2     0.705378031929E+03   -0.14960E+04   -0.16263E+04  2132   0.177E+02
RMM:   3     0.137711807304E+03   -0.56767E+03   -0.65692E+03  2132   0.117E+02
RMM:   4    -0.159315129250E+03   -0.29703E+03   -0.27895E+03  2132   0.937E+01
RMM:   5    -0.287446124340E+03   -0.12813E+03   -0.11448E+03  2132   0.595E+01
RMM:   6    -0.349754910279E+03   -0.62309E+02   -0.55146E+02  2132   0.423E+01
RMM:   7    -0.382682501639E+03   -0.32928E+02   -0.30444E+02  2132   0.293E+01
RMM:   8    -0.404200064773E+03   -0.21518E+02   -0.18455E+02  2132   0.233E+01
RMM:   9    -0.436023125754E+03   -0.31823E+02   -0.30732E+02  6104   0.173E+01
RMM:  10    -0.441279036639E+03   -0.52559E+01   -0.63060E+01  6396   0.540E+00
RMM:  11    -0.442508796062E+03   -0.12298E+01   -0.11223E+01  6217   0.174E+00
RMM:  12    -0.442885326300E+03   -0.37653E+00   -0.27506E+00  6369   0.606E-01    0.134E+02
RMM:  13    -0.425603025367E+03    0.17282E+02   -0.80910E+01  4676   0.119E+01    0.712E+01
RMM:  14    -0.499399877347E+03   -0.73797E+02   -0.53876E+02  5417   0.232E+01    0.307E+01
RMM:  15    -0.417052719402E+03    0.82347E+02   -0.20191E+02  5110   0.164E+01    0.771E+00
RMM:  16    -0.414034870523E+03    0.30178E+01   -0.39930E+01  6096   0.615E+00    0.434E+00
RMM:  17    -0.413202836955E+03    0.83203E+00   -0.26689E+00  5408   0.193E+00    0.243E+00
RMM:  18    -0.413178396463E+03    0.24440E-01   -0.74546E-01  5994   0.881E-01    0.171E+00
RMM:  19    -0.413173873042E+03    0.45234E-02   -0.25046E-01  5666   0.547E-01    0.921E-01
RMM:  20    -0.413194263828E+03   -0.20391E-01   -0.33434E-01  5600   0.590E-01    0.678E-01
RMM:  21    -0.413169729054E+03    0.24535E-01   -0.36865E-02  4987   0.252E-01    0.319E-01
RMM:  22    -0.413165407851E+03    0.43212E-02   -0.27838E-02  5824   0.163E-01    0.137E-01
RMM:  23    -0.413164601842E+03    0.80601E-03   -0.56485E-03  6012   0.662E-02    0.840E-02
RMM:  24    -0.413163440075E+03    0.11618E-02   -0.17015E-03  5302   0.405E-02    0.537E-02
RMM:  25    -0.413162724425E+03    0.71565E-03   -0.87246E-04  4972   0.288E-02    0.398E-02
RMM:  26    -0.413162822801E+03   -0.98376E-04   -0.11320E-03  5800   0.341E-02    0.348E-02
RMM:  27    -0.413163218517E+03   -0.39572E-03   -0.20627E-04  4587   0.198E-02    0.196E-02
RMM:  28    -0.413163673202E+03   -0.45469E-03   -0.17245E-04  5081   0.184E-02    0.871E-03
RMM:  29    -0.413164069369E+03   -0.39617E-03   -0.11615E-04  4615   0.156E-02    0.482E-03
RMM:  30    -0.413164313480E+03   -0.24411E-03   -0.82242E-05  4245   0.107E-02    0.421E-03
RMM:  31    -0.413164452279E+03   -0.13880E-03   -0.60222E-05  3301   0.751E-03    0.368E-03
RMM:  32    -0.413164477592E+03   -0.25313E-04   -0.23620E-05  2996   0.322E-03    0.206E-03
RMM:  33    -0.413164488028E+03   -0.10435E-04   -0.94302E-06  2819   0.226E-03    0.802E-04
RMM:  34    -0.413164489444E+03   -0.14161E-05   -0.50945E-06  2624   0.159E-03    0.454E-04
RMM:  35    -0.413164488886E+03    0.55790E-06   -0.23446E-06  2393   0.132E-03
    1 T=    61. E= -.41286669E+03 F= -.41316449E+03 E0= -.41314199E+03  EK= 0.29780E+00 SP= 0.00E+00 SK= 0.00E+00
       N       E                     dE             d eps       ncg     rms          rms(c)
RMM:   1    -0.413164504457E+03   -0.15014E-04   -0.86139E+00  3971   0.599E-01    0.887E-01
RMM:   2    -0.413168827563E+03   -0.43231E-02   -0.10603E-01  3963   0.865E-02    0.653E-01
RMM:   3    -0.413164702494E+03    0.41251E-02   -0.19916E-02  4875   0.527E-02    0.111E-01
RMM:   4    -0.413190037424E+03   -0.25335E-01   -0.27780E-02  5196   0.139E-01    0.667E-01
RMM:   5    -0.413163975489E+03    0.26062E-01   -0.12614E-02  4839   0.112E-01    0.489E-02
RMM:   6    -0.413164169317E+03   -0.19383E-03   -0.23483E-03  5771   0.472E-02    0.345E-02
RMM:   7    -0.413164168787E+03    0.52965E-06   -0.43957E-04  5688   0.193E-02    0.214E-02
RMM:   8    -0.413164164949E+03    0.38379E-05   -0.53905E-05  5153   0.814E-03    0.937E-03
RMM:   9    -0.413164167143E+03   -0.21944E-05   -0.11521E-05  3622   0.358E-03    0.698E-03
RMM:  10    -0.413164172218E+03   -0.50741E-05   -0.22641E-06  2599   0.225E-03    0.416E-03
RMM:  11    -0.413164176369E+03   -0.41511E-05   -0.12991E-06  2522   0.170E-03    0.231E-03
RMM:  12    -0.413164183170E+03   -0.68017E-05   -0.17491E-06  2572   0.186E-03    0.984E-04
RMM:  13    -0.413164186192E+03   -0.30216E-05   -0.71086E-07  2398   0.128E-03    0.752E-04
RMM:  14    -0.413164186069E+03    0.12338E-06   -0.34679E-07  1904   0.852E-04
    2 T=    61. E= -.41286640E+03 F= -.41316419E+03 E0= -.41314169E+03  EK= 0.29779E+00 SP= 0.00E+00 SK= 0.00E+00
       N       E                     dE             d eps       ncg     rms          rms(c)
RMM:   1    -0.413165451167E+03   -0.12650E-02   -0.86065E+00  4185   0.604E-01    0.905E-01
RMM:   2    -0.413169074246E+03   -0.36231E-02   -0.10526E-01  4049   0.873E-02    0.650E-01
RMM:   3    -0.413165242901E+03    0.38313E-02   -0.18634E-02  4869   0.503E-02    0.108E-01
RMM:   4    -0.413191309181E+03   -0.26066E-01   -0.27638E-02  5161   0.139E-01    0.676E-01
RMM:   5    -0.413164588905E+03    0.26720E-01   -0.12725E-02  4825   0.113E-01    0.492E-02
RMM:   6    -0.413164779329E+03   -0.19042E-03   -0.23876E-03  5768   0.473E-02    0.352E-02
RMM:   7    -0.413164766171E+03    0.13159E-04   -0.43453E-04  5607   0.199E-02    0.219E-02
RMM:   8    -0.413164756083E+03    0.10087E-04   -0.58733E-05  5092   0.875E-03    0.103E-02
RMM:   9    -0.413164754467E+03    0.16166E-05   -0.12069E-05  3728   0.383E-03    0.765E-03
RMM:  10    -0.413164754890E+03   -0.42286E-06   -0.21716E-06  2589   0.237E-03
    3 T=    61. E= -.41286671E+03 F= -.41316475E+03 E0= -.41314226E+03  EK= 0.29805E+00 SP= 0.00E+00 SK= 0.00E+00
       N       E                     dE             d eps       ncg     rms          rms(c)
RMM:   1    -0.413164868857E+03   -0.11439E-03   -0.85431E+00  4221   0.608E-01    0.891E-01
RMM:   2    -0.413168562833E+03   -0.36940E-02   -0.10488E-01  4247   0.867E-02    0.644E-01
RMM:   3    -0.413171322387E+03   -0.27596E-02   -0.23131E-02  5157   0.892E-02    0.353E-01
RMM:   4    -0.413185959230E+03   -0.14637E-01   -0.37554E-02  5097   0.167E-01    0.605E-01
RMM:   5    -0.413164503101E+03    0.21456E-01   -0.78579E-03  4677   0.991E-02    0.592E-02
RMM:   6    -0.413164501967E+03    0.11342E-05   -0.15913E-03  5403   0.407E-02    0.321E-02
RMM:   7    -0.413164518117E+03   -0.16150E-04   -0.32943E-04  5945   0.168E-02    0.191E-02
RMM:   8    -0.413164514141E+03    0.39754E-05   -0.57980E-05  5108   0.907E-03    0.771E-03
RMM:   9    -0.413164512600E+03    0.15413E-05   -0.78040E-06  3341   0.358E-03    0.395E-03
RMM:  10    -0.413164513752E+03   -0.11522E-05   -0.15796E-06  2542   0.211E-03    0.250E-03
RMM:  11    -0.413164515471E+03   -0.17188E-05   -0.12896E-06  2536   0.177E-03    0.144E-03
RMM:  12    -0.413164516346E+03   -0.87521E-06   -0.75592E-07  2487   0.138E-03
    4 T=    61. E= -.41286650E+03 F= -.41316452E+03 E0= -.41314203E+03  EK= 0.29801E+00 SP= 0.00E+00 SK= 0.00E+00
       N       E                     dE             d eps       ncg     rms          rms(c)
RMM:   1    -0.413164848124E+03   -0.33265E-03   -0.86088E+00  4235   0.612E-01    0.885E-01
RMM:   2    -0.413169017589E+03   -0.41695E-02   -0.10626E-01  4048   0.854E-02    0.652E-01
RMM:   3    -0.413165499183E+03    0.35184E-02   -0.20042E-02  4969   0.528E-02    0.132E-01
RMM:   4    -0.413196661502E+03   -0.31162E-01   -0.34231E-02  5139   0.155E-01    0.740E-01
RMM:   5    -0.413164471945E+03    0.32190E-01   -0.15079E-02  4805   0.123E-01    0.509E-02
RMM:   6    -0.413164678159E+03   -0.20621E-03   -0.27088E-03  5746   0.510E-02    0.346E-02
RMM:   7    -0.413164677749E+03    0.41039E-06   -0.46376E-04  5724   0.200E-02    0.220E-02
RMM:   8    -0.413164673881E+03    0.38679E-05   -0.65121E-05  5166   0.894E-03    0.101E-02
RMM:   9    -0.413164674545E+03   -0.66372E-06   -0.12694E-05  3854   0.401E-03    0.731E-03
RMM:  10    -0.413164678772E+03   -0.42270E-05   -0.20946E-06  2583   0.230E-03    0.443E-03
RMM:  11    -0.413164682278E+03   -0.35068E-05   -0.11765E-06  2523   0.173E-03    0.249E-03
RMM:  12    -0.413164688181E+03   -0.59020E-05   -0.19570E-06  2606   0.201E-03    0.112E-03
RMM:  13    -0.413164690531E+03   -0.23500E-05   -0.67133E-07  2423   0.136E-03    0.847E-04
RMM:  14    -0.413164690287E+03    0.24385E-06   -0.25377E-07  1936   0.874E-04
    5 T=    61. E= -.41286658E+03 F= -.41316469E+03 E0= -.41314221E+03  EK= 0.29812E+00 SP= 0.00E+00 SK= 0.00E+00
       N       E                     dE             d eps       ncg     rms          rms(c)
RMM:   1    -0.413165698624E+03   -0.10081E-02   -0.86140E+00  4245   0.616E-01    0.902E-01
RMM:   2    -0.413169242782E+03   -0.35442E-02   -0.10566E-01  4020   0.841E-02    0.651E-01
RMM:   3    -0.413165610934E+03    0.36318E-02   -0.18819E-02  4882   0.481E-02    0.104E-01
RMM:   4    -0.413190104687E+03   -0.24494E-01   -0.25780E-02  5143   0.134E-01    0.656E-01
RMM:   5    -0.413165003914E+03    0.25101E-01   -0.11973E-02  4810   0.109E-01    0.483E-02
RMM:   6    -0.413165180116E+03   -0.17620E-03   -0.22371E-03  5754   0.456E-02    0.339E-02
RMM:   7    -0.413165171310E+03    0.88061E-05   -0.40758E-04  5608   0.194E-02    0.214E-02
RMM:   8    -0.413165160712E+03    0.10598E-04   -0.55908E-05  5000   0.845E-03    0.101E-02
RMM:   9    -0.413165159194E+03    0.15180E-05   -0.10955E-05  3666   0.374E-03    0.758E-03
RMM:  10    -0.413165159639E+03   -0.44515E-06   -0.20298E-06  2564   0.234E-03
    6 T=    61. E= -.41286680E+03 F= -.41316516E+03 E0= -.41314270E+03  EK= 0.29836E+00 SP= 0.00E+00 SK= 0.00E+00
       N       E                     dE             d eps       ncg     rms          rms(c)
RMM:   1    -0.413165451724E+03   -0.29253E-03   -0.85665E+00  4260   0.620E-01    0.897E-01
RMM:   2    -0.413169001038E+03   -0.35493E-02   -0.10512E-01  4287   0.855E-02    0.645E-01
RMM:   3    -0.413171035542E+03   -0.20345E-02   -0.22564E-02  5139   0.855E-02    0.335E-01
RMM:   4    -0.413187693172E+03   -0.16658E-01   -0.38051E-02  5089   0.167E-01    0.623E-01
RMM:   5    -0.413164893181E+03    0.22800E-01   -0.85273E-03  4689   0.102E-01    0.593E-02
RMM:   6    -0.413164907604E+03   -0.14423E-04   -0.17244E-03  5430   0.419E-02    0.325E-02
RMM:   7    -0.413164921511E+03   -0.13906E-04   -0.34237E-04  5950   0.168E-02    0.194E-02
RMM:   8    -0.413164916024E+03    0.54863E-05   -0.58731E-05  5110   0.892E-03    0.790E-03
RMM:   9    -0.413164912884E+03    0.31406E-05   -0.71803E-06  3287   0.348E-03    0.407E-03
RMM:  10    -0.413164912818E+03    0.65367E-07   -0.16863E-06  2548   0.214E-03
    7 T=    61. E= -.41286649E+03 F= -.41316491E+03 E0= -.41314246E+03  EK= 0.29843E+00 SP= 0.00E+00 SK= 0.00E+00
       N       E                     dE             d eps       ncg     rms          rms(c)
RMM:   1    -0.413165722162E+03   -0.80928E-03   -0.85957E+00  4268   0.624E-01    0.883E-01
RMM:   2    -0.413170050607E+03   -0.43284E-02   -0.10586E-01  4159   0.871E-02    0.650E-01
RMM:   3    -0.413166433723E+03    0.36169E-02   -0.19812E-02  4942   0.556E-02    0.138E-01
RMM:   4    -0.413198996095E+03   -0.32562E-01   -0.36129E-02  5128   0.159E-01    0.756E-01
RMM:   5    -0.413165311044E+03    0.33685E-01   -0.15783E-02  4803   0.125E-01    0.519E-02
RMM:   6    -0.413165517505E+03   -0.20646E-03   -0.27808E-03  5731   0.520E-02    0.349E-02
RMM:   7    -0.413165518153E+03   -0.64800E-06   -0.47713E-04  5742   0.201E-02    0.222E-02
RMM:   8    -0.413165513259E+03    0.48940E-05   -0.65699E-05  5202   0.892E-03    0.101E-02
RMM:   9    -0.413165512873E+03    0.38643E-06   -0.12696E-05  3846   0.398E-03    0.713E-03
RMM:  10    -0.413165515739E+03   -0.28663E-05   -0.21198E-06  2582   0.228E-03    0.433E-03
RMM:  11    -0.413165518026E+03   -0.22869E-05   -0.11386E-06  2524   0.170E-03    0.243E-03
RMM:  12    -0.413165521823E+03   -0.37971E-05   -0.18572E-06  2596   0.196E-03    0.108E-03
RMM:  13    -0.413165523345E+03   -0.15221E-05   -0.71678E-07  2426   0.136E-03    0.889E-04
RMM:  14    -0.413165523052E+03    0.29327E-06   -0.25361E-07  1929   0.874E-04
    8 T=    61. E= -.41286674E+03 F= -.41316552E+03 E0= -.41314309E+03  EK= 0.29878E+00 SP= 0.00E+00 SK= 0.00E+00
       N       E                     dE             d eps       ncg     rms          rms(c)
RMM:   1    -0.413166186512E+03   -0.66317E-03   -0.86313E+00  4280   0.629E-01    0.898E-01
RMM:   2    -0.413170167088E+03   -0.39806E-02   -0.10576E-01  4170   0.873E-02    0.653E-01
RMM:   3    -0.413166204226E+03    0.39629E-02   -0.19223E-02  4867   0.515E-02    0.110E-01
RMM:   4    -0.413192684943E+03   -0.26481E-01   -0.28103E-02  5129   0.140E-01    0.682E-01
RMM:   5    -0.413165493711E+03    0.27191E-01   -0.12966E-02  4809   0.113E-01    0.487E-02
RMM:   6    -0.413165681448E+03   -0.18774E-03   -0.23752E-03  5762   0.471E-02    0.338E-02
RMM:   7    -0.413165675907E+03    0.55416E-05   -0.41507E-04  5632   0.195E-02    0.215E-02
RMM:   8    -0.413165666260E+03    0.96466E-05   -0.59915E-05  5037   0.869E-03    0.103E-02
RMM:   9    -0.413165664466E+03    0.17941E-05   -0.11864E-05  3776   0.388E-03    0.765E-03
RMM:  10    -0.413165665049E+03   -0.58329E-06   -0.20191E-06  2565   0.232E-03
    9 T=    61. E= -.41286660E+03 F= -.41316567E+03 E0= -.41314326E+03  EK= 0.29906E+00 SP= 0.00E+00 SK= 0.00E+00
       N       E                     dE             d eps       ncg     rms          rms(c)
RMM:   1    -0.413166375470E+03   -0.71100E-03   -0.86037E+00  4292   0.634E-01    0.903E-01
RMM:   2    -0.413170030683E+03   -0.36552E-02   -0.10532E-01  4330   0.880E-02    0.647E-01
RMM:   3    -0.413172455260E+03   -0.24246E-02   -0.23073E-02  5135   0.882E-02    0.351E-01
RMM:   4    -0.413187137172E+03   -0.14682E-01   -0.37362E-02  5075   0.166E-01    0.604E-01
RMM:   5    -0.413165737229E+03    0.21400E-01   -0.77928E-03  4664   0.982E-02    0.588E-02
RMM:   6    -0.413165741689E+03   -0.44606E-05   -0.16251E-03  5399   0.404E-02    0.327E-02
RMM:   7    -0.413165750649E+03   -0.89598E-05   -0.32382E-04  5902   0.169E-02    0.192E-02
RMM:   8    -0.413165742738E+03    0.79111E-05   -0.57593E-05  5105   0.886E-03    0.772E-03
RMM:   9    -0.413165738837E+03    0.39008E-05   -0.70778E-06  3236   0.345E-03    0.400E-03
RMM:  10    -0.413165737780E+03    0.10568E-05   -0.16273E-06  2537   0.211E-03    0.250E-03
RMM:  11    -0.413165736025E+03    0.17551E-05   -0.11853E-06  2511   0.173E-03    0.137E-03
RMM:  12    -0.413165734209E+03    0.18159E-05   -0.75550E-07  2466   0.138E-03    0.575E-04
RMM:  13    -0.413165733053E+03    0.11560E-05   -0.38477E-07  2107   0.100E-03    0.325E-04
RMM:  14    -0.413165731863E+03    0.11900E-05   -0.23652E-07  1621   0.797E-04    0.215E-04
RMM:  15    -0.413165729841E+03    0.20223E-05   -0.25217E-07  1557   0.771E-04    0.177E-04
RMM:  16    -0.413165727957E+03    0.18843E-05   -0.18558E-07  1356   0.697E-04    0.148E-04
RMM:  17    -0.413165726119E+03    0.18382E-05   -0.15074E-07  1311   0.660E-04    0.757E-05
RMM:  18    -0.413165724902E+03    0.12168E-05   -0.86398E-08  1035   0.590E-04    0.444E-05
RMM:  19    -0.413165724261E+03    0.64111E-06   -0.45096E-08   848   0.547E-04
   10 T=    61. E= -.41286640E+03 F= -.41316572E+03 E0= -.41314334E+03  EK= 0.29932E+00 SP= 0.00E+00 SK= 0.00E+00
       N       E                     dE             d eps       ncg     rms          rms(c)
RMM:   1    -0.413166640743E+03   -0.91584E-03   -0.85902E+00  4290   0.638E-01    0.884E-01
RMM:   2    -0.413170765018E+03   -0.41243E-02   -0.10584E-01  4229   0.868E-02    0.648E-01
RMM:   3    -0.413167411139E+03    0.33539E-02   -0.19450E-02  4941   0.549E-02    0.136E-01
RMM:   4    -0.413200075857E+03   -0.32665E-01   -0.36223E-02  5121   0.159E-01    0.757E-01
RMM:   5    -0.413166319079E+03    0.33757E-01   -0.15965E-02  4795   0.125E-01    0.518E-02
RMM:   6    -0.413166525109E+03   -0.20603E-03   -0.27217E-03  5719   0.517E-02    0.352E-02
RMM:   7    -0.413166521672E+03    0.34366E-05   -0.47146E-04  5637   0.202E-02    0.221E-02
RMM:   8    -0.413166513992E+03    0.76800E-05   -0.66416E-05  5205   0.907E-03    0.100E-02
RMM:   9    -0.413166512384E+03    0.16080E-05   -0.13131E-05  3901   0.407E-03    0.710E-03
RMM:  10    -0.413166513920E+03   -0.15358E-05   -0.20729E-06  2575   0.229E-03    0.433E-03
RMM:  11    -0.413166515184E+03   -0.12638E-05   -0.10631E-06  2507   0.166E-03    0.245E-03
RMM:  12    -0.413166517288E+03   -0.21046E-05   -0.15971E-06  2545   0.191E-03    0.108E-03
RMM:  13    -0.413166518046E+03   -0.75791E-06   -0.64648E-07  2400   0.134E-03
   11 T=    61. E= -.41286673E+03 F= -.41316652E+03 E0= -.41314416E+03  EK= 0.29979E+00 SP= 0.00E+00 SK= 0.00E+00
       N       E                     dE             d eps       ncg     rms          rms(c)
RMM:   1    -0.413166829295E+03   -0.31201E-03   -0.86563E+00  4288   0.642E-01    0.895E-01
RMM:   2    -0.413170754759E+03   -0.39255E-02   -0.10657E-01  4236   0.870E-02    0.655E-01
RMM:   3    -0.413167095518E+03    0.36592E-02   -0.19627E-02  4871   0.523E-02    0.117E-01
RMM:   4    -0.413195304685E+03   -0.28209E-01   -0.30313E-02  5119   0.145E-01    0.704E-01
RMM:   5    -0.413166283263E+03    0.29021E-01   -0.13817E-02  4802   0.116E-01    0.492E-02
RMM:   6    -0.413166476218E+03   -0.19295E-03   -0.25039E-03  5772   0.482E-02    0.335E-02
RMM:   7    -0.413166475778E+03    0.43964E-06   -0.41582E-04  5648   0.195E-02    0.215E-02
RMM:   8    -0.413166465395E+03    0.10383E-04   -0.64183E-05  5030   0.885E-03    0.104E-02
RMM:   9    -0.413166463281E+03    0.21140E-05   -0.12427E-05  3867   0.402E-03    0.769E-03
RMM:  10    -0.413166464085E+03   -0.80485E-06   -0.20304E-06  2567   0.233E-03
   12 T=    61. E= -.41286644E+03 F= -.41316646E+03 E0= -.41314413E+03  EK= 0.30003E+00 SP= 0.00E+00 SK= 0.00E+00
       N       E                     dE             d eps       ncg     rms          rms(c)
RMM:   1    -0.413167791370E+03   -0.13281E-02   -0.86409E+00  4303   0.648E-01    0.908E-01
RMM:   2    -0.413171030266E+03   -0.32389E-02   -0.10604E-01  4312   0.863E-02    0.650E-01
RMM:   3    -0.413174121736E+03   -0.30915E-02   -0.23404E-02  5132   0.882E-02    0.359E-01
RMM:   4    -0.413188048941E+03   -0.13927E-01   -0.37667E-02  5069   0.166E-01    0.598E-01
RMM:   5    -0.413167076472E+03    0.20972E-01   -0.76273E-03  4651   0.972E-02    0.588E-02
RMM:   6    -0.413167078126E+03   -0.16533E-05   -0.15889E-03  5388   0.398E-02    0.328E-02
RMM:   7    -0.413167087869E+03   -0.97432E-05   -0.31741E-04  5903   0.166E-02    0.191E-02
RMM:   8    -0.413167078983E+03    0.88863E-05   -0.57193E-05  5115   0.883E-03    0.773E-03
RMM:   9    -0.413167074161E+03    0.48216E-05   -0.68525E-06  3238   0.347E-03    0.397E-03
RMM:  10    -0.413167072432E+03    0.17286E-05   -0.15444E-06  2525   0.209E-03    0.249E-03
RMM:  11    -0.413167069526E+03    0.29067E-05   -0.11936E-06  2512   0.173E-03    0.139E-03
RMM:  12    -0.413167067017E+03    0.25092E-05   -0.68792E-07  2456   0.135E-03    0.583E-04
RMM:  13    -0.413167065276E+03    0.17407E-05   -0.35971E-07  2096   0.989E-04    0.341E-04
RMM:  14    -0.413167063680E+03    0.15962E-05   -0.21387E-07  1591   0.781E-04    0.227E-04
RMM:  15    -0.413167060814E+03    0.28659E-05   -0.22839E-07  1536   0.763E-04    0.181E-04
RMM:  16    -0.413167058336E+03    0.24780E-05   -0.16831E-07  1358   0.688E-04    0.146E-04
RMM:  17    -0.413167056036E+03    0.22995E-05   -0.13028E-07  1277   0.653E-04    0.783E-05
RMM:  18    -0.413167054779E+03    0.12576E-05   -0.70206E-08   982   0.575E-04    0.459E-05
RMM:  19    -0.413167053797E+03    0.98188E-06   -0.43965E-08   866   0.550E-04
   13 T=    61. E= -.41286653E+03 F= -.41316705E+03 E0= -.41314475E+03  EK= 0.30053E+00 SP= 0.00E+00 SK= 0.00E+00
       N       E                     dE             d eps       ncg     rms          rms(c)
RMM:   1    -0.413168000183E+03   -0.94540E-03   -0.85966E+00  4294   0.650E-01    0.887E-01
RMM:   2    -0.413171869726E+03   -0.38695E-02   -0.10588E-01  4240   0.852E-02    0.647E-01
RMM:   3    -0.413168624651E+03    0.32451E-02   -0.19155E-02  4975   0.529E-02    0.139E-01
RMM:   4    -0.413202106075E+03   -0.33481E-01   -0.37509E-02  5118   0.161E-01    0.766E-01
RMM:   5    -0.413167492923E+03    0.34613E-01   -0.16392E-02  4792   0.127E-01    0.524E-02
RMM:   6    -0.413167698818E+03   -0.20590E-03   -0.28090E-03  5729   0.523E-02    0.357E-02
RMM:   7    -0.413167692681E+03    0.61368E-05   -0.47973E-04  5642   0.203E-02    0.224E-02
RMM:   8    -0.413167684240E+03    0.84407E-05   -0.68379E-05  5208   0.913E-03    0.102E-02
RMM:   9    -0.413167681229E+03    0.30110E-05   -0.13359E-05  3924   0.409E-03    0.721E-03
RMM:  10    -0.413167681152E+03    0.77132E-07   -0.21182E-06  2571   0.230E-03
   14 T=    61. E= -.41286662E+03 F= -.41316768E+03 E0= -.41314541E+03  EK= 0.30107E+00 SP= 0.00E+00 SK= 0.00E+00
       N       E                     dE             d eps       ncg     rms          rms(c)
RMM:   1    -0.413168072853E+03   -0.39162E-03   -0.86853E+00  4303   0.655E-01    0.893E-01
RMM:   2    -0.413172302559E+03   -0.42297E-02   -0.10702E-01  4334   0.868E-02    0.656E-01
RMM:   3    -0.413175319548E+03   -0.30170E-02   -0.25097E-02  5128   0.923E-02    0.370E-01
RMM:   4    -0.413190037000E+03   -0.14717E-01   -0.40029E-02  5067   0.172E-01    0.616E-01
RMM:   5    -0.413167718858E+03    0.22318E-01   -0.81246E-03  4644   0.101E-01    0.580E-02
RMM:   6    -0.413167732374E+03   -0.13517E-04   -0.16556E-03  5392   0.405E-02    0.313E-02
RMM:   7    -0.413167750304E+03   -0.17930E-04   -0.32401E-04  5924   0.166E-02    0.188E-02
RMM:   8    -0.413167747306E+03    0.29978E-05   -0.58327E-05  5109   0.887E-03    0.761E-03
RMM:   9    -0.413167745409E+03    0.18978E-05   -0.70149E-06  3229   0.350E-03    0.389E-03
RMM:  10    -0.413167746407E+03   -0.99841E-06   -0.15261E-06  2526   0.206E-03
   15 T=    61. E= -.41286629E+03 F= -.41316775E+03 E0= -.41314551E+03  EK= 0.30146E+00 SP= 0.00E+00 SK= 0.00E+00
       N       E                     dE             d eps       ncg     rms          rms(c)
RMM:   1    -0.413169996464E+03   -0.22511E-02   -0.86851E+00  4302   0.674E-01    0.910E-01
RMM:   2    -0.413173152565E+03   -0.31561E-02   -0.10680E-01  4263   0.891E-02    0.652E-01
RMM:   3    -0.413169763383E+03    0.33892E-02   -0.18885E-02  4969   0.548E-02    0.143E-01
RMM:   4    -0.413204342867E+03   -0.34579E-01   -0.38684E-02  5118   0.164E-01    0.778E-01
RMM:   5    -0.413168610152E+03    0.35733E-01   -0.16808E-02  4791   0.129E-01    0.536E-02
RMM:   6    -0.413168823965E+03   -0.21381E-03   -0.29777E-03  5722   0.538E-02    0.369E-02
RMM:   7    -0.413168809096E+03    0.14869E-04   -0.50842E-04  5699   0.210E-02    0.235E-02
RMM:   8    -0.413168796417E+03    0.12679E-04   -0.73091E-05  5214   0.952E-03    0.109E-02
RMM:   9    -0.413168790386E+03    0.60317E-05   -0.13925E-05  3962   0.420E-03    0.763E-03
RMM:  10    -0.413168786599E+03    0.37864E-05   -0.23373E-06  2598   0.241E-03    0.459E-03
RMM:  11    -0.413168784111E+03    0.24885E-05   -0.11112E-06  2503   0.172E-03    0.271E-03
RMM:  12    -0.413168778917E+03    0.51935E-05   -0.19273E-06  2590   0.207E-03    0.119E-03
RMM:  13    -0.413168775449E+03    0.34686E-05   -0.75163E-07  2438   0.144E-03    0.998E-04
RMM:  14    -0.413168775582E+03   -0.13296E-06   -0.27536E-07  2018   0.927E-04
   16 T=    62. E= -.41286659E+03 F= -.41316878E+03 E0= -.41314658E+03  EK= 0.30218E+00 SP= 0.00E+00 SK= 0.00E+00
       N       E                     dE             d eps       ncg     rms          rms(c)
RMM:   1    -0.413169853531E+03   -0.10781E-02   -0.86280E+00  4295   0.674E-01    0.892E-01
RMM:   2    -0.413173635056E+03   -0.37815E-02   -0.10652E-01  4261   0.908E-02    0.647E-01
RMM:   3    -0.413169899706E+03    0.37353E-02   -0.18691E-02  4880   0.533E-02    0.121E-01
RMM:   4    -0.413200086746E+03   -0.30187E-01   -0.32645E-02  5114   0.150E-01    0.727E-01
RMM:   5    -0.413169056696E+03    0.31030E-01   -0.14799E-02  4792   0.120E-01    0.505E-02
RMM:   6    -0.413169253509E+03   -0.19681E-03   -0.26649E-03  5765   0.497E-02    0.348E-02
RMM:   7    -0.413169242094E+03    0.11414E-04   -0.43974E-04  5631   0.201E-02    0.221E-02
RMM:   8    -0.413169227553E+03    0.14541E-04   -0.67740E-05  5080   0.922E-03    0.107E-02
RMM:   9    -0.413169222582E+03    0.49708E-05   -0.13379E-05  3943   0.416E-03    0.784E-03
RMM:  10    -0.413169219948E+03    0.26346E-05   -0.21562E-06  2583   0.236E-03    0.470E-03
RMM:  11    -0.413169218052E+03    0.18955E-05   -0.12196E-06  2502   0.180E-03    0.262E-03
RMM:  12    -0.413169214660E+03    0.33924E-05   -0.18056E-06  2573   0.203E-03    0.113E-03
RMM:  13    -0.413169212599E+03    0.20612E-05   -0.58612E-07  2387   0.134E-03    0.849E-04
RMM:  14    -0.413169212676E+03   -0.77373E-07   -0.25060E-07  1941   0.874E-04
   17 T=    62. E= -.41286650E+03 F= -.41316921E+03 E0= -.41314705E+03  EK= 0.30271E+00 SP= 0.00E+00 SK= 0.00E+00
       N       E                     dE             d eps       ncg     rms          rms(c)
RMM:   1    -0.413169996029E+03   -0.78343E-03   -0.87119E+00  4296   0.667E-01    0.891E-01
RMM:   2    -0.413174222737E+03   -0.42267E-02   -0.10783E-01  4270   0.904E-02    0.657E-01
RMM:   3    -0.413170510305E+03    0.37124E-02   -0.20111E-02  4895   0.548E-02    0.125E-01
RMM:   4    -0.413200614132E+03   -0.30104E-01   -0.32816E-02  5116   0.151E-01    0.727E-01
RMM:   5    -0.413169588969E+03    0.31025E-01   -0.14870E-02  4787   0.120E-01    0.499E-02
RMM:   6    -0.413169777175E+03   -0.18821E-03   -0.25853E-03  5752   0.497E-02    0.338E-02
RMM:   7    -0.413169773882E+03    0.32933E-05   -0.43556E-04  5629   0.199E-02    0.216E-02
RMM:   8    -0.413169764288E+03    0.95941E-05   -0.66751E-05  5083   0.919E-03    0.103E-02
RMM:   9    -0.413169761316E+03    0.29720E-05   -0.13347E-05  3914   0.414E-03    0.750E-03
RMM:  10    -0.413169761473E+03   -0.15688E-06   -0.20564E-06  2571   0.230E-03
   18 T=    62. E= -.41286649E+03 F= -.41316976E+03 E0= -.41314764E+03  EK= 0.30327E+00 SP= 0.00E+00 SK= 0.00E+00
       N       E                     dE             d eps       ncg     rms          rms(c)
RMM:   1    -0.413171649740E+03   -0.18884E-02   -0.87197E+00  4301   0.678E-01    0.910E-01
RMM:   2    -0.413175075076E+03   -0.34253E-02   -0.10749E-01  4333   0.903E-02    0.655E-01
RMM:   3    -0.413177902327E+03   -0.28273E-02   -0.23706E-02  5127   0.893E-02    0.357E-01
RMM:   4    -0.413193122994E+03   -0.15221E-01   -0.38963E-02  5060   0.169E-01    0.614E-01
RMM:   5    -0.413170918053E+03    0.22205E-01   -0.81067E-03  4658   0.998E-02    0.582E-02
RMM:   6    -0.413170934241E+03   -0.16188E-04   -0.16895E-03  5415   0.407E-02    0.327E-02
RMM:   7    -0.413170938304E+03   -0.40633E-05   -0.32768E-04  5897   0.169E-02    0.194E-02
RMM:   8    -0.413170929771E+03    0.85334E-05   -0.58029E-05  5091   0.900E-03    0.783E-03
RMM:   9    -0.413170923902E+03    0.58691E-05   -0.71316E-06  3248   0.354E-03    0.403E-03
RMM:  10    -0.413170921541E+03    0.23607E-05   -0.15976E-06  2525   0.210E-03    0.253E-03
RMM:  11    -0.413170918038E+03    0.35034E-05   -0.10984E-06  2493   0.170E-03    0.138E-03
RMM:  12    -0.413170914706E+03    0.33316E-05   -0.66392E-07  2447   0.134E-03    0.552E-04
RMM:  13    -0.413170912624E+03    0.20815E-05   -0.33890E-07  2078   0.980E-04    0.325E-04
RMM:  14    -0.413170910721E+03    0.19037E-05   -0.19199E-07  1576   0.771E-04    0.220E-04
RMM:  15    -0.413170907097E+03    0.36240E-05   -0.18408E-07  1468   0.743E-04    0.175E-04
RMM:  16    -0.413170904295E+03    0.28019E-05   -0.12431E-07  1263   0.663E-04    0.147E-04
RMM:  17    -0.413170901343E+03    0.29517E-05   -0.10788E-07  1238   0.645E-04    0.761E-05
RMM:  18    -0.413170899454E+03    0.18895E-05   -0.64192E-08  1004   0.587E-04    0.436E-05
RMM:  19    -0.413170898398E+03    0.10555E-05   -0.36179E-08   847   0.551E-04    0.355E-05
RMM:  20    -0.413170898103E+03    0.29480E-06   -0.17058E-08   709   0.529E-04
   19 T=    62. E= -.41286678E+03 F= -.41317090E+03 E0= -.41314882E+03  EK= 0.30412E+00 SP= 0.00E+00 SK= 0.00E+00
       N       E                     dE             d eps       ncg     rms          rms(c)
RMM:   1    -0.413177892652E+03   -0.69943E-02   -0.87355E+00  4295   0.719E-01    0.900E-01
RMM:   2    -0.413175306653E+03    0.25860E-02   -0.11158E-01  4267   0.885E-02    0.650E-01
RMM:   3    -0.413172255566E+03    0.30511E-02   -0.18355E-02  4977   0.522E-02    0.141E-01
RMM:   4    -0.413207583747E+03   -0.35328E-01   -0.39513E-02  5121   0.165E-01    0.785E-01
RMM:   5    -0.413171159913E+03    0.36424E-01   -0.17344E-02  4788   0.130E-01    0.537E-02
RMM:   6    -0.413171362640E+03   -0.20273E-03   -0.29942E-03  5727   0.538E-02    0.369E-02
RMM:   7    -0.413171349627E+03    0.13014E-04   -0.50431E-04  5641   0.210E-02    0.233E-02
RMM:   8    -0.413171336268E+03    0.13359E-04   -0.75677E-05  5231   0.970E-03    0.109E-02
RMM:   9    -0.413171330346E+03    0.59214E-05   -0.14680E-05  4060   0.433E-03    0.757E-03
RMM:  10    -0.413171327048E+03    0.32984E-05   -0.23226E-06  2596   0.237E-03    0.462E-03
RMM:  11    -0.413171324996E+03    0.20516E-05   -0.10667E-06  2499   0.168E-03    0.274E-03
RMM:  12    -0.413171320826E+03    0.41699E-05   -0.17064E-06  2548   0.201E-03    0.119E-03
RMM:  13    -0.413171318257E+03    0.25697E-05   -0.71156E-07  2410   0.143E-03    0.973E-04
RMM:  14    -0.413171318231E+03    0.25841E-07   -0.28029E-07  2028   0.932E-04
   20 T=    62. E= -.41286649E+03 F= -.41317132E+03 E0= -.41314928E+03  EK= 0.30483E+00 SP= 0.00E+00 SK= 0.00E+00
       N       E                     dE             d eps       ncg     rms          rms(c)
RMM:   1    -0.413172667107E+03   -0.13489E-02   -0.87391E+00  4291   0.679E-01    0.891E-01
RMM:   2    -0.413176887075E+03   -0.42200E-02   -0.10839E-01  4274   0.879E-02    0.657E-01
RMM:   3    -0.413173074618E+03    0.38125E-02   -0.19981E-02  4887   0.519E-02    0.117E-01
RMM:   4    -0.413201242920E+03   -0.28168E-01   -0.30383E-02  5116   0.145E-01    0.703E-01
RMM:   5    -0.413172273683E+03    0.28969E-01   -0.13936E-02  4789   0.116E-01    0.490E-02
RMM:   6    -0.413172447929E+03   -0.17425E-03   -0.24589E-03  5790   0.479E-02    0.326E-02
RMM:   7    -0.413172448628E+03   -0.69905E-06   -0.39002E-04  5628   0.192E-02    0.206E-02
RMM:   8    -0.413172439737E+03    0.88911E-05   -0.68278E-05  5038   0.906E-03    0.105E-02
RMM:   9    -0.413172436040E+03    0.36969E-05   -0.13149E-05  3954   0.417E-03    0.772E-03
RMM:  10    -0.413172435404E+03    0.63586E-06   -0.20028E-06  2560   0.231E-03
   21 T=    62. E= -.41286661E+03 F= -.41317244E+03 E0= -.41315045E+03  EK= 0.30582E+00 SP= 0.00E+00 SK= 0.00E+00
       N       E                     dE             d eps       ncg     rms          rms(c)
RMM:   1    -0.413175390439E+03   -0.29544E-02   -0.87872E+00  4299   0.703E-01    0.908E-01
RMM:   2    -0.413178033935E+03   -0.26435E-02   -0.10923E-01  4341   0.899E-02    0.659E-01
RMM:   3    -0.413180150568E+03   -0.21166E-02   -0.23675E-02  5130   0.879E-02    0.347E-01
RMM:   4    -0.413197616565E+03   -0.17466E-01   -0.40791E-02  5074   0.172E-01    0.639E-01
RMM:   5    -0.413173510216E+03    0.24106E-01   -0.90005E-03  4661   0.104E-01    0.580E-02
RMM:   6    -0.413173546529E+03   -0.36313E-04   -0.18564E-03  5456   0.424E-02    0.327E-02
RMM:   7    -0.413173554349E+03   -0.78197E-05   -0.34329E-04  5878   0.172E-02    0.197E-02
RMM:   8    -0.413173545856E+03    0.84931E-05   -0.59895E-05  5111   0.896E-03    0.802E-03
RMM:   9    -0.413173540251E+03    0.56053E-05   -0.76288E-06  3294   0.354E-03    0.418E-03
RMM:  10    -0.413173537936E+03    0.23141E-05   -0.17067E-06  2536   0.212E-03    0.265E-03
RMM:  11    -0.413173534783E+03    0.31538E-05   -0.10524E-06  2488   0.167E-03    0.140E-03
RMM:  12    -0.413173531308E+03    0.34747E-05   -0.68235E-07  2446   0.135E-03    0.523E-04
RMM:  13    -0.413173529298E+03    0.20100E-05   -0.33897E-07  2084   0.980E-04    0.313E-04
RMM:  14    -0.413173527455E+03    0.18426E-05   -0.18945E-07  1589   0.769E-04    0.206E-04
RMM:  15    -0.413173524144E+03    0.33114E-05   -0.15566E-07  1358   0.715E-04    0.155E-04
RMM:  16    -0.413173521439E+03    0.27049E-05   -0.10961E-07  1221   0.659E-04    0.152E-04
RMM:  17    -0.413173518758E+03    0.26811E-05   -0.85882E-08  1133   0.628E-04    0.755E-05
RMM:  18    -0.413173516338E+03    0.24197E-05   -0.63865E-08  1039   0.600E-04    0.340E-05
RMM:  19    -0.413173515177E+03    0.11615E-05   -0.33287E-08   844   0.558E-04    0.269E-05
RMM:  20    -0.413173514775E+03    0.40167E-06   -0.17124E-08   734   0.541E-04
   22 T=    62. E= -.41286666E+03 F= -.41317351E+03 E0= -.41315157E+03  EK= 0.30685E+00 SP= 0.00E+00 SK= 0.00E+00
       N       E                     dE             d eps       ncg     rms          rms(c)
RMM:   1    -0.413174976922E+03   -0.14617E-02   -0.87526E+00  4293   0.692E-01    0.909E-01
RMM:   2    -0.413178690307E+03   -0.37134E-02   -0.10796E-01  4285   0.899E-02    0.653E-01
RMM:   3    -0.413175128787E+03    0.35615E-02   -0.18865E-02  4946   0.539E-02    0.138E-01
RMM:   4    -0.413209487705E+03   -0.34359E-01   -0.38212E-02  5121   0.163E-01    0.774E-01
RMM:   5    -0.413174065762E+03    0.35422E-01   -0.16876E-02  4786   0.129E-01    0.533E-02
RMM:   6    -0.413174266534E+03   -0.20077E-03   -0.29935E-03  5747   0.532E-02    0.370E-02
RMM:   7    -0.413174254015E+03    0.12519E-04   -0.49505E-04  5636   0.212E-02    0.234E-02
RMM:   8    -0.413174240760E+03    0.13255E-04   -0.76222E-05  5199   0.976E-03    0.113E-02
RMM:   9    -0.413174233867E+03    0.68923E-05   -0.14595E-05  4058   0.436E-03    0.790E-03
RMM:  10    -0.413174229209E+03    0.46586E-05   -0.23166E-06  2598   0.240E-03    0.480E-03
RMM:  11    -0.413174226162E+03    0.30466E-05   -0.11427E-06  2502   0.174E-03    0.283E-03
RMM:  12    -0.413174220198E+03    0.59640E-05   -0.18366E-06  2566   0.209E-03    0.121E-03
RMM:  13    -0.413174216530E+03    0.36684E-05   -0.71408E-07  2412   0.145E-03    0.100E-03
RMM:  14    -0.413174216720E+03   -0.19059E-06   -0.28675E-07  2047   0.939E-04
   23 T=    63. E= -.41286644E+03 F= -.41317422E+03 E0= -.41315232E+03  EK= 0.30777E+00 SP= 0.00E+00 SK= 0.00E+00
       N       E                     dE             d eps       ncg     rms          rms(c)
RMM:   1    -0.413176477577E+03   -0.22610E-02   -0.87809E+00  4295   0.704E-01    0.894E-01
RMM:   2    -0.413180620816E+03   -0.41432E-02   -0.10896E-01  4284   0.917E-02    0.657E-01
RMM:   3    -0.413176297059E+03    0.43238E-02   -0.19675E-02  4825   0.520E-02    0.104E-01
RMM:   4    -0.413200160185E+03   -0.23863E-01   -0.25039E-02  5123   0.132E-01    0.648E-01
RMM:   5    -0.413175695719E+03    0.24464E-01   -0.11913E-02  4802   0.107E-01    0.472E-02
RMM:   6    -0.413175832179E+03   -0.13646E-03   -0.21128E-03  5820   0.435E-02    0.301E-02
RMM:   7    -0.413175831156E+03    0.10228E-05   -0.28062E-04  5650   0.169E-02    0.167E-02
RMM:   8    -0.413175824898E+03    0.62580E-05   -0.57916E-05  4986   0.800E-03    0.104E-02
RMM:   9    -0.413175819961E+03    0.49373E-05   -0.11424E-05  3878   0.394E-03    0.764E-03
RMM:  10    -0.413175818279E+03    0.16823E-05   -0.18660E-06  2559   0.227E-03    0.455E-03
RMM:  11    -0.413175816739E+03    0.15392E-05   -0.15492E-06  2530   0.197E-03    0.235E-03
RMM:  12    -0.413175814467E+03    0.22729E-05   -0.13872E-06  2506   0.185E-03    0.986E-04
RMM:  13    -0.413175813463E+03    0.10033E-05   -0.47466E-07  2292   0.121E-03    0.637E-04
RMM:  14    -0.413175813063E+03    0.40003E-06   -0.21990E-07  1805   0.832E-04
   24 T=    63. E= -.41286682E+03 F= -.41317581E+03 E0= -.41315397E+03  EK= 0.30899E+00 SP= 0.00E+00 SK= 0.00E+00
       N       E                     dE             d eps       ncg     rms          rms(c)
RMM:   1    -0.413177759442E+03   -0.19460E-02   -0.88497E+00  4297   0.709E-01    0.908E-01
RMM:   2    -0.413181465521E+03   -0.37061E-02   -0.10972E-01  4291   0.925E-02    0.663E-01
RMM:   3    -0.413177520080E+03    0.39454E-02   -0.19868E-02  4892   0.553E-02    0.123E-01
RMM:   4    -0.413208344700E+03   -0.30825E-01   -0.33354E-02  5120   0.152E-01    0.734E-01
RMM:   5    -0.413176647840E+03    0.31697E-01   -0.15169E-02  4793   0.122E-01    0.510E-02
RMM:   6    -0.413176836297E+03   -0.18846E-03   -0.27305E-03  5790   0.502E-02    0.352E-02
RMM:   7    -0.413176828967E+03    0.73303E-05   -0.45085E-04  5612   0.204E-02    0.223E-02
RMM:   8    -0.413176816269E+03    0.12698E-04   -0.70156E-05  5112   0.949E-03    0.109E-02
RMM:   9    -0.413176810787E+03    0.54825E-05   -0.13738E-05  3954   0.426E-03    0.778E-03
RMM:  10    -0.413176807927E+03    0.28595E-05   -0.21740E-06  2587   0.238E-03    0.469E-03
RMM:  11    -0.413176805899E+03    0.20278E-05   -0.12282E-06  2506   0.179E-03    0.262E-03
RMM:  12    -0.413176802258E+03    0.36416E-05   -0.17522E-06  2546   0.204E-03    0.114E-03
RMM:  13    -0.413176799987E+03    0.22705E-05   -0.59919E-07  2380   0.136E-03    0.861E-04
RMM:  14    -0.413176799987E+03   -0.72760E-11   -0.26130E-07  1966   0.891E-04
   25 T=    63. E= -.41286672E+03 F= -.41317680E+03 E0= -.41315500E+03  EK= 0.31008E+00 SP= 0.00E+00 SK= 0.00E+00
       N       E                     dE             d eps       ncg     rms          rms(c)
RMM:   1    -0.413179105038E+03   -0.23051E-02   -0.88429E+00  4297   0.717E-01    0.918E-01
RMM:   2    -0.413182434554E+03   -0.33295E-02   -0.10971E-01  4290   0.947E-02    0.658E-01
RMM:   3    -0.413178603423E+03    0.38311E-02   -0.18754E-02  4821   0.532E-02    0.108E-01
RMM:   4    -0.413204830555E+03   -0.26227E-01   -0.27459E-02  5132   0.138E-01    0.677E-01
RMM:   5    -0.413178016008E+03    0.26815E-01   -0.13117E-02  4798   0.112E-01    0.493E-02
RMM:   6    -0.413178158234E+03   -0.14223E-03   -0.23408E-03  5821   0.460E-02    0.329E-02
RMM:   7    -0.413178148867E+03    0.93669E-05   -0.33748E-04  5620   0.186E-02    0.191E-02
RMM:   8    -0.413178136922E+03    0.11945E-04   -0.65894E-05  5002   0.882E-03    0.111E-02
RMM:   9    -0.413178129598E+03    0.73234E-05   -0.12940E-05  4039   0.418E-03    0.809E-03
RMM:  10    -0.413178124098E+03    0.55001E-05   -0.20530E-06  2571   0.238E-03    0.480E-03
RMM:  11    -0.413178119216E+03    0.48824E-05   -0.14520E-06  2527   0.193E-03    0.260E-03
RMM:  12    -0.413178111803E+03    0.74132E-05   -0.16799E-06  2554   0.201E-03    0.110E-03
RMM:  13    -0.413178108091E+03    0.37112E-05   -0.53387E-07  2343   0.130E-03    0.702E-04
RMM:  14    -0.413178107894E+03    0.19789E-06   -0.24994E-07  1898   0.869E-04
   26 T=    63. E= -.41286669E+03 F= -.41317811E+03 E0= -.41315636E+03  EK= 0.31142E+00 SP= 0.00E+00 SK= 0.00E+00
       N       E                     dE             d eps       ncg     rms          rms(c)
RMM:   1    -0.413186255169E+03   -0.81471E-02   -0.88921E+00  4293   0.750E-01    0.899E-01
RMM:   2    -0.413184351615E+03    0.19036E-02   -0.11474E-01  4288   0.968E-02    0.659E-01
RMM:   3    -0.413180415568E+03    0.39360E-02   -0.18894E-02  4829   0.529E-02    0.104E-01
RMM:   4    -0.413205906575E+03   -0.25491E-01   -0.26642E-02  5125   0.136E-01    0.668E-01
RMM:   5    -0.413179838565E+03    0.26068E-01   -0.12800E-02  4801   0.111E-01    0.483E-02
RMM:   6    -0.413179982562E+03   -0.14400E-03   -0.22402E-03  5818   0.452E-02    0.322E-02
RMM:   7    -0.413179980074E+03    0.24876E-05   -0.34459E-04  5617   0.185E-02    0.194E-02
RMM:   8    -0.413179970359E+03    0.97153E-05   -0.64292E-05  4995   0.879E-03    0.106E-02
RMM:   9    -0.413179964848E+03    0.55110E-05   -0.12378E-05  3938   0.411E-03    0.776E-03
RMM:  10    -0.413179961813E+03    0.30348E-05   -0.19433E-06  2559   0.233E-03    0.460E-03
RMM:  11    -0.413179959057E+03    0.27559E-05   -0.14367E-06  2524   0.192E-03    0.240E-03
RMM:  12    -0.413179955101E+03    0.39561E-05   -0.14809E-06  2524   0.189E-03    0.102E-03
RMM:  13    -0.413179953111E+03    0.19901E-05   -0.49125E-07  2314   0.124E-03    0.640E-04
RMM:  14    -0.413179952742E+03    0.36939E-06   -0.22957E-07  1833   0.840E-04
   27 T=    64. E= -.41286693E+03 F= -.41317995E+03 E0= -.41315825E+03  EK= 0.31302E+00 SP= 0.00E+00 SK= 0.00E+00
       N       E                     dE             d eps       ncg     rms          rms(c)
RMM:   1    -0.413181583325E+03   -0.16302E-02   -0.89386E+00  4296   0.718E-01    0.909E-01
RMM:   2    -0.413185607884E+03   -0.40246E-02   -0.11178E-01  4283   0.984E-02    0.668E-01
RMM:   3    -0.413181497738E+03    0.41101E-02   -0.20347E-02  4777   0.551E-02    0.102E-01
RMM:   4    -0.413205021418E+03   -0.23524E-01   -0.24507E-02  5134   0.131E-01    0.643E-01
RMM:   5    -0.413180916916E+03    0.24105E-01   -0.11833E-02  4801   0.106E-01    0.474E-02
RMM:   6    -0.413181052917E+03   -0.13600E-03   -0.20960E-03  5833   0.436E-02    0.315E-02
RMM:   7    -0.413181051131E+03    0.17862E-05   -0.32333E-04  5608   0.181E-02    0.188E-02
RMM:   8    -0.413181042872E+03    0.82581E-05   -0.59959E-05  4970   0.852E-03    0.104E-02
RMM:   9    -0.413181038015E+03    0.48572E-05   -0.11543E-05  3823   0.397E-03    0.757E-03
RMM:  10    -0.413181035767E+03    0.22478E-05   -0.18761E-06  2544   0.231E-03    0.443E-03
RMM:  11    -0.413181033693E+03    0.20747E-05   -0.14902E-06  2532   0.194E-03    0.225E-03
RMM:  12    -0.413181030793E+03    0.28994E-05   -0.13647E-06  2509   0.183E-03    0.981E-04
RMM:  13    -0.413181029396E+03    0.13977E-05   -0.46938E-07  2307   0.121E-03    0.622E-04
RMM:  14    -0.413181028903E+03    0.49265E-06   -0.21980E-07  1808   0.827E-04
   28 T=    64. E= -.41286659E+03 F= -.41318103E+03 E0= -.41315938E+03  EK= 0.31444E+00 SP= 0.00E+00 SK= 0.00E+00
       N       E                     dE             d eps       ncg     rms          rms(c)
RMM:   1    -0.413184694814E+03   -0.36654E-02   -0.89565E+00  4294   0.752E-01    0.926E-01
RMM:   2    -0.413187545461E+03   -0.28506E-02   -0.11229E-01  4280   0.101E-01    0.665E-01
RMM:   3    -0.413183309816E+03    0.42356E-02   -0.19037E-02  4639   0.510E-02    0.846E-02
RMM:   4    -0.413197909289E+03   -0.14599E-01   -0.14833E-02  5139   0.102E-01    0.509E-01
RMM:   5    -0.413183052353E+03    0.14857E-01   -0.74685E-03  4824   0.836E-02    0.450E-02
RMM:   6    -0.413183119138E+03   -0.66785E-04   -0.13624E-03  5837   0.344E-02    0.277E-02
RMM:   7    -0.413183112158E+03    0.69799E-05   -0.16430E-04  5458   0.140E-02    0.131E-02
RMM:   8    -0.413183103740E+03    0.84177E-05   -0.22734E-05  4337   0.518E-03    0.802E-03
RMM:   9    -0.413183101267E+03    0.24730E-05   -0.66780E-06  3280   0.302E-03    0.616E-03
RMM:  10    -0.413183096610E+03    0.46571E-05   -0.13828E-06  2519   0.205E-03    0.359E-03
RMM:  11    -0.413183090392E+03    0.62179E-05   -0.16847E-06  2540   0.203E-03    0.190E-03
RMM:  12    -0.413183084927E+03    0.54656E-05   -0.93133E-07  2462   0.159E-03    0.108E-03
RMM:  13    -0.413183083126E+03    0.18008E-05   -0.34473E-07  2188   0.104E-03    0.569E-04
RMM:  14    -0.413183081794E+03    0.13323E-05   -0.15917E-07  1572   0.744E-04    0.428E-04
RMM:  15    -0.413183076821E+03    0.49728E-05   -0.21695E-07  2156   0.831E-04    0.479E-04
RMM:  16    -0.413183074357E+03    0.24640E-05   -0.69753E-08  1134   0.603E-04    0.334E-04
RMM:  17    -0.413183071070E+03    0.32864E-05   -0.43806E-08   873   0.559E-04    0.228E-04
RMM:  18    -0.413183067886E+03    0.31842E-05   -0.51180E-08  1015   0.590E-04    0.586E-05
RMM:  19    -0.413183065538E+03    0.23484E-05   -0.36182E-08   970   0.577E-04    0.131E-04
RMM:  20    -0.413183065340E+03    0.19751E-06   -0.11730E-08   693   0.526E-04
   29 T=    64. E= -.41286683E+03 F= -.41318307E+03 E0= -.41316147E+03  EK= 0.31623E+00 SP= 0.00E+00 SK= 0.00E+00
       N       E                     dE             d eps       ncg     rms          rms(c)
RMM:   1    -0.413187164855E+03   -0.40993E-02   -0.89401E+00  4288   0.775E-01    0.908E-01
RMM:   2    -0.413189750109E+03   -0.25853E-02   -0.11549E-01  4277   0.109E-01    0.662E-01
RMM:   3    -0.413185071602E+03    0.46785E-02   -0.19037E-02  4554   0.558E-02    0.766E-02
RMM:   4    -0.413195991425E+03   -0.10920E-01   -0.11023E-02  5133   0.883E-02    0.442E-01
RMM:   5    -0.413184881633E+03    0.11110E-01   -0.56201E-03  4824   0.723E-02    0.431E-02
RMM:   6    -0.413184931505E+03   -0.49871E-04   -0.10814E-03  5826   0.305E-02    0.271E-02
RMM:   7    -0.413184931042E+03    0.46235E-06   -0.22822E-04  5412   0.156E-02    0.175E-02
RMM:   8    -0.413184914602E+03    0.16441E-04   -0.28838E-05  4648   0.650E-03    0.819E-03
RMM:   9    -0.413184912744E+03    0.18573E-05   -0.54471E-06  3005   0.291E-03    0.585E-03
RMM:  10    -0.413184909638E+03    0.31064E-05   -0.16191E-06  2506   0.210E-03    0.318E-03
RMM:  11    -0.413184906681E+03    0.29568E-05   -0.10757E-06  2483   0.171E-03    0.162E-03
RMM:  12    -0.413184903630E+03    0.30509E-05   -0.66495E-07  2401   0.135E-03    0.864E-04
RMM:  13    -0.413184902053E+03    0.15770E-05   -0.30934E-07  2034   0.954E-04    0.371E-04
RMM:  14    -0.413184900497E+03    0.15562E-05   -0.16762E-07  1520   0.743E-04    0.234E-04
RMM:  15    -0.413184897852E+03    0.26449E-05   -0.11239E-07  1308   0.682E-04    0.123E-04
RMM:  16    -0.413184895409E+03    0.24435E-05   -0.69273E-08  1020   0.630E-04    0.912E-05
RMM:  17    -0.413184893691E+03    0.17178E-05   -0.42633E-08   898   0.596E-04    0.582E-05
RMM:  18    -0.413184890271E+03    0.34200E-05   -0.62179E-08  1110   0.622E-04    0.379E-05
RMM:  19    -0.413184889541E+03    0.72992E-06   -0.21598E-08   763   0.555E-04
   30 T=    65. E= -.41286680E+03 F= -.41318489E+03 E0= -.41316334E+03  EK= 0.31809E+00 SP= 0.00E+00 SK= 0.00E+00
       N       E                     dE             d eps       ncg     rms          rms(c)
RMM:   1    -0.413187084144E+03   -0.21939E-02   -0.90461E+00  4294   0.747E-01    0.912E-01
RMM:   2    -0.413191895828E+03   -0.48117E-02   -0.11418E-01  4277   0.109E-01    0.673E-01
RMM:   3    -0.413186831786E+03    0.50640E-02   -0.20923E-02  4551   0.618E-02    0.799E-02
RMM:   4    -0.413199019422E+03   -0.12188E-01   -0.12285E-02  5141   0.937E-02    0.467E-01
RMM:   5    -0.413186552795E+03    0.12467E-01   -0.62466E-03  4821   0.764E-02    0.431E-02
RMM:   6    -0.413186611894E+03   -0.59098E-04   -0.11768E-03  5843   0.319E-02    0.271E-02
RMM:   7    -0.413186618453E+03   -0.65598E-05   -0.22482E-04  5425   0.155E-02    0.172E-02
RMM:   8    -0.413186603538E+03    0.14916E-04   -0.31368E-05  4698   0.663E-03    0.829E-03
RMM:   9    -0.413186602736E+03    0.80163E-06   -0.59763E-06  3103   0.304E-03
   31 T=    65. E= -.41286657E+03 F= -.41318660E+03 E0= -.41316511E+03  EK= 0.32003E+00 SP= 0.00E+00 SK= 0.00E+00
       N       E                     dE             d eps       ncg     rms          rms(c)
RMM:   1    -0.413200247141E+03   -0.13644E-01   -0.91778E+00  4294   0.859E-01    0.933E-01
RMM:   2    -0.413194165074E+03    0.60821E-02   -0.12158E-01  4307   0.120E-01    0.673E-01
RMM:   3    -0.413192107166E+03    0.20579E-02   -0.21021E-02  4990   0.837E-02    0.237E-01
RMM:   4    -0.413227909091E+03   -0.35802E-01   -0.47960E-02  5098   0.185E-01    0.808E-01
RMM:   5    -0.413189022759E+03    0.38886E-01   -0.17105E-02  4761   0.133E-01    0.578E-02
RMM:   6    -0.413189203214E+03   -0.18045E-03   -0.32716E-03  5776   0.548E-02    0.376E-02
RMM:   7    -0.413189204346E+03   -0.11315E-05   -0.50938E-04  5669   0.211E-02    0.244E-02
RMM:   8    -0.413189195648E+03    0.86980E-05   -0.94360E-05  5213   0.108E-02    0.119E-02
RMM:   9    -0.413189185709E+03    0.99389E-05   -0.14815E-05  4044   0.473E-03    0.664E-03
RMM:  10    -0.413189179842E+03    0.58663E-05   -0.31865E-06  2719   0.262E-03    0.419E-03
RMM:  11    -0.413189175426E+03    0.44162E-05   -0.11599E-06  2497   0.181E-03    0.235E-03
RMM:  12    -0.413189167282E+03    0.81438E-05   -0.13337E-06  2497   0.186E-03    0.912E-04
RMM:  13    -0.413189162734E+03    0.45487E-05   -0.63612E-07  2396   0.134E-03    0.642E-04
RMM:  14    -0.413189161624E+03    0.11093E-05   -0.29472E-07  2043   0.934E-04    0.454E-04
RMM:  15    -0.413189159797E+03    0.18278E-05   -0.15048E-07  1493   0.725E-04    0.293E-04
RMM:  16    -0.413189153665E+03    0.61312E-05   -0.16080E-07  1727   0.757E-04    0.354E-04
RMM:  17    -0.413189150963E+03    0.27023E-05   -0.73035E-08  1097   0.603E-04    0.285E-04
RMM:  18    -0.413189145673E+03    0.52897E-05   -0.80470E-08  1146   0.617E-04    0.183E-04
RMM:  19    -0.413189144269E+03    0.14046E-05   -0.45969E-08   958   0.566E-04    0.439E-05
RMM:  20    -0.413189142767E+03    0.15019E-05   -0.34106E-08   932   0.568E-04    0.110E-04
RMM:  21    -0.413189142723E+03    0.44056E-07   -0.12595E-08   698   0.525E-04
   32 T=    66. E= -.41286678E+03 F= -.41318914E+03 E0= -.41316769E+03  EK= 0.32237E+00 SP= 0.00E+00 SK= 0.00E+00
       N       E                     dE             d eps       ncg     rms          rms(c)
RMM:   1    -0.413204461614E+03   -0.15319E-01   -0.91841E+00  4297   0.870E-01    0.920E-01
RMM:   2    -0.413195769273E+03    0.86923E-02   -0.13183E-01  4285   0.122E-01    0.670E-01
RMM:   3    -0.413191126545E+03    0.46427E-02   -0.17815E-02  4346   0.631E-02    0.793E-02
RMM:   4    -0.413193760925E+03   -0.26344E-02   -0.30082E-03  5170   0.457E-02    0.219E-01
RMM:   5    -0.413191130475E+03    0.26305E-02   -0.14195E-03  4836   0.368E-02    0.420E-02
RMM:   6    -0.413191169355E+03   -0.38881E-04   -0.57870E-04  5542   0.233E-02    0.318E-02
RMM:   7    -0.413191125826E+03    0.43529E-04   -0.22997E-04  5047   0.160E-02    0.176E-02
RMM:   8    -0.413191118768E+03    0.70585E-05   -0.27759E-05  4566   0.573E-03    0.644E-03
RMM:   9    -0.413191117235E+03    0.15329E-05   -0.28160E-06  2584   0.226E-03    0.393E-03
RMM:  10    -0.413191113273E+03    0.39617E-05   -0.93828E-07  2472   0.161E-03    0.213E-03
RMM:  11    -0.413191109260E+03    0.40135E-05   -0.63190E-07  2380   0.123E-03    0.869E-04
RMM:  12    -0.413191105783E+03    0.34771E-05   -0.32474E-07  1980   0.932E-04    0.345E-04
RMM:  13    -0.413191102685E+03    0.30981E-05   -0.18312E-07  1538   0.761E-04    0.253E-04
RMM:  14    -0.413191099831E+03    0.28532E-05   -0.94340E-08  1067   0.652E-04    0.165E-04
RMM:  15    -0.413191095319E+03    0.45118E-05   -0.90846E-08  1132   0.658E-04    0.834E-05
RMM:  16    -0.413191092612E+03    0.27075E-05   -0.61281E-08  1091   0.618E-04    0.987E-05
RMM:  17    -0.413191089913E+03    0.26989E-05   -0.41027E-08   934   0.581E-04    0.416E-05
RMM:  18    -0.413191088197E+03    0.17159E-05   -0.27948E-08   855   0.557E-04    0.331E-05
RMM:  19    -0.413191087528E+03    0.66876E-06   -0.15452E-08   698   0.529E-04
   33 T=    66. E= -.41286653E+03 F= -.41319109E+03 E0= -.41316969E+03  EK= 0.32456E+00 SP= 0.00E+00 SK= 0.00E+00
       N       E                     dE             d eps       ncg     rms          rms(c)
RMM:   1    -0.413194336705E+03   -0.32485E-02   -0.91743E+00  4302   0.791E-01    0.918E-01
RMM:   2    -0.413198333044E+03   -0.39963E-02   -0.11818E-01  4280   0.121E-01    0.679E-01
RMM:   3    -0.413193640076E+03    0.46930E-02   -0.21177E-02  4410   0.706E-02    0.671E-02
RMM:   4    -0.413198994249E+03   -0.53542E-02   -0.54550E-03  5152   0.628E-02    0.313E-01
RMM:   5    -0.413193511151E+03    0.54831E-02   -0.28063E-03  4831   0.514E-02    0.415E-02
RMM:   6    -0.413193552943E+03   -0.41792E-04   -0.77478E-04  5706   0.256E-02    0.292E-02
RMM:   7    -0.413193537826E+03    0.15117E-04   -0.24775E-04  5215   0.162E-02    0.187E-02
RMM:   8    -0.413193525006E+03    0.12820E-04   -0.21756E-05  4301   0.581E-03    0.764E-03
RMM:   9    -0.413193523870E+03    0.11359E-05   -0.30496E-06  2678   0.236E-03    0.501E-03
RMM:  10    -0.413193522189E+03    0.16810E-05   -0.14493E-06  2494   0.193E-03    0.261E-03
RMM:  11    -0.413193520734E+03    0.14553E-05   -0.90197E-07  2443   0.153E-03    0.125E-03
RMM:  12    -0.413193518981E+03    0.17526E-05   -0.51154E-07  2259   0.117E-03    0.556E-04
RMM:  13    -0.413193517641E+03    0.13402E-05   -0.26969E-07  1862   0.872E-04    0.297E-04
RMM:  14    -0.413193515861E+03    0.17806E-05   -0.14053E-07  1311   0.704E-04    0.208E-04
RMM:  15    -0.413193513260E+03    0.26006E-05   -0.99796E-08  1125   0.654E-04    0.100E-04
RMM:  16    -0.413193511449E+03    0.18113E-05   -0.59824E-08   958   0.613E-04    0.687E-05
RMM:  17    -0.413193508773E+03    0.26757E-05   -0.57095E-08  1036   0.612E-04    0.457E-05
RMM:  18    -0.413193507014E+03    0.17586E-05   -0.38091E-08   921   0.576E-04    0.370E-05
RMM:  19    -0.413193506336E+03    0.67841E-06   -0.15501E-08   683   0.540E-04
   34 T=    67. E= -.41286660E+03 F= -.41319351E+03 E0= -.41317215E+03  EK= 0.32690E+00 SP= 0.00E+00 SK= 0.00E+00
       N       E                     dE             d eps       ncg     rms          rms(c)
RMM:   1    -0.413202391556E+03   -0.88845E-02   -0.92779E+00  4300   0.863E-01    0.937E-01
RMM:   2    -0.413200735112E+03    0.16564E-02   -0.12850E-01  4274   0.130E-01    0.682E-01
RMM:   3    -0.413196243634E+03    0.44915E-02   -0.19290E-02  4269   0.720E-02    0.671E-02
RMM:   4    -0.413196355632E+03   -0.11200E-03   -0.50719E-04  5103   0.150E-02    0.564E-02
RMM:   5    -0.413196329680E+03    0.25952E-04   -0.20192E-04  4897   0.135E-02    0.532E-02
RMM:   6    -0.413196299152E+03    0.30528E-04   -0.44606E-04  5257   0.205E-02    0.319E-02
RMM:   7    -0.413196243249E+03    0.55903E-04   -0.18757E-04  4797   0.150E-02    0.158E-02
RMM:   8    -0.413196239891E+03    0.33585E-05   -0.29892E-05  4636   0.551E-03    0.571E-03
RMM:   9    -0.413196238842E+03    0.10488E-05   -0.42803E-06  2496   0.218E-03    0.186E-03
RMM:  10    -0.413196233134E+03    0.57082E-05   -0.91192E-07  2349   0.152E-03    0.843E-04
RMM:  11    -0.413196230009E+03    0.31246E-05   -0.25284E-07  1830   0.862E-04    0.492E-04
RMM:  12    -0.413196225995E+03    0.40146E-05   -0.15179E-07  1299   0.720E-04    0.350E-04
RMM:  13    -0.413196222275E+03    0.37192E-05   -0.12138E-07  1258   0.677E-04    0.253E-04
RMM:  14    -0.413196217086E+03    0.51891E-05   -0.11220E-07  1166   0.665E-04    0.177E-04
RMM:  15    -0.413196214712E+03    0.23742E-05   -0.40743E-08   720   0.579E-04    0.134E-04
RMM:  16    -0.413196210582E+03    0.41304E-05   -0.43313E-08   869   0.599E-04    0.686E-05
RMM:  17    -0.413196209286E+03    0.12961E-05   -0.20745E-08   677   0.545E-04    0.576E-05
RMM:  18    -0.413196208564E+03    0.72124E-06   -0.10011E-08   540   0.524E-04
   35 T=    67. E= -.41286680E+03 F= -.41319621E+03 E0= -.41317490E+03  EK= 0.32940E+00 SP= 0.00E+00 SK= 0.00E+00
       N       E                     dE             d eps       ncg     rms          rms(c)
RMM:   1    -0.413203057172E+03   -0.68479E-02   -0.92597E+00  4300   0.884E-01    0.937E-01
RMM:   2    -0.413202802206E+03    0.25497E-03   -0.12393E-01  4269   0.133E-01    0.677E-01
RMM:   3    -0.413198470370E+03    0.43318E-02   -0.19497E-02  4354   0.723E-02    0.705E-02
RMM:   4    -0.413200802324E+03   -0.23320E-02   -0.26024E-03  5185   0.433E-02    0.208E-01
RMM:   5    -0.413198463700E+03    0.23386E-02   -0.12894E-03  4831   0.353E-02    0.429E-02
RMM:   6    -0.413198498908E+03   -0.35208E-04   -0.58221E-04  5503   0.240E-02    0.332E-02
RMM:   7    -0.413198456840E+03    0.42068E-04   -0.24687E-04  4976   0.167E-02    0.188E-02
RMM:   8    -0.413198448491E+03    0.83483E-05   -0.31579E-05  4858   0.609E-03    0.752E-03
RMM:   9    -0.413198446751E+03    0.17402E-05   -0.40842E-06  2647   0.237E-03    0.377E-03
RMM:  10    -0.413198441747E+03    0.50043E-05   -0.10709E-06  2471   0.174E-03    0.214E-03
RMM:  11    -0.413198436988E+03    0.47595E-05   -0.62733E-07  2359   0.123E-03    0.842E-04
RMM:  12    -0.413198432424E+03    0.45638E-05   -0.32517E-07  1944   0.942E-04    0.324E-04
RMM:  13    -0.413198428112E+03    0.43114E-05   -0.18690E-07  1547   0.775E-04    0.248E-04
RMM:  14    -0.413198424784E+03    0.33287E-05   -0.91356E-08  1024   0.651E-04    0.177E-04
RMM:  15    -0.413198419392E+03    0.53912E-05   -0.82123E-08  1067   0.649E-04    0.814E-05
RMM:  16    -0.413198415415E+03    0.39773E-05   -0.66064E-08  1104   0.626E-04    0.924E-05
RMM:  17    -0.413198413034E+03    0.23811E-05   -0.33675E-08   826   0.568E-04    0.459E-05
RMM:  18    -0.413198410747E+03    0.22866E-05   -0.29548E-08   843   0.562E-04    0.353E-05
RMM:  19    -0.413198410252E+03    0.49522E-06   -0.12090E-08   570   0.520E-04
   36 T=    68. E= -.41286662E+03 F= -.41319841E+03 E0= -.41317715E+03  EK= 0.33179E+00 SP= 0.00E+00 SK= 0.00E+00
       N       E                     dE             d eps       ncg     rms          rms(c)
RMM:   1    -0.413205189084E+03   -0.67783E-02   -0.93296E+00  4306   0.882E-01    0.926E-01
RMM:   2    -0.413206390134E+03   -0.12010E-02   -0.12284E-01  4263   0.129E-01    0.683E-01
RMM:   3    -0.413201451818E+03    0.49383E-02   -0.21020E-02  4480   0.697E-02    0.711E-02
RMM:   4    -0.413209536559E+03   -0.80847E-02   -0.81823E-03  5163   0.766E-02    0.383E-01
RMM:   5    -0.413201312772E+03    0.82238E-02   -0.42041E-03  4825   0.635E-02    0.436E-02
RMM:   6    -0.413201335877E+03   -0.23105E-04   -0.98346E-04  5710   0.302E-02    0.314E-02
RMM:   7    -0.413201326803E+03    0.90740E-05   -0.30593E-04  5266   0.177E-02    0.199E-02
RMM:   8    -0.413201312586E+03    0.14217E-04   -0.33104E-05  4860   0.683E-03    0.895E-03
RMM:   9    -0.413201311257E+03    0.13293E-05   -0.50919E-06  2880   0.278E-03    0.533E-03
RMM:  10    -0.413201309140E+03    0.21165E-05   -0.16444E-06  2526   0.212E-03    0.282E-03
RMM:  11    -0.413201306793E+03    0.23470E-05   -0.10386E-06  2473   0.165E-03    0.138E-03
RMM:  12    -0.413201304246E+03    0.25475E-05   -0.61341E-07  2362   0.127E-03    0.684E-04
RMM:  13    -0.413201302425E+03    0.18203E-05   -0.31790E-07  1969   0.933E-04    0.333E-04
RMM:  14    -0.413201300493E+03    0.19327E-05   -0.16349E-07  1447   0.731E-04    0.213E-04
RMM:  15    -0.413201297602E+03    0.28907E-05   -0.10076E-07  1139   0.659E-04    0.120E-04
RMM:  16    -0.413201295064E+03    0.25376E-05   -0.69592E-08  1011   0.629E-04    0.741E-05
RMM:  17    -0.413201293185E+03    0.18789E-05   -0.42935E-08   903   0.601E-04    0.471E-05
RMM:  18    -0.413201289971E+03    0.32142E-05   -0.54156E-08  1140   0.616E-04    0.332E-05
RMM:  19    -0.413201289078E+03    0.89280E-06   -0.22162E-08   788   0.544E-04
   37 T=    68. E= -.41286688E+03 F= -.41320129E+03 E0= -.41318007E+03  EK= 0.33441E+00 SP= 0.00E+00 SK= 0.00E+00
       N       E                     dE             d eps       ncg     rms          rms(c)
RMM:   1    -0.413211695373E+03   -0.10405E-01   -0.94562E+00  4307   0.941E-01    0.943E-01
RMM:   2    -0.413209113995E+03    0.25814E-02   -0.12649E-01  4260   0.127E-01    0.690E-01
RMM:   3    -0.413204300642E+03    0.48134E-02   -0.20775E-02  4717   0.667E-02    0.105E-01
RMM:   4    -0.413230874502E+03   -0.26574E-01   -0.27365E-02  5134   0.139E-01    0.683E-01
RMM:   5    -0.413203819766E+03    0.27055E-01   -0.13515E-02  4808   0.113E-01    0.503E-02
RMM:   6    -0.413203866753E+03   -0.46987E-04   -0.22843E-03  5823   0.456E-02    0.327E-02
RMM:   7    -0.413203879310E+03   -0.12557E-04   -0.34887E-04  5606   0.182E-02    0.191E-02
RMM:   8    -0.413203866986E+03    0.12324E-04   -0.60644E-05  5037   0.837E-03    0.105E-02
RMM:   9    -0.413203865494E+03    0.14918E-05   -0.15158E-05  4220   0.455E-03    0.734E-03
RMM:  10    -0.413203861357E+03    0.41370E-05   -0.23126E-06  2625   0.252E-03    0.405E-03
RMM:  11    -0.413203858929E+03    0.24277E-05   -0.11171E-06  2501   0.173E-03    0.245E-03
RMM:  12    -0.413203853216E+03    0.57132E-05   -0.16341E-06  2532   0.203E-03    0.130E-03
RMM:  13    -0.413203850264E+03    0.29526E-05   -0.59795E-07  2370   0.135E-03    0.777E-04
RMM:  14    -0.413203849633E+03    0.63088E-06   -0.24942E-07  1957   0.884E-04
   38 T=    69. E= -.41286684E+03 F= -.41320385E+03 E0= -.41318267E+03  EK= 0.33701E+00 SP= 0.00E+00 SK= 0.00E+00
       N       E                     dE             d eps       ncg     rms          rms(c)
RMM:   1    -0.413216567967E+03   -0.12718E-01   -0.94907E+00  4306   0.101E+00    0.954E-01
RMM:   2    -0.413211688755E+03    0.48792E-02   -0.13016E-01  4266   0.126E-01    0.687E-01
RMM:   3    -0.413207102765E+03    0.45860E-02   -0.19843E-02  4872   0.630E-02    0.131E-01
RMM:   4    -0.413243340544E+03   -0.36238E-01   -0.38460E-02  5131   0.164E-01    0.794E-01
RMM:   5    -0.413206342877E+03    0.36998E-01   -0.18258E-02  4793   0.132E-01    0.548E-02
RMM:   6    -0.413206430036E+03   -0.87159E-04   -0.30784E-03  5817   0.526E-02    0.356E-02
RMM:   7    -0.413206436989E+03   -0.69535E-05   -0.40192E-04  5636   0.192E-02    0.189E-02
RMM:   8    -0.413206426052E+03    0.10938E-04   -0.52414E-05  4890   0.759E-03    0.101E-02
RMM:   9    -0.413206424761E+03    0.12909E-05   -0.20952E-05  4515   0.475E-03    0.821E-03
RMM:  10    -0.413206416923E+03    0.78374E-05   -0.35476E-06  2785   0.286E-03    0.445E-03
RMM:  11    -0.413206412621E+03    0.43024E-05   -0.15375E-06  2505   0.202E-03    0.271E-03
RMM:  12    -0.413206402355E+03    0.10266E-04   -0.19989E-06  2561   0.226E-03    0.131E-03
RMM:  13    -0.413206398098E+03    0.42567E-05   -0.67288E-07  2428   0.148E-03    0.833E-04
RMM:  14    -0.413206397550E+03    0.54810E-06   -0.27660E-07  2092   0.941E-04
   39 T=    69. E= -.41286669E+03 F= -.41320640E+03 E0= -.41318526E+03  EK= 0.33971E+00 SP= 0.00E+00 SK= 0.00E+00
       N       E                     dE             d eps       ncg     rms          rms(c)
RMM:   1    -0.413219636772E+03   -0.13239E-01   -0.95261E+00  4308   0.102E+00    0.936E-01
RMM:   2    -0.413215205709E+03    0.44311E-02   -0.13233E-01  4262   0.127E-01    0.689E-01
RMM:   3    -0.413210618480E+03    0.45872E-02   -0.20665E-02  4933   0.677E-02    0.151E-01
RMM:   4    -0.413252720860E+03   -0.42102E-01   -0.46468E-02  5128   0.180E-01    0.855E-01
RMM:   5    -0.413209413721E+03    0.43307E-01   -0.20977E-02  4791   0.142E-01    0.566E-02
RMM:   6    -0.413209533713E+03   -0.11999E-03   -0.35461E-03  5819   0.561E-02    0.357E-02
RMM:   7    -0.413209545517E+03   -0.11804E-04   -0.42706E-04  5672   0.195E-02    0.189E-02
RMM:   8    -0.413209540613E+03    0.49039E-05   -0.55893E-05  4883   0.750E-03    0.101E-02
RMM:   9    -0.413209536117E+03    0.44960E-05   -0.17646E-05  4301   0.439E-03    0.716E-03
RMM:  10    -0.413209533225E+03    0.28919E-05   -0.48881E-06  2993   0.290E-03    0.438E-03
RMM:  11    -0.413209529729E+03    0.34957E-05   -0.15085E-06  2498   0.206E-03    0.266E-03
RMM:  12    -0.413209521831E+03    0.78985E-05   -0.17860E-06  2526   0.214E-03    0.107E-03
RMM:  13    -0.413209518514E+03    0.33170E-05   -0.61344E-07  2423   0.140E-03    0.814E-04
RMM:  14    -0.413209518232E+03    0.28192E-06   -0.26474E-07  2065   0.914E-04
   40 T=    70. E= -.41286692E+03 F= -.41320952E+03 E0= -.41318842E+03  EK= 0.34260E+00 SP= 0.00E+00 SK= 0.00E+00
       N       E                     dE             d eps       ncg     rms          rms(c)
RMM:   1    -0.413216597706E+03   -0.70792E-02   -0.95962E+00  4310   0.102E+00    0.949E-01
RMM:   2    -0.413217593330E+03   -0.99562E-03   -0.13200E-01  4266   0.133E-01    0.700E-01
RMM:   3    -0.413213241845E+03    0.43515E-02   -0.21900E-02  4958   0.709E-02    0.171E-01
RMM:   4    -0.413258028209E+03   -0.44786E-01   -0.51111E-02  5126   0.189E-01    0.883E-01
RMM:   5    -0.413211632679E+03    0.46396E-01   -0.22121E-02  4786   0.147E-01    0.583E-02
RMM:   6    -0.413211761422E+03   -0.12874E-03   -0.37542E-03  5817   0.577E-02    0.361E-02
RMM:   7    -0.413211775252E+03   -0.13830E-04   -0.46344E-04  5722   0.201E-02    0.200E-02
RMM:   8    -0.413211776040E+03   -0.78804E-06   -0.88120E-05  5192   0.932E-03    0.125E-02
RMM:   9    -0.413211767136E+03    0.89042E-05   -0.23836E-05  4583   0.536E-03    0.755E-03
RMM:  10    -0.413211763637E+03    0.34995E-05   -0.39339E-06  2766   0.294E-03    0.448E-03
RMM:  11    -0.413211760848E+03    0.27888E-05   -0.14949E-06  2506   0.203E-03    0.272E-03
RMM:  12    -0.413211754282E+03    0.65657E-05   -0.16683E-06  2528   0.209E-03    0.112E-03
RMM:  13    -0.413211750080E+03    0.42019E-05   -0.71286E-07  2430   0.145E-03    0.773E-04
RMM:  14    -0.413211749373E+03    0.70683E-06   -0.29832E-07  2097   0.960E-04
   41 T=    70. E= -.41286656E+03 F= -.41321175E+03 E0= -.41319068E+03  EK= 0.34519E+00 SP= 0.00E+00 SK= 0.00E+00
       N       E                     dE             d eps       ncg     rms          rms(c)
RMM:   1    -0.413238993029E+03   -0.27243E-01   -0.98025E+00  4311   0.120E+00    0.967E-01
RMM:   2    -0.413219851552E+03    0.19141E-01   -0.14861E-01  4291   0.135E-01    0.698E-01
RMM:   3    -0.413216856391E+03    0.29952E-02   -0.20058E-02  5040   0.731E-02    0.229E-01
RMM:   4    -0.413263344609E+03   -0.46488E-01   -0.57730E-02  5108   0.202E-01    0.907E-01
RMM:   5    -0.413214343617E+03    0.49001E-01   -0.22655E-02  4768   0.151E-01    0.626E-02
RMM:   6    -0.413214471773E+03   -0.12816E-03   -0.39314E-03  5786   0.593E-02    0.385E-02
RMM:   7    -0.413214481665E+03   -0.98921E-05   -0.52885E-04  5731   0.214E-02    0.234E-02
RMM:   8    -0.413214478725E+03    0.29395E-05   -0.13262E-04  5245   0.117E-02    0.146E-02
RMM:   9    -0.413214463973E+03    0.14752E-04   -0.24778E-05  4596   0.602E-03    0.685E-03
RMM:  10    -0.413214458205E+03    0.57680E-05   -0.54347E-06  3018   0.304E-03    0.420E-03
RMM:  11    -0.413214453682E+03    0.45236E-05   -0.13764E-06  2508   0.200E-03    0.246E-03
RMM:  12    -0.413214444506E+03    0.91753E-05   -0.12508E-06  2485   0.188E-03    0.990E-04
RMM:  13    -0.413214438501E+03    0.60051E-05   -0.59211E-07  2396   0.134E-03    0.599E-04
RMM:  14    -0.413214437297E+03    0.12047E-05   -0.28004E-07  2049   0.930E-04    0.407E-04
RMM:  15    -0.413214434881E+03    0.24158E-05   -0.14422E-07  1516   0.728E-04    0.253E-04
RMM:  16    -0.413214427094E+03    0.77869E-05   -0.13699E-07  1619   0.742E-04    0.305E-04
RMM:  17    -0.413214425186E+03    0.19080E-05   -0.55636E-08   990   0.592E-04    0.207E-04
RMM:  18    -0.413214419329E+03    0.58570E-05   -0.68773E-08  1310   0.635E-04    0.151E-04
RMM:  19    -0.413214417468E+03    0.18605E-05   -0.33417E-08   926   0.556E-04    0.537E-05
RMM:  20    -0.413214415739E+03    0.17289E-05   -0.31309E-08   978   0.568E-04    0.823E-05
RMM:  21    -0.413214415639E+03    0.10046E-06   -0.12716E-08   701   0.523E-04
   42 T=    71. E= -.41286666E+03 F= -.41321442E+03 E0= -.41319338E+03  EK= 0.34776E+00 SP= 0.00E+00 SK= 0.00E+00
       N       E                     dE             d eps       ncg     rms          rms(c)
RMM:   1    -0.413234753010E+03   -0.20337E-01   -0.97193E+00  4311   0.121E+00    0.947E-01
RMM:   2    -0.413222097883E+03    0.12655E-01   -0.14761E-01  4312   0.142E-01    0.697E-01
RMM:   3    -0.413220482371E+03    0.16155E-02   -0.21518E-02  5071   0.832E-02    0.277E-01
RMM:   4    -0.413260504407E+03   -0.40022E-01   -0.56748E-02  5097   0.201E-01    0.859E-01
RMM:   5    -0.413216539623E+03    0.43965E-01   -0.19227E-02  4753   0.142E-01    0.622E-02
RMM:   6    -0.413216636604E+03   -0.96982E-04   -0.34970E-03  5769   0.559E-02    0.375E-02
RMM:   7    -0.413216640529E+03   -0.39245E-05   -0.51736E-04  5712   0.211E-02    0.243E-02
RMM:   8    -0.413216635943E+03    0.45865E-05   -0.12857E-04  5214   0.119E-02    0.134E-02
RMM:   9    -0.413216624168E+03    0.11774E-04   -0.19728E-05  4396   0.565E-03    0.587E-03
RMM:  10    -0.413216620776E+03    0.33920E-05   -0.45580E-06  2886   0.278E-03    0.368E-03
RMM:  11    -0.413216617788E+03    0.29889E-05   -0.12820E-06  2501   0.190E-03    0.205E-03
RMM:  12    -0.413216612181E+03    0.56067E-05   -0.10344E-06  2476   0.169E-03    0.815E-04
RMM:  13    -0.413216608504E+03    0.36769E-05   -0.50152E-07  2339   0.121E-03    0.439E-04
RMM:  14    -0.413216607260E+03    0.12443E-05   -0.24874E-07  1903   0.873E-04    0.303E-04
RMM:  15    -0.413216604677E+03    0.25827E-05   -0.13946E-07  1444   0.716E-04    0.149E-04
RMM:  16    -0.413216600684E+03    0.39927E-05   -0.98857E-08  1203   0.669E-04    0.130E-04
RMM:  17    -0.413216598543E+03    0.21412E-05   -0.58070E-08  1003   0.621E-04    0.788E-05
RMM:  18    -0.413216595573E+03    0.29700E-05   -0.54299E-08  1119   0.626E-04    0.564E-05
RMM:  19    -0.413216593164E+03    0.24088E-05   -0.41654E-08  1076   0.599E-04    0.339E-05
RMM:  20    -0.413216592317E+03    0.84772E-06   -0.21742E-08   812   0.551E-04
   43 T=    71. E= -.41286669E+03 F= -.41321659E+03 E0= -.41319559E+03  EK= 0.34990E+00 SP= 0.00E+00 SK= 0.00E+00
       N       E                     dE             d eps       ncg     rms          rms(c)
RMM:   1    -0.413233859684E+03   -0.17267E-01   -0.98057E+00  4314   0.125E+00    0.949E-01
RMM:   2    -0.413223808157E+03    0.10052E-01   -0.15462E-01  4318   0.153E-01    0.709E-01
RMM:   3    -0.413222726279E+03    0.10819E-02   -0.22617E-02  5064   0.897E-02    0.305E-01
RMM:   4    -0.413262075183E+03   -0.39349E-01   -0.59149E-02  5102   0.206E-01    0.861E-01
RMM:   5    -0.413217861997E+03    0.44213E-01   -0.18927E-02  4734   0.142E-01    0.630E-02
RMM:   6    -0.413217944263E+03   -0.82266E-04   -0.34572E-03  5746   0.558E-02    0.365E-02
RMM:   7    -0.413217944581E+03   -0.31867E-06   -0.52024E-04  5741   0.210E-02    0.242E-02
RMM:   8    -0.413217939923E+03    0.46583E-05   -0.13005E-04  5209   0.119E-02    0.131E-02
RMM:   9    -0.413217930114E+03    0.98086E-05   -0.20132E-05  4402   0.575E-03    0.543E-03
RMM:  10    -0.413217928014E+03    0.21002E-05   -0.46738E-06  2888   0.276E-03    0.344E-03
RMM:  11    -0.413217925768E+03    0.22464E-05   -0.13195E-06  2499   0.189E-03    0.188E-03
RMM:  12    -0.413217921726E+03    0.40415E-05   -0.97072E-07  2478   0.160E-03    0.761E-04
RMM:  13    -0.413217918959E+03    0.27667E-05   -0.46787E-07  2264   0.115E-03    0.369E-04
RMM:  14    -0.413217917491E+03    0.14689E-05   -0.23744E-07  1799   0.845E-04    0.244E-04
RMM:  15    -0.413217914335E+03    0.31557E-05   -0.15535E-07  1409   0.730E-04    0.131E-04
RMM:  16    -0.413217911945E+03    0.23894E-05   -0.95972E-08  1172   0.660E-04    0.101E-04
RMM:  17    -0.413217909969E+03    0.19765E-05   -0.65611E-08  1056   0.627E-04    0.669E-05
RMM:  18    -0.413217907174E+03    0.27951E-05   -0.59951E-08  1168   0.631E-04    0.378E-05
RMM:  19    -0.413217905265E+03    0.19091E-05   -0.39786E-08  1027   0.592E-04    0.336E-05
RMM:  20    -0.413217904602E+03    0.66245E-06   -0.20424E-08   808   0.553E-04
   44 T=    72. E= -.41286648E+03 F= -.41321790E+03 E0= -.41319692E+03  EK= 0.35143E+00 SP= 0.00E+00 SK= 0.00E+00
       N       E                     dE             d eps       ncg     rms          rms(c)
RMM:   1    -0.413246175230E+03   -0.28270E-01   -0.98830E+00  4310   0.137E+00    0.973E-01
RMM:   2    -0.413224793081E+03    0.21382E-01   -0.15644E-01  4318   0.161E-01    0.706E-01
RMM:   3    -0.413226596362E+03   -0.18033E-02   -0.23883E-02  5082   0.101E-01    0.376E-01
RMM:   4    -0.413252055143E+03   -0.25459E-01   -0.51289E-02  5062   0.194E-01    0.745E-01
RMM:   5    -0.413219357546E+03    0.32698E-01   -0.12896E-02  4698   0.123E-01    0.617E-02
RMM:   6    -0.413219374639E+03   -0.17092E-04   -0.25528E-03  5673   0.484E-02    0.366E-02
RMM:   7    -0.413219365782E+03    0.88571E-05   -0.43135E-04  5655   0.199E-02    0.240E-02
RMM:   8    -0.413219358291E+03    0.74902E-05   -0.12168E-04  5129   0.120E-02    0.119E-02
RMM:   9    -0.413219346271E+03    0.12020E-04   -0.16326E-05  4283   0.557E-03    0.486E-03
RMM:  10    -0.413219342232E+03    0.40386E-05   -0.36883E-06  2794   0.252E-03    0.296E-03
RMM:  11    -0.413219337441E+03    0.47910E-05   -0.12060E-06  2496   0.182E-03    0.159E-03
RMM:  12    -0.413219330973E+03    0.64687E-05   -0.73743E-07  2435   0.145E-03    0.675E-04
RMM:  13    -0.413219327188E+03    0.37843E-05   -0.36171E-07  2081   0.103E-03    0.311E-04
RMM:  14    -0.413219324344E+03    0.28440E-05   -0.20015E-07  1629   0.798E-04    0.197E-04
RMM:  15    -0.413219318910E+03    0.54343E-05   -0.14224E-07  1384   0.727E-04    0.137E-04
RMM:  16    -0.413219316286E+03    0.26243E-05   -0.85970E-08  1160   0.655E-04    0.914E-05
RMM:  17    -0.413219312278E+03    0.40074E-05   -0.73663E-08  1216   0.646E-04    0.507E-05
RMM:  18    -0.413219309279E+03    0.29995E-05   -0.54630E-08  1151   0.612E-04    0.392E-05
RMM:  19    -0.413219307318E+03    0.19605E-05   -0.37518E-08  1017   0.574E-04    0.244E-05
RMM:  20    -0.413219306873E+03    0.44520E-06   -0.19123E-08   761   0.534E-04
   45 T=    72. E= -.41286682E+03 F= -.41321931E+03 E0= -.41319835E+03  EK= 0.35249E+00 SP= 0.00E+00 SK= 0.00E+00
       N       E                     dE             d eps       ncg     rms          rms(c)
RMM:   1    -0.413242840912E+03   -0.23534E-01   -0.97553E+00  4309   0.144E+00    0.956E-01
RMM:   2    -0.413224626524E+03    0.18214E-01   -0.15183E-01  4337   0.171E-01    0.700E-01
RMM:   3    -0.413229340653E+03   -0.47141E-02   -0.26465E-02  5100   0.115E-01    0.437E-01
RMM:   4    -0.413244669631E+03   -0.15329E-01   -0.47353E-02  5052   0.189E-01    0.659E-01
RMM:   5    -0.413219199314E+03    0.25470E-01   -0.91665E-03  4661   0.109E-01    0.595E-02
RMM:   6    -0.413219172969E+03    0.26345E-04   -0.19374E-03  5581   0.426E-02    0.344E-02
RMM:   7    -0.413219163830E+03    0.91394E-05   -0.35698E-04  5577   0.186E-02    0.228E-02
RMM:   8    -0.413219151793E+03    0.12037E-04   -0.12119E-04  5077   0.118E-02    0.108E-02
RMM:   9    -0.413219140554E+03    0.11239E-04   -0.14497E-05  4196   0.536E-03    0.448E-03
RMM:  10    -0.413219137170E+03    0.33841E-05   -0.29509E-06  2716   0.234E-03    0.262E-03
RMM:  11    -0.413219132453E+03    0.47162E-05   -0.11251E-06  2485   0.174E-03    0.137E-03
RMM:  12    -0.413219126986E+03    0.54670E-05   -0.65385E-07  2400   0.136E-03    0.662E-04
RMM:  13    -0.413219123470E+03    0.35161E-05   -0.31860E-07  1944   0.966E-04    0.298E-04
RMM:  14    -0.413219120391E+03    0.30797E-05   -0.18034E-07  1484   0.759E-04    0.172E-04
RMM:  15    -0.413219115635E+03    0.47558E-05   -0.13212E-07  1291   0.710E-04    0.121E-04
RMM:  16    -0.413219112998E+03    0.26365E-05   -0.86117E-08  1163   0.655E-04    0.845E-05
RMM:  17    -0.413219108115E+03    0.48837E-05   -0.87994E-08  1412   0.668E-04    0.604E-05
RMM:  18    -0.413219106307E+03    0.18072E-05   -0.45796E-08  1012   0.569E-04    0.360E-05
RMM:  19    -0.413219104460E+03    0.18470E-05   -0.34617E-08   950   0.555E-04    0.189E-05
RMM:  20    -0.413219104179E+03    0.28092E-06   -0.18885E-08   728   0.518E-04
   46 T=    72. E= -.41286666E+03 F= -.41321910E+03 E0= -.41319816E+03  EK= 0.35244E+00 SP= 0.00E+00 SK= 0.00E+00
       N       E                     dE             d eps       ncg     rms          rms(c)
RMM:   1    -0.413232920271E+03   -0.13816E-01   -0.96878E+00  4311   0.145E+00    0.948E-01
RMM:   2    -0.413224008297E+03    0.89120E-02   -0.14946E-01  4360   0.177E-01    0.708E-01
RMM:   3    -0.413231110060E+03   -0.71018E-02   -0.29959E-02  5097   0.127E-01    0.484E-01
RMM:   4    -0.413241597735E+03   -0.10488E-01   -0.48194E-02  5038   0.192E-01    0.630E-01
RMM:   5    -0.413218270513E+03    0.23327E-01   -0.78833E-03  4622   0.105E-01    0.587E-02
RMM:   6    -0.413218222052E+03    0.48462E-04   -0.17159E-03  5483   0.401E-02    0.319E-02
RMM:   7    -0.413218219674E+03    0.23774E-05   -0.31563E-04  5583   0.177E-02    0.218E-02
RMM:   8    -0.413218209751E+03    0.99232E-05   -0.12442E-04  5074   0.120E-02    0.103E-02
RMM:   9    -0.413218199884E+03    0.98671E-05   -0.13711E-05  4114   0.528E-03    0.432E-03
RMM:  10    -0.413218197686E+03    0.21981E-05   -0.28295E-06  2688   0.229E-03    0.249E-03
RMM:  11    -0.413218194381E+03    0.33048E-05   -0.11935E-06  2491   0.176E-03    0.128E-03
RMM:  12    -0.413218190937E+03    0.34441E-05   -0.65122E-07  2384   0.133E-03    0.672E-04
RMM:  13    -0.413218188326E+03    0.26112E-05   -0.32616E-07  1876   0.951E-04    0.306E-04
RMM:  14    -0.413218185790E+03    0.25352E-05   -0.18935E-07  1428   0.757E-04    0.166E-04
RMM:  15    -0.413218182509E+03    0.32817E-05   -0.14534E-07  1324   0.711E-04    0.115E-04
RMM:  16    -0.413218180383E+03    0.21254E-05   -0.93826E-08  1173   0.650E-04    0.838E-05
RMM:  17    -0.413218176277E+03    0.41061E-05   -0.96290E-08  1339   0.668E-04    0.571E-05
RMM:  18    -0.413218174937E+03    0.13398E-05   -0.48626E-08  1006   0.573E-04    0.369E-05
RMM:  19    -0.413218173579E+03    0.13584E-05   -0.33655E-08   919   0.548E-04    0.217E-05
RMM:  20    -0.413218173060E+03    0.51925E-06   -0.20345E-08   764   0.519E-04
   47 T=    72. E= -.41286677E+03 F= -.41321817E+03 E0= -.41319725E+03  EK= 0.35140E+00 SP= 0.00E+00 SK= 0.00E+00
       N       E                     dE             d eps       ncg     rms          rms(c)
RMM:   1    -0.413242441322E+03   -0.24268E-01   -0.96963E+00  4308   0.161E+00    0.962E-01
RMM:   2    -0.413221796267E+03    0.20645E-01   -0.16182E-01  4408   0.193E-01    0.707E-01
RMM:   3    -0.413234854157E+03   -0.13058E-01   -0.32457E-02  5123   0.142E-01    0.588E-01
RMM:   4    -0.413232214727E+03    0.26394E-02   -0.44939E-02  4998   0.189E-01    0.526E-01
RMM:   5    -0.413216262399E+03    0.15952E-01   -0.51295E-03  4573   0.933E-02    0.589E-02
RMM:   6    -0.413216164346E+03    0.98054E-04   -0.10046E-03  5120   0.332E-02    0.312E-02
RMM:   7    -0.413216154590E+03    0.97559E-05   -0.21815E-04  5550   0.150E-02    0.185E-02
RMM:   8    -0.413216150447E+03    0.41427E-05   -0.13370E-04  5177   0.120E-02    0.120E-02
RMM:   9    -0.413216134884E+03    0.15563E-04   -0.18054E-05  4422   0.590E-03    0.441E-03
RMM:  10    -0.413216132018E+03    0.28652E-05   -0.34196E-06  2754   0.240E-03    0.245E-03
RMM:  11    -0.413216126390E+03    0.56284E-05   -0.13606E-06  2459   0.190E-03    0.130E-03
RMM:  12    -0.413216122531E+03    0.38591E-05   -0.60355E-07  2353   0.134E-03    0.760E-04
RMM:  13    -0.413216118428E+03    0.41035E-05   -0.30167E-07  1832   0.958E-04    0.369E-04
RMM:  14    -0.413216114191E+03    0.42370E-05   -0.16727E-07  1444   0.747E-04    0.201E-04
RMM:  15    -0.413216110369E+03    0.38218E-05   -0.10674E-07  1176   0.668E-04    0.124E-04
RMM:  16    -0.413216107452E+03    0.29164E-05   -0.77140E-08  1120   0.628E-04    0.103E-04
RMM:  17    -0.413216103454E+03    0.39984E-05   -0.72802E-08  1215   0.621E-04    0.568E-05
RMM:  18    -0.413216101047E+03    0.24066E-05   -0.41342E-08   938   0.558E-04    0.494E-05
RMM:  19    -0.413216100212E+03    0.83479E-06   -0.20263E-08   687   0.514E-04
   48 T=    71. E= -.41286697E+03 F= -.41321610E+03 E0= -.41319519E+03  EK= 0.34913E+00 SP= 0.00E+00 SK= 0.00E+00
       N       E                     dE             d eps       ncg     rms          rms(c)
RMM:   1    -0.413247096392E+03   -0.30995E-01   -0.95892E+00  4304   0.175E+00    0.951E-01
RMM:   2    -0.413217435948E+03    0.29660E-01   -0.16874E-01  4464   0.205E-01    0.697E-01
RMM:   3    -0.413237153566E+03   -0.19718E-01   -0.36252E-02  5139   0.158E-01    0.683E-01
RMM:   4    -0.413222961470E+03    0.14192E-01   -0.43130E-02  4969   0.188E-01    0.443E-01
RMM:   5    -0.413212110081E+03    0.10851E-01   -0.41433E-03  4561   0.886E-02    0.623E-02
RMM:   6    -0.413211961719E+03    0.14836E-03   -0.55629E-04  4781   0.294E-02    0.320E-02
[...]
  140 T=    61. E= -.41249541E+03 F= -.41279507E+03 E0= -.41277284E+03  EK= 0.29966E+00 SP= 0.00E+00 SK= 0.00E+00
       N       E                     dE             d eps       ncg     rms          rms(c)
RMM:   1    -0.415247622524E+03   -0.24526E+01   -0.61085E+01  4319   0.101E+01    0.275E+00
RMM:   2    -0.413148982411E+03    0.20986E+01   -0.17645E+00  5345   0.136E+00    0.151E+00
RMM:   3    -0.413251927485E+03   -0.10295E+00   -0.26138E-01  5217   0.594E-01    0.147E+00
RMM:   4    -0.413215825772E+03    0.36102E-01   -0.18009E-01  5137   0.438E-01    0.113E+00
RMM:   5    -0.413170788633E+03    0.45037E-01   -0.14434E-01  5337   0.437E-01    0.517E-01
RMM:   6    -0.413159262008E+03    0.11527E-01   -0.36667E-02  4975   0.246E-01    0.203E-01
RMM:   7    -0.413158411726E+03    0.85028E-03   -0.77116E-03  5376   0.116E-01    0.852E-02
RMM:   8    -0.413158692989E+03   -0.28126E-03   -0.20600E-03  5922   0.536E-02    0.643E-02
RMM:   9    -0.413158823351E+03   -0.13036E-03   -0.43043E-04  4876   0.285E-02    0.339E-02
RMM:  10    -0.413158992283E+03   -0.16893E-03   -0.34702E-04  5422   0.247E-02    0.200E-02
RMM:  11    -0.413159093465E+03   -0.10118E-03   -0.92710E-05  4844   0.131E-02    0.125E-02
RMM:  12    -0.413159153256E+03   -0.59791E-04   -0.60422E-05  4915   0.103E-02    0.720E-03
RMM:  13    -0.413159180586E+03   -0.27330E-04   -0.28182E-05  3989   0.642E-03    0.395E-03
RMM:  14    -0.413159203095E+03   -0.22510E-04   -0.27171E-05  3843   0.665E-03    0.336E-03
RMM:  15    -0.413159208036E+03   -0.49411E-05   -0.23604E-05  3410   0.559E-03    0.163E-03
RMM:  16    -0.413159201194E+03    0.68422E-05   -0.13496E-05  3212   0.348E-03    0.123E-03
RMM:  17    -0.413159180979E+03    0.20215E-04   -0.11294E-05  3156   0.358E-03    0.805E-04
RMM:  18    -0.413159166130E+03    0.14849E-04   -0.47138E-06  2603   0.190E-03    0.474E-04
RMM:  19    -0.413159152051E+03    0.14079E-04   -0.18640E-06  2373   0.143E-03    0.356E-04
RMM:  20    -0.413159141822E+03    0.10229E-04   -0.91986E-07  1988   0.111E-03    0.240E-04
RMM:  21    -0.413159135320E+03    0.65027E-05   -0.50633E-07  1794   0.942E-04    0.145E-04
RMM:  22    -0.413159131515E+03    0.38044E-05   -0.29701E-07  1557   0.771E-04    0.116E-04
RMM:  23    -0.413159129375E+03    0.21400E-05   -0.17045E-07  1339   0.655E-04    0.733E-05
RMM:  24    -0.413159128590E+03    0.78508E-06   -0.95691E-08  1175   0.576E-04
  141 T=   188. E= -.41223557E+03 F= -.41315913E+03 E0= -.41313641E+03  EK= 0.92356E+00 SP= 0.00E+00 SK= 0.00E+00
       N       E                     dE             d eps       ncg     rms          rms(c)
RMM:   1    -0.413227407320E+03   -0.68278E-01   -0.24182E+01  4305   0.740E+00    0.100E+00
RMM:   2    -0.412954124921E+03    0.27328E+00   -0.97028E-01  5483   0.978E-01    0.977E-01
RMM:   3    -0.412971245482E+03   -0.17121E-01   -0.10305E-01  5670   0.333E-01    0.999E-01
RMM:   4    -0.412945747399E+03    0.25498E-01   -0.24876E-02  5095   0.171E-01    0.729E-01
RMM:   5    -0.412946220139E+03   -0.47274E-03   -0.10243E-01  5049   0.356E-01    0.368E-01
RMM:   6    -0.412943688046E+03    0.25321E-02   -0.43716E-02  5296   0.235E-01    0.266E-01
RMM:   7    -0.412941480460E+03    0.22076E-02   -0.60719E-03  5099   0.103E-01    0.196E-01
RMM:   8    -0.412940809077E+03    0.67138E-03   -0.40015E-03  4772   0.741E-02    0.676E-02
RMM:   9    -0.412941063060E+03   -0.25398E-03   -0.14939E-03  5619   0.439E-02    0.297E-02
RMM:  10    -0.412941178474E+03   -0.11541E-03   -0.17556E-04  5473   0.159E-02    0.196E-02
RMM:  11    -0.412941360549E+03   -0.18208E-03   -0.14302E-04  4583   0.175E-02    0.120E-02
RMM:  12    -0.412941410464E+03   -0.49915E-04   -0.37149E-05  4134   0.842E-03    0.653E-03
RMM:  13    -0.412941449410E+03   -0.38947E-04   -0.34140E-05  4247   0.799E-03    0.467E-03
RMM:  14    -0.412941476401E+03   -0.26990E-04   -0.36425E-05  3725   0.772E-03    0.255E-03
RMM:  15    -0.412941478110E+03   -0.17099E-05   -0.24581E-05  3557   0.557E-03    0.176E-03
RMM:  16    -0.412941462394E+03    0.15717E-04   -0.17540E-05  3433   0.452E-03    0.111E-03
RMM:  17    -0.412941447942E+03    0.14452E-04   -0.75744E-06  2968   0.261E-03    0.828E-04
RMM:  18    -0.412941432585E+03    0.15357E-04   -0.24474E-06  2599   0.177E-03    0.668E-04
RMM:  19    -0.412941419565E+03    0.13020E-04   -0.12499E-06  2214   0.130E-03    0.506E-04
RMM:  20    -0.412941408453E+03    0.11112E-04   -0.82621E-07  2125   0.112E-03    0.396E-04
RMM:  21    -0.412941400517E+03    0.79361E-05   -0.58487E-07  1924   0.982E-04    0.166E-04
RMM:  22    -0.412941397839E+03    0.26781E-05   -0.24780E-07  1516   0.722E-04    0.119E-04
RMM:  23    -0.412941396061E+03    0.17774E-05   -0.13319E-07  1214   0.615E-04    0.861E-05
RMM:  24    -0.412941394880E+03    0.11813E-05   -0.89982E-08  1203   0.585E-04    0.579E-05
RMM:  25    -0.412941394305E+03    0.57456E-06   -0.54095E-08  1052   0.535E-04
  142 T=   148. E= -.41221299E+03 F= -.41294139E+03 E0= -.41291965E+03  EK= 0.72840E+00 SP= 0.00E+00 SK= 0.00E+00
       N       E                     dE             d eps       ncg     rms          rms(c)
RMM:   1    -0.413106093673E+03   -0.16470E+00   -0.17712E+01  4292   0.741E+00    0.681E-01
RMM:   2    -0.413009139233E+03    0.96954E-01   -0.53737E-01  5460   0.806E-01    0.739E-01
RMM:   3    -0.413010514889E+03   -0.13757E-02   -0.50049E-02  5957   0.224E-01    0.692E-01
RMM:   4    -0.413008079722E+03    0.24352E-02   -0.67649E-03  5638   0.825E-02    0.643E-01
RMM:   5    -0.413004182472E+03    0.38972E-02   -0.62584E-02  4708   0.289E-01    0.209E-01
RMM:   6    -0.413005519705E+03   -0.13372E-02   -0.27343E-02  5488   0.178E-01    0.228E-01
RMM:   7    -0.413003484176E+03    0.20355E-02   -0.32674E-03  4694   0.789E-02    0.134E-01
RMM:   8    -0.413003222628E+03    0.26155E-03   -0.24602E-03  5250   0.573E-02    0.499E-02
RMM:   9    -0.413003325640E+03   -0.10301E-03   -0.81696E-04  5433   0.312E-02    0.232E-02
RMM:  10    -0.413003382651E+03   -0.57011E-04   -0.94808E-05  5241   0.133E-02    0.122E-02
RMM:  11    -0.413003424302E+03   -0.41651E-04   -0.28866E-05  4488   0.750E-03    0.748E-03
RMM:  12    -0.413003472155E+03   -0.47852E-04   -0.25247E-05  3828   0.730E-03    0.366E-03
RMM:  13    -0.413003486738E+03   -0.14583E-04   -0.10136E-05  3365   0.394E-03    0.264E-03
RMM:  14    -0.413003496409E+03   -0.96706E-05   -0.10690E-05  3384   0.417E-03    0.174E-03
RMM:  15    -0.413003494762E+03    0.16462E-05   -0.10352E-05  3292   0.379E-03    0.134E-03
RMM:  16    -0.413003487751E+03    0.70113E-05   -0.59157E-06  2989   0.269E-03    0.936E-04
RMM:  17    -0.413003476771E+03    0.10980E-04   -0.37515E-06  2708   0.216E-03    0.727E-04
RMM:  18    -0.413003465303E+03    0.11468E-04   -0.19062E-06  2340   0.150E-03    0.473E-04
RMM:  19    -0.413003457514E+03    0.77888E-05   -0.67518E-07  1876   0.101E-03    0.272E-04
RMM:  20    -0.413003449843E+03    0.76709E-05   -0.50640E-07  1956   0.927E-04    0.166E-04
RMM:  21    -0.413003445647E+03    0.41958E-05   -0.25307E-07  1461   0.719E-04    0.120E-04
RMM:  22    -0.413003442850E+03    0.27976E-05   -0.15710E-07  1363   0.658E-04    0.875E-05
RMM:  23    -0.413003441124E+03    0.17260E-05   -0.96783E-08  1227   0.600E-04    0.594E-05
RMM:  24    -0.413003440615E+03    0.50828E-06   -0.47949E-08   989   0.530E-04
  143 T=   159. E= -.41222043E+03 F= -.41300344E+03 E0= -.41298218E+03  EK= 0.78301E+00 SP= 0.00E+00 SK= 0.00E+00
       N       E                     dE             d eps       ncg     rms          rms(c)
RMM:   1    -0.413411383415E+03   -0.40794E+00   -0.21694E+01  4264   0.870E+00    0.829E-01
RMM:   2    -0.413282091249E+03    0.12929E+00   -0.51043E-01  5301   0.863E-01    0.763E-01
RMM:   3    -0.413286484340E+03   -0.43931E-02   -0.53833E-02  5856   0.252E-01    0.667E-01
RMM:   4    -0.413293941609E+03   -0.74573E-02   -0.27049E-02  5404   0.165E-01    0.678E-01
RMM:   5    -0.413283747477E+03    0.10194E-01   -0.37106E-02  4718   0.251E-01    0.225E-01
RMM:   6    -0.413282036814E+03    0.17107E-02   -0.11703E-02  5103   0.132E-01    0.131E-01
RMM:   7    -0.413281740816E+03    0.29600E-03   -0.34524E-03  5639   0.698E-02    0.885E-02
RMM:   8    -0.413281471577E+03    0.26924E-03   -0.73632E-04  4798   0.352E-02    0.442E-02
RMM:   9    -0.413281443268E+03    0.28308E-04   -0.42466E-04  5500   0.237E-02    0.186E-02
RMM:  10    -0.413281470898E+03   -0.27630E-04   -0.16505E-04  5885   0.138E-02    0.130E-02
RMM:  11    -0.413281474188E+03   -0.32899E-05   -0.25946E-05  4810   0.689E-03    0.695E-03
RMM:  12    -0.413281475418E+03   -0.12300E-05   -0.94374E-06  3841   0.396E-03    0.457E-03
RMM:  13    -0.413281474886E+03    0.53194E-06   -0.35105E-06  2908   0.281E-03
  144 T=   213. E= -.41223466E+03 F= -.41328147E+03 E0= -.41326063E+03  EK= 0.10468E+01 SP= 0.00E+00 SK= 0.00E+00
       N       E                     dE             d eps       ncg     rms          rms(c)
RMM:   1    -0.413835164725E+03   -0.55369E+00   -0.30435E+01  4264   0.104E+01    0.113E+00
RMM:   2    -0.413599695810E+03    0.23547E+00   -0.74380E-01  5124   0.107E+00    0.101E+00
RMM:   3    -0.413637016116E+03   -0.37320E-01   -0.13314E-01  5766   0.401E-01    0.121E+00
RMM:   4    -0.413595558129E+03    0.41458E-01   -0.44223E-02  5188   0.245E-01    0.720E-01
RMM:   5    -0.413594308241E+03    0.12499E-02   -0.34703E-02  4632   0.252E-01    0.257E-01
RMM:   6    -0.413593817028E+03    0.49121E-03   -0.18671E-02  5004   0.170E-01    0.173E-01
RMM:   7    -0.413592350704E+03    0.14663E-02   -0.40235E-03  5049   0.842E-02    0.868E-02
RMM:   8    -0.413592161284E+03    0.18942E-03   -0.12179E-03  5611   0.433E-02    0.488E-02
RMM:   9    -0.413592084844E+03    0.76440E-04   -0.43396E-04  4937   0.255E-02    0.241E-02
RMM:  10    -0.413592070969E+03    0.13875E-04   -0.19129E-04  5741   0.159E-02    0.137E-02
RMM:  11    -0.413592064604E+03    0.63648E-05   -0.35646E-05  5267   0.698E-03    0.892E-03
RMM:  12    -0.413592057974E+03    0.66297E-05   -0.20106E-05  4802   0.557E-03    0.529E-03
RMM:  13    -0.413592054790E+03    0.31845E-05   -0.28484E-06  2750   0.264E-03    0.225E-03
RMM:  14    -0.413592053518E+03    0.12716E-05   -0.10626E-06  2468   0.178E-03    0.124E-03
RMM:  15    -0.413592052169E+03    0.13490E-05   -0.69504E-07  2386   0.143E-03    0.528E-04
RMM:  16    -0.413592051494E+03    0.67550E-06   -0.37503E-07  2037   0.103E-03
  145 T=   271. E= -.41225955E+03 F= -.41359205E+03 E0= -.41357179E+03  EK= 0.13325E+01 SP= 0.00E+00 SK= 0.00E+00
       N       E                     dE             d eps       ncg     rms          rms(c)
RMM:   1    -0.413968103954E+03   -0.37605E+00   -0.38110E+01  4264   0.114E+01    0.215E+00
RMM:   2    -0.413609058743E+03    0.35905E+00   -0.12360E+00  5293   0.137E+00    0.185E+00
RMM:   3    -0.413758388900E+03   -0.14933E+00   -0.34134E-01  5550   0.635E-01    0.218E+00
RMM:   4    -0.413610583850E+03    0.14781E+00   -0.18945E-01  5240   0.478E-01    0.124E+00
RMM:   5    -0.413588786781E+03    0.21797E-01   -0.83869E-02  4543   0.406E-01    0.267E-01
RMM:   6    -0.413587844734E+03    0.94205E-03   -0.23693E-02  5337   0.194E-01    0.210E-01
RMM:   7    -0.413585877414E+03    0.19673E-02   -0.54696E-03  4956   0.965E-02    0.106E-01
RMM:   8    -0.413585622902E+03    0.25451E-03   -0.16224E-03  5449   0.519E-02    0.603E-02
RMM:   9    -0.413585549302E+03    0.73600E-04   -0.85925E-04  5107   0.368E-02    0.408E-02
RMM:  10    -0.413585516669E+03    0.32633E-04   -0.24058E-04  5440   0.198E-02    0.190E-02
RMM:  11    -0.413585522555E+03   -0.58855E-05   -0.10373E-04  5865   0.113E-02    0.146E-02
RMM:  12    -0.413585522271E+03    0.28361E-06   -0.25834E-05  4787   0.683E-03    0.496E-03
RMM:  13    -0.413585532939E+03   -0.10668E-04   -0.14388E-05  4374   0.457E-03    0.379E-03
RMM:  14    -0.413585542087E+03   -0.91478E-05   -0.21581E-06  2667   0.257E-03    0.192E-03
RMM:  15    -0.413585550731E+03   -0.86435E-05   -0.12856E-06  2574   0.181E-03    0.105E-03
RMM:  16    -0.413585561726E+03   -0.10995E-04   -0.17317E-06  2666   0.182E-03    0.635E-04
RMM:  17    -0.413585570193E+03   -0.84666E-05   -0.14318E-06  2433   0.148E-03    0.492E-04
RMM:  18    -0.413585577331E+03   -0.71386E-05   -0.13652E-06  2406   0.138E-03    0.339E-04
RMM:  19    -0.413585581011E+03   -0.36803E-05   -0.73483E-07  1958   0.101E-03    0.281E-04
RMM:  20    -0.413585583096E+03   -0.20847E-05   -0.35546E-07  1611   0.785E-04    0.183E-04
RMM:  21    -0.413585585984E+03   -0.28874E-05   -0.35683E-07  1719   0.798E-04    0.105E-04
RMM:  22    -0.413585586892E+03   -0.90819E-06   -0.12780E-07  1080   0.612E-04
  146 T=   261. E= -.41230144E+03 F= -.41358559E+03 E0= -.41356598E+03  EK= 0.12841E+01 SP= 0.00E+00 SK= 0.00E+00
       N       E                     dE             d eps       ncg     rms          rms(c)
RMM:   1    -0.413132489222E+03    0.45310E+00   -0.30592E+01  4264   0.102E+01    0.243E+00
RMM:   2    -0.412938138657E+03    0.19435E+00   -0.12681E+00  5323   0.139E+00    0.221E+00
RMM:   3    -0.412960604503E+03   -0.22466E-01   -0.24817E-01  5289   0.579E-01    0.180E+00
RMM:   4    -0.413089469382E+03   -0.12886E+00   -0.28562E-01  5412   0.516E-01    0.204E+00
RMM:   5    -0.412919037728E+03    0.17043E+00   -0.15695E-01  4631   0.522E-01    0.363E-01
RMM:   6    -0.412916233833E+03    0.28039E-02   -0.37900E-02  5483   0.234E-01    0.202E-01
RMM:   7    -0.412915500119E+03    0.73371E-03   -0.72478E-03  5405   0.995E-02    0.112E-01
RMM:   8    -0.412915299671E+03    0.20045E-03   -0.24578E-03  5393   0.578E-02    0.774E-02
RMM:   9    -0.412915105304E+03    0.19437E-03   -0.10154E-03  4701   0.426E-02    0.342E-02
RMM:  10    -0.412915106651E+03   -0.13473E-05   -0.32290E-04  5913   0.214E-02    0.226E-02
RMM:  11    -0.412915107754E+03   -0.11022E-05   -0.84952E-05  5576   0.107E-02    0.134E-02
RMM:  12    -0.412915114828E+03   -0.70743E-05   -0.28125E-05  5172   0.702E-03    0.681E-03
RMM:  13    -0.412915127545E+03   -0.12717E-04   -0.10253E-05  4027   0.461E-03    0.464E-03
RMM:  14    -0.412915137928E+03   -0.10383E-04   -0.33156E-06  2810   0.296E-03    0.202E-03
RMM:  15    -0.412915145702E+03   -0.77742E-05   -0.15367E-06  2596   0.192E-03    0.108E-03
RMM:  16    -0.412915155330E+03   -0.96275E-05   -0.15696E-06  2630   0.181E-03    0.653E-04
RMM:  17    -0.412915163241E+03   -0.79114E-05   -0.14104E-06  2508   0.149E-03    0.490E-04
RMM:  18    -0.412915168984E+03   -0.57425E-05   -0.11345E-06  2264   0.125E-03    0.297E-04
RMM:  19    -0.412915173627E+03   -0.46429E-05   -0.11662E-06  2373   0.124E-03    0.208E-04
RMM:  20    -0.412915175291E+03   -0.16647E-05   -0.40986E-07  1485   0.781E-04    0.137E-04
RMM:  21    -0.412915177043E+03   -0.17515E-05   -0.29672E-07  1493   0.737E-04    0.814E-05
RMM:  22    -0.412915178032E+03   -0.98953E-06   -0.16130E-07  1216   0.635E-04
  147 T=   140. E= -.41222530E+03 F= -.41291518E+03 E0= -.41289583E+03  EK= 0.68988E+00 SP= 0.00E+00 SK= 0.00E+00
       N       E                     dE             d eps       ncg     rms          rms(c)
RMM:   1    -0.412920509605E+03   -0.53326E-02   -0.11997E+01  4264   0.654E+00    0.116E+00
RMM:   2    -0.412920017124E+03    0.49248E-03   -0.46833E-01  5379   0.857E-01    0.125E+00
RMM:   3    -0.412909188743E+03    0.10828E-01   -0.16063E-01  5407   0.440E-01    0.120E+00
RMM:   4    -0.412850122602E+03    0.59066E-01   -0.93037E-02  5224   0.360E-01    0.511E-01
RMM:   5    -0.412848578814E+03    0.15438E-02   -0.19683E-02  5429   0.181E-01    0.291E-01
RMM:   6    -0.412848575653E+03    0.31613E-05   -0.18972E-02  5061   0.160E-01    0.190E-01
RMM:   7    -0.412846807852E+03    0.17678E-02   -0.45600E-03  4844   0.916E-02    0.658E-02
RMM:   8    -0.412846768258E+03    0.39593E-04   -0.93746E-04  5626   0.377E-02    0.365E-02
RMM:   9    -0.412846756532E+03    0.11726E-04   -0.33803E-04  5472   0.228E-02    0.230E-02
RMM:  10    -0.412846746468E+03    0.10064E-04   -0.57981E-05  5047   0.101E-02    0.130E-02
RMM:  11    -0.412846746847E+03   -0.37883E-06   -0.35078E-05  5325   0.702E-03    0.565E-03
RMM:  12    -0.412846751123E+03   -0.42759E-05   -0.60370E-06  3172   0.346E-03    0.366E-03
RMM:  13    -0.412846755185E+03   -0.40619E-05   -0.20694E-06  2628   0.247E-03    0.181E-03
RMM:  14    -0.412846759240E+03   -0.40554E-05   -0.10490E-06  2554   0.164E-03    0.911E-04
RMM:  15    -0.412846762353E+03   -0.31127E-05   -0.79252E-07  2390   0.127E-03    0.502E-04
RMM:  16    -0.412846765652E+03   -0.32992E-05   -0.89869E-07  2318   0.123E-03    0.314E-04
RMM:  17    -0.412846767472E+03   -0.18194E-05   -0.54019E-07  1939   0.958E-04    0.224E-04
RMM:  18    -0.412846768797E+03   -0.13250E-05   -0.40045E-07  1760   0.850E-04    0.192E-04
RMM:  19    -0.412846769855E+03   -0.10583E-05   -0.32977E-07  1622   0.793E-04    0.115E-04
RMM:  20    -0.412846770265E+03   -0.41036E-06   -0.15207E-07  1181   0.632E-04
  148 T=   133. E= -.41219340E+03 F= -.41284677E+03 E0= -.41282672E+03  EK= 0.65337E+00 SP= 0.00E+00 SK= 0.00E+00
       N       E                     dE             d eps       ncg     rms          rms(c)
RMM:   1    -0.414018210812E+03   -0.11714E+01   -0.30029E+01  4297   0.100E+01    0.270E+00
RMM:   2    -0.414128513271E+03   -0.11030E+00   -0.15190E+00  5368   0.150E+00    0.314E+00
RMM:   3    -0.413807936180E+03    0.32058E+00   -0.55401E-01  5266   0.841E-01    0.223E+00
RMM:   4    -0.413727050042E+03    0.80886E-01   -0.36872E-01  5289   0.697E-01    0.119E+00
RMM:   5    -0.413709809543E+03    0.17240E-01   -0.11477E-01  4933   0.451E-01    0.507E-01
RMM:   6    -0.413705434598E+03    0.43749E-02   -0.72057E-02  5118   0.324E-01    0.323E-01
RMM:   7    -0.413700446044E+03    0.49886E-02   -0.93747E-03  4720   0.142E-01    0.121E-01
RMM:   8    -0.413700405734E+03    0.40309E-04   -0.24961E-03  5582   0.610E-02    0.684E-02
RMM:   9    -0.413700385489E+03    0.20245E-04   -0.94569E-04  5244   0.387E-02    0.397E-02
RMM:  10    -0.413700349113E+03    0.36376E-04   -0.14542E-04  5348   0.157E-02    0.209E-02
RMM:  11    -0.413700343956E+03    0.51575E-05   -0.10516E-04  5612   0.115E-02    0.840E-03
RMM:  12    -0.413700346191E+03   -0.22355E-05   -0.18814E-05  4606   0.523E-03    0.629E-03
RMM:  13    -0.413700346220E+03   -0.29013E-07   -0.40404E-06  2929   0.301E-03
  149 T=   286. E= -.41229675E+03 F= -.41370035E+03 E0= -.41367921E+03  EK= 0.14036E+01 SP= 0.00E+00 SK= 0.00E+00
       N       E                     dE             d eps       ncg     rms          rms(c)
RMM:   1    -0.414601789711E+03   -0.90144E+00   -0.44857E+01  4305   0.121E+01    0.281E+00
RMM:   2    -0.414350290185E+03    0.25150E+00   -0.18027E+00  5417   0.164E+00    0.308E+00
RMM:   3    -0.414126486740E+03    0.22380E+00   -0.55246E-01  5406   0.839E-01    0.244E+00
RMM:   4    -0.414032146663E+03    0.94340E-01   -0.35427E-01  5290   0.686E-01    0.131E+00
RMM:   5    -0.414016254620E+03    0.15892E-01   -0.14889E-01  4856   0.512E-01    0.564E-01
RMM:   6    -0.414012057269E+03    0.41974E-02   -0.92822E-02  5101   0.365E-01    0.368E-01
RMM:   7    -0.414004660385E+03    0.73969E-02   -0.12024E-02  4590   0.164E-01    0.140E-01
RMM:   8    -0.414004632047E+03    0.28339E-04   -0.41337E-03  5722   0.752E-02    0.877E-02
RMM:   9    -0.414004541657E+03    0.90390E-04   -0.13161E-03  4835   0.467E-02    0.436E-02
RMM:  10    -0.414004506858E+03    0.34799E-04   -0.24785E-04  5633   0.201E-02    0.223E-02
RMM:  11    -0.414004505520E+03    0.13378E-05   -0.12637E-04  5683   0.131E-02    0.117E-02
RMM:  12    -0.414004509328E+03   -0.38083E-05   -0.21708E-05  4594   0.619E-03    0.640E-03
RMM:  13    -0.414004511492E+03   -0.21637E-05   -0.84465E-06  3545   0.372E-03    0.307E-03
RMM:  14    -0.414004512398E+03   -0.90557E-06   -0.18223E-06  2604   0.230E-03
  150 T=   355. E= -.41226060E+03 F= -.41400451E+03 E0= -.41398316E+03  EK= 0.17439E+01 SP= 0.00E+00 SK= 0.00E+00
